
Running Job 1 of 1 ruruma/CH3CHClCH2Cl_afterGeo_edge_singlet.xyz.data/inputs/bond_triplet_4.1.in
qchem ruruma/CH3CHClCH2Cl_afterGeo_edge_singlet.xyz.data/inputs/bond_triplet_4.1.in_23523.0 /staging/scratch/2858534/qchem23523/ 1
/usr/usc/qchem/5.1.1/exe/qcprog.exe_s ruruma/CH3CHClCH2Cl_afterGeo_edge_singlet.xyz.data/inputs/bond_triplet_4.1.in_23523.0 /staging/scratch/2858534/qchem23523/
Check license passed

                  Welcome to Q-Chem
     A Quantum Leap Into The Future Of Chemistry


 Q-Chem 5.1, Q-Chem, Inc., Pleasanton, CA (2018)

 Yihan Shao,  Zhengting Gan,  E. Epifanovsky,  A. T. B. Gilbert,  M. Wormit,  
 J. Kussmann,  A. W. Lange,  A. Behn,  Jia Deng,  Xintian Feng,  D. Ghosh,  
 M. Goldey,  P. R. Horn,  L. D. Jacobson,  I. Kaliman,  T. Kus,  A. Landau,  
 Jie Liu,  E. I. Proynov,  R. M. Richard,  R. P. Steele,  E. J. Sundstrom,  
 H. L. Woodcock III,  P. M. Zimmerman,  D. Zuev,  B. Albrecht,  E. Alguire,  
 S. A. Baeppler,  D. Barton,  Z. Benda,  Y. A. Bernard,  E. J. Berquist,  
 K. B. Bravaya,  H. Burton,  D. Casanova,  Chun-Min Chang,  Yunqing Chen,  
 A. Chien,  K. D. Closser,  M. P. Coons,  S. Coriani,  S. Dasgupta,  
 A. L. Dempwolff,  M. Diedenhofen,  Hainam Do,  R. G. Edgar,  Po-Tung Fang,  
 S. Faraji,  S. Fatehi,  Qingguo Feng,  K. D. Fenk,  J. Fosso-Tande,  
 Qinghui Ge,  A. Ghysels,  G. Gidofalvi,  J. Gomes,  J. Gonthier,  A. Gunina,  
 D. Hait,  M. W. D. Hanson-Heine,  P. H. P. Harbach,  A. W. Hauser,  
 J. E. Herr,  E. G. Hohenstein,  Z. C. Holden,  Kerwin Hui,  B. C. Huynh,  
 T.-C. Jagau,  Hyunjun Ji,  B. Kaduk,  K. Khistyaev,  Jaehoon Kim,  
 P. Klunzinger,  K. Koh,  D. Kosenkov,  L. Koulias,  T. Kowalczyk,  
 C. M. Krauter,  A. Kunitsa,  Ka Un Lao,  A. Laurent,  K. V. Lawler,  
 Joonho Lee,  D. Lefrancois,  S. Lehtola,  D. S. Levine,  Yi-Pei Li,  
 You-Sheng Lin,  Fenglai Liu,  E. Livshits,  A. Luenser,  P. Manohar,  
 E. Mansoor,  S. F. Manzer,  Shan-Ping Mao,  Yuezhi Mao,  N. Mardirossian,  
 A. V. Marenich,  T. Markovich,  L. A. Martinez-Martinez,  S. A. Maurer,  
 N. J. Mayhall,  S. C. McKenzie,  J.-M. Mewes,  A. F. Morrison,  
 J. W. Mullinax,  K. Nanda,  T. S. Nguyen-Beck,  R. Olivares-Amaya,  
 J. A. Parkhill,  T. M. Perrine,  F. Plasser,  P. Pokhilko,  S. Prager,  
 A. Prociuk,  E. Ramos,  D. R. Rehn,  F. Rob,  M. Schneider,  N. Sergueev,  
 S. M. Sharada,  S. Sharma,  D. W. Small,  T. Stauch,  T. Stein,  
 Yu-Chuan Su,  A. J. W. Thom,  A. Tkatchenko,  T. Tsuchimochi,  N. M. Tubman,  
 L. Vogt,  M. L. Vidal,  O. Vydrov,  M. A. Watson,  J. Wenzel,  
 M. de Wergifosse,  T. A. Wesolowski,  A. White,  J. Witte,  A. Yamada,  
 Jun Yang,  K. Yao,  S. Yeganeh,  S. R. Yost,  Zhi-Qiang You,  A. Zech,  
 Igor Ying Zhang,  Xing Zhang,  Yan Zhao,  Ying Zhu,  B. R. Brooks,  
 G. K. L. Chan,  C. J. Cramer,  M. S. Gordon,  W. J. Hehre,  A. Klamt,  
 M. W. Schmidt,  C. D. Sherrill,  D. G. Truhlar,  A. Aspuru-Guzik,  R. Baer,  
 A. T. Bell,  N. A. Besley,  Jeng-Da Chai,  A. E. DePrince, III,  
 R. A. DiStasio Jr.,  A. Dreuw,  B. D. Dunietz,  T. R. Furlani,  
 Chao-Ping Hsu,  Yousung Jung,  Jing Kong,  D. S. Lambrecht,  WanZhen Liang,  
 C. Ochsenfeld,  V. A. Rassolov,  L. V. Slipchenko,  J. E. Subotnik,  
 T. Van Voorhis,  J. M. Herbert,  A. I. Krylov,  P. M. W. Gill,  M. Head-Gordon

 Contributors to earlier versions of Q-Chem not listed above: 
 R. D. Adamson,  B. Austin,  J. Baker,  G. J. O. Beran,  K. Brandhorst,  
 S. T. Brown,  E. F. C. Byrd,  A. K. Chakraborty,  C.-L. Cheng,  
 Siu Hung Chien,  D. M. Chipman,  D. L. Crittenden,  H. Dachsel,  
 R. J. Doerksen,  A. D. Dutoi,  L. Fusti-Molnar,  W. A. Goddard III,  
 A. Golubeva-Zadorozhnaya,  S. R. Gwaltney,  G. Hawkins,  A. Heyden,  
 S. Hirata,  G. Kedziora,  F. J. Keil,  C. Kelley,  Jihan Kim,  R. A. King,  
 R. Z. Khaliullin,  P. P. Korambath,  W. Kurlancheek,  A. M. Lee,  M. S. Lee,  
 S. V. Levchenko,  Ching Yeh Lin,  D. Liotard,  R. C. Lochan,  I. Lotan,  
 P. E. Maslen,  N. Nair,  D. P. O'Neill,  D. Neuhauser,  E. Neuscamman,  
 C. M. Oana,  R. Olson,  B. Peters,  R. Peverati,  P. A. Pieniazek,  
 Y. M. Rhee,  J. Ritchie,  M. A. Rohrdanz,  E. Rosta,  N. J. Russ,  
 H. F. Schaefer III,  N. E. Schultz,  N. Shenvi,  A. C. Simmonett,  A. Sodt,  
 D. Stuck,  K. S. Thanthiriwatte,  V. Vanovschi,  Tao Wang,  A. Warshel,  
 C. F. Williams,  Q. Wu,  X. Xu,  W. Zhang

 Please cite Q-Chem as follows:
 Y. Shao et al., Mol. Phys. 113, 184-215 (2015)
 DOI: 10.1080/00268976.2014.952696

 Q-Chem 5.1.1 for Intel X86 EM64T Linux

 Parts of Q-Chem use Armadillo 8.300.2 (Tropical Shenanigans).
 http://arma.sourceforge.net/

 Q-Chem begins on Tue Mar 12 00:59:02 2019  

Host: 
0

     Scratch files written to /staging/scratch/2858534/qchem23523//
 Aug318 |scratch|qcdevops|jenkins|workspace|build_RNUM 6013   
Processing $rem in /usr/usc/qchem/5.1.1/config/preferences.
 MEM_TOTAL  2000 
Input Ideriv = 2
Curr. Ideriv = -1
Max.  Ideriv = 2

Checking the input file for inconsistencies... 	...done.

--------------------------------------------------------------
User input:
--------------------------------------------------------------

$comment
potential surface scanner
$end

$rem
JOBTYPE  PES_SCAN
UNRESTRICTED TRUE
SYM_IGNORE  TRUE
GEOM_OPT_MAX_CYCLES 400
SCF_MAX_CYCLES 400
METHOD   B3LYP
BASIS   6-31G**
PDB_PRINT 2
SCF_CONVERGENCE 6
THRESH 14
SCF_PRINT 1
$end
$molecule
0 3
Cl 0.774280 0.674750 1.029278
Cl -1.323664 2.230561 1.976731
C -0.373765 -0.439619 -0.191026
C -0.235039 0.145852 -1.503052
C 0.100625 -1.864873 -0.006860
H -1.329158 -0.227049 0.286253
H -0.793819 1.035810 -1.768428
H 0.536565 -0.203138 -2.181972
H 1.119521 -1.995491 -0.381094
H 0.066340 -2.164330 1.042040
H -0.561588 -2.527074 -0.577066
$end
$scan
stre 2 4 4.100000 4.101000 0.100000
$end
--------------------------------------------------------------
 ----------------------------------------------------------------
             Standard Nuclear Orientation (Angstroms)
    I     Atom           X                Y                Z
 ----------------------------------------------------------------
    1      Cl      0.7742800000     0.6747500000     1.0292780000
    2      Cl     -1.3236640000     2.2305610000     1.9767310000
    3      C      -0.3737650000    -0.4396190000    -0.1910260000
    4      C      -0.2350390000     0.1458520000    -1.5030520000
    5      C       0.1006250000    -1.8648730000    -0.0068600000
    6      H      -1.3291580000    -0.2270490000     0.2862530000
    7      H      -0.7938190000     1.0358100000    -1.7684280000
    8      H       0.5365650000    -0.2031380000    -2.1819720000
    9      H       1.1195210000    -1.9954910000    -0.3810940000
   10      H       0.0663400000    -2.1643300000     1.0420400000
   11      H      -0.5615880000    -2.5270740000    -0.5770660000
 ----------------------------------------------------------------
 Nuclear Repulsion Energy =   258.9147716285 hartrees
 There are       30 alpha and       28 beta electrons
 Requested basis set is 6-31G(d,p)
 There are 40 shells and 113 basis functions

 Total QAlloc Memory Limit   2000 MB
 Mega-Array Size       188 MB
 MEM_STATIC part       192 MB
A total of 1 constraints
  
            1
    1   1.0100000
    2   2.0100000
    3   4.0100000
    4   4.1000000
    5   4.1010000
    6   0.1000000
    7   0.0000000
    8   0.0000000
    9   0.0000000
   10   0.0000000

                       Distance Matrix (Angstroms)
             Cl(  1)   Cl(  2)   C (  3)   C (  4)   C (  5)   H (  6)
   Cl(  2)  2.778414
   C (  3)  2.012205  3.568100
   C (  4)  2.776896  4.200001  1.443410
   C (  5)  2.824372  4.768208  1.513378  2.528691
   H (  6)  2.406196  2.982883  1.088925  2.130203  2.193778
   H (  7)  3.227454  3.966659  2.200348  1.083829  3.509575  2.470448
   H (  8)  3.337562  5.165090  2.201929  1.085403  2.771736  3.094128
   H (  9)  3.039495  5.421071  2.164894  2.771096  1.093280  3.093343
   H ( 10)  2.926041  4.703278  2.165357  3.450400  1.091348  2.504334
   H ( 11)  3.823161  5.453231  2.131144  2.847563  1.096436  2.573830
             H (  7)   H (  8)   H (  9)   H ( 10)
   H (  8)  1.864385
   H (  9)  3.843742  2.606823
   H ( 10)  4.345055  3.802846  1.778485
   H ( 11)  3.763963  3.030238  1.774010  1.774086
 
 A cutoff of  1.0D-14 yielded    759 shell pairs
 There are      6219 function pairs
 
 -------------------------------------------------------
 OpenMP Integral Computing Module                       
 Release: version 1.0, May 2013, Q-Chem Inc. Pittsburgh 
 -------------------------------------------------------
 Integral Job Info:
 Integral job number is                      11
 Integral operator is                         1
 short-range coefficients                     0
 long-range coefficients              100000000
 Omega coefficients                           0
 if combine SR and LR in K                    0
 Integral screening is                        0
 Integral computing path is                   2
 max size of driver memory is            800000
 size of driver memory is                593474
 size of scratch memory is             15267112
 max col of scratch BK array               1296
 max len of scratch array in speh3          155
 max len of scratch index in speh4           18
 max int batch size is                      520
 min int batch size is                       52
 fixed nKL is                                52
 max L of basis functions is                  2
 order of int derivative is                   0
 number of shells is                         40
 number of basis is                         113
 number of cartesian basis is               113
 number of contracted shell pairs           759
 number of primitive shell pairs           3048
 maxK2 (contraction) of shell pair           36
 max number of K2 of shell pair               1
 max number of CS2 of shell pair             60
 max number of PS2 of shell pair            330
 mem total for path MDJ                  518460
 -------------------------------------------------------
 Smallest overlap matrix eigenvalue = 5.75E-03

 Scale SEOQF with 1.000000e-01/1.000000e-01/1.000000e-01

 Standard Electronic Orientation quadrupole field applied
 Nucleus-field energy     =    -0.0000000006 hartrees
 Guess from superposition of atomic densities
 Warning:  Energy on first SCF cycle will be non-variational
 SAD guess density has 58.000000 electrons

 -----------------------------------------------------------------------
  General SCF calculation program by
  Eric Jon Sundstrom, Paul Horn, Yuezhi Mao, Dmitri Zuev, Alec White,
  David Stuck, Shaama M.S., Shane Yost, Joonho Lee, David Small,
  Daniel Levine, Susi Lehtola, Hugh Burton, Evgeny Epifanovsky
 -----------------------------------------------------------------------
 Exchange:     0.2000 Hartree-Fock + 0.0800 Slater + 0.7200 B88
 Correlation:  0.1900 VWN1RPA + 0.8100 LYP
 Using SG-1 standard quadrature grid
 using 12 threads for integral computing
 -------------------------------------------------------
 OpenMP Integral computing Module                
 Release: version 1.0, May 2013, Q-Chem Inc. Pittsburgh 
 -------------------------------------------------------
 -------------------------------------------------------
 OpenMP BLAS3 based DFT computing Module                
 Release: version 1.0, May 2013, Q-Chem Inc. Pittsburgh 
 -------------------------------------------------------
 A unrestricted SCF calculation will be
 performed using DIIS
 SCF converges when DIIS error is below 1.0e-06
 Alpha HF Exchange    Energy =  -7.26074758451363
 Beta HF Exchange     Energy =  -7.26074758451363
 DFT Correlation      Energy =  -2.75576370812381
 DFT Exchange         Energy = -57.30814975059879
 One-Electron (alpha) Energy = -970.04527454136257
 One-Electron (beta)  Energy = -970.04527454136257
 Total Coulomb        Energy = 717.22680426977274
 ---------------------------------------
  Cycle       Energy         DIIS error
 ---------------------------------------
    1   -1038.5343818128      2.58e-02  
 Alpha HF Exchange    Energy =  -7.39533373680572
 Beta HF Exchange     Energy =  -7.17163162021109
 DFT Correlation      Energy =  -2.77325089336476
 DFT Exchange         Energy = -57.82539638888497
 One-Electron (alpha) Energy = -989.18039351347602
 One-Electron (beta)  Energy = -956.54476705930358
 Total Coulomb        Energy = 723.82696255753422
    2   -1038.1490390266      3.10e-03  
 Alpha HF Exchange    Energy =  -7.35327748382538
 Beta HF Exchange     Energy =  -7.14517841418773
 DFT Correlation      Energy =  -2.75264055057663
 DFT Exchange         Energy = -57.50170607275588
 One-Electron (alpha) Energy = -987.09601100702071
 One-Electron (beta)  Energy = -955.22687895347030
 Total Coulomb        Energy = 720.04861150849069
    3   -1038.1123093455      3.92e-03  
 Alpha HF Exchange    Energy =  -7.36878225455995
 Beta HF Exchange     Energy =  -7.14680367421261
 DFT Correlation      Energy =  -2.76031454501221
 DFT Exchange         Energy = -57.59361875720866
 One-Electron (alpha) Energy = -987.54412701816932
 One-Electron (beta)  Energy = -955.10375420568494
 Total Coulomb        Energy = 720.37525412646323
    4   -1038.2273747005      6.40e-04  
 Alpha HF Exchange    Energy =  -7.37583161509870
 Beta HF Exchange     Energy =  -7.15519496936792
 DFT Correlation      Energy =  -2.76155944342262
 DFT Exchange         Energy = -57.64841100792593
 One-Electron (alpha) Energy = -988.06807216425739
 One-Electron (beta)  Energy = -955.70416982454503
 Total Coulomb        Energy = 721.56842867650164
    5   -1038.2300387202      3.65e-04  
 Alpha HF Exchange    Energy =  -7.37546656684503
 Beta HF Exchange     Energy =  -7.15365812176158
 DFT Correlation      Energy =  -2.76121290619712
 DFT Exchange         Energy = -57.64161865326184
 One-Electron (alpha) Energy = -987.98867944766300
 One-Electron (beta)  Energy = -955.57545608384294
 Total Coulomb        Energy = 721.35016737848684
    6   -1038.2311527732      8.15e-05  
 Alpha HF Exchange    Energy =  -7.37499844729945
 Beta HF Exchange     Energy =  -7.15333293890223
 DFT Correlation      Energy =  -2.76094444907125
 DFT Exchange         Energy = -57.63757600208083
 One-Electron (alpha) Energy = -987.93384968987755
 One-Electron (beta)  Energy = -955.53681186089136
 Total Coulomb        Energy = 721.25152793023119
    7   -1038.2312138300      2.72e-05  
 Alpha HF Exchange    Energy =  -7.37527906225257
 Beta HF Exchange     Energy =  -7.15357350131546
 DFT Correlation      Energy =  -2.76095973323713
 DFT Exchange         Energy = -57.63944163014277
 One-Electron (alpha) Energy = -987.95115177735488
 One-Electron (beta)  Energy = -955.55521895735274
 Total Coulomb        Energy = 721.28963050529399
    8   -1038.2312225285      9.08e-06  
 Alpha HF Exchange    Energy =  -7.37526463601750
 Beta HF Exchange     Energy =  -7.15354676189410
 DFT Correlation      Energy =  -2.76093011911905
 DFT Exchange         Energy = -57.63920057295104
 One-Electron (alpha) Energy = -987.94580412596895
 One-Electron (beta)  Energy = -955.55174687635292
 Total Coulomb        Energy = 721.28049813806069
    9   -1038.2312233264      5.22e-06  
 Alpha HF Exchange    Energy =  -7.37525971643046
 Beta HF Exchange     Energy =  -7.15355365302240
 DFT Correlation      Energy =  -2.76092968966789
 DFT Exchange         Energy = -57.63920948961248
 One-Electron (alpha) Energy = -987.94581123702937
 One-Electron (beta)  Energy = -955.55240650068447
 Total Coulomb        Energy = 721.28117503411329
   10   -1038.2312236245      1.66e-06  
 Alpha HF Exchange    Energy =  -7.37526736393907
 Beta HF Exchange     Energy =  -7.15355359120352
 DFT Correlation      Energy =  -2.76092904769741
 DFT Exchange         Energy = -57.63924035821442
 One-Electron (alpha) Energy = -987.94604766042926
 One-Electron (beta)  Energy = -955.55261676168357
 Total Coulomb        Energy = 721.28165944529576
   11   -1038.2312237100      7.49e-07  Convergence criterion met
 ---------------------------------------
 SCF time:   CPU 28.37s  wall 2.00s 
<S^2> =          2.009977792
 Alpha HF Exchange    Energy =  -7.37526736393907
 Beta HF Exchange     Energy =  -7.15355359120352
 DFT Correlation      Energy =  -2.76092904769741
 DFT Exchange         Energy = -57.63924035821442
 One-Electron (alpha) Energy = -987.94604766042926
 One-Electron (beta)  Energy = -955.55261676168357
 Total Coulomb        Energy = 721.28165944529576
 Nuclear repulsion Energy = 258.91477162787265
 SCF   energy in the final basis set =    -1038.2312237100
 Total energy in the final basis set =    -1038.2312237100
 
 --------------------------------------------------------------
 
                    Orbital Energies (a.u.)
 --------------------------------------------------------------
 
 Alpha MOs
 -- Occupied --
*******-101.529 -10.281 -10.241 -10.214  -9.475  -9.442  -7.239
 -7.234  -7.229  -7.213  -7.195  -7.195  -0.872  -0.798  -0.775
 -0.725  -0.609  -0.507  -0.469  -0.461  -0.408  -0.403  -0.391
 -0.370  -0.330  -0.296  -0.292  -0.289  -0.256
 -- Virtual --
 -0.023   0.084   0.109   0.114   0.145   0.157   0.161   0.215
  0.253   0.348   0.385   0.416   0.426   0.447   0.463   0.488
  0.496   0.512   0.528   0.534   0.582   0.599   0.612   0.658
  0.699   0.759   0.789   0.827   0.834   0.841   0.852   0.868
  0.871   0.876   0.889   0.896   0.901   0.915   0.933   0.967
  1.012   1.056   1.127   1.188   1.304   1.394   1.411   1.535
  1.657   1.739   1.807   1.849   1.893   1.946   1.994   2.018
  2.054   2.080   2.096   2.243   2.277   2.327   2.381   2.465
  2.535   2.554   2.618   2.674   2.731   2.800   2.847   2.901
  3.162   3.256   3.371   3.389   3.433   3.503   4.178   4.232
  4.282   4.348   4.562
 
 Beta MOs
 -- Occupied --
*******-101.523 -10.281 -10.228 -10.214  -9.472  -9.436  -7.232
 -7.227  -7.226  -7.195  -7.191  -7.191  -0.858  -0.777  -0.736
 -0.708  -0.599  -0.501  -0.462  -0.453  -0.402  -0.398  -0.374
 -0.326  -0.320  -0.283  -0.279
 -- Virtual --
 -0.175  -0.124   0.001   0.087   0.113   0.121   0.145   0.159
  0.165   0.219   0.260   0.357   0.400   0.426   0.433   0.454
  0.469   0.495   0.510   0.529   0.540   0.574   0.599   0.614
  0.624   0.664   0.709   0.771   0.797   0.834   0.847   0.859
  0.862   0.886   0.894   0.905   0.909   0.914   0.915   0.922
  0.949   0.979   1.042   1.080   1.139   1.193   1.323   1.399
  1.440   1.542   1.664   1.741   1.816   1.857   1.905   1.970
  2.001   2.019   2.057   2.084   2.105   2.249   2.278   2.330
  2.393   2.479   2.543   2.569   2.620   2.677   2.733   2.801
  2.847   2.903   3.163   3.259   3.375   3.391   3.433   3.508
  4.194   4.249   4.294   4.358   4.565
 --------------------------------------------------------------
 
          Ground-State Mulliken Net Atomic Charges

     Atom                 Charge (a.u.)    Spin (a.u.)
  --------------------------------------------------------
      1 Cl                   -0.049696       0.433226
      2 Cl                   -0.209034       0.772565
      3 C                    -0.168978      -0.066359
      4 C                    -0.148584       0.924394
      5 C                    -0.313338       0.005233
      6 H                     0.192787       0.010124
      7 H                     0.148960      -0.040314
      8 H                     0.132792      -0.040225
      9 H                     0.134627      -0.000919
     10 H                     0.145224       0.002003
     11 H                     0.135239       0.000273
  --------------------------------------------------------
  Sum of atomic charges =     0.000000
  Sum of spin   charges =     2.000000

 -----------------------------------------------------------------
                    Cartesian Multipole Moments
 -----------------------------------------------------------------
    Charge (ESU x 10^10)
                 0.0000
    Dipole Moment (Debye)
         X       0.2427      Y      -3.5008      Z      -3.3889
       Tot       4.8785
    Quadrupole Moments (Debye-Ang)
        XX     -45.5268     XY       1.5651     YY     -47.9491
        XZ       1.5026     YZ      -4.9114     ZZ     -47.6680
    Octopole Moments (Debye-Ang^2)
       XXX      31.2833    XXY     -23.5972    XYY      13.6376
       YYY     -81.0091    XXZ     -29.0934    XYZ       4.9764
       YYZ     -36.0920    XZZ      15.7123    YZZ     -29.3330
       ZZZ     -94.7888
    Hexadecapole Moments (Debye-Ang^3)
      XXXX    -247.8900   XXXY      95.1038   XXYY    -146.9382
      XYYY     104.9985   YYYY    -670.6018   XXXZ      62.9457
      XXYZ     -61.9324   XYYZ      27.9493   YYYZ    -210.0168
      XXZZ    -132.1818   XYZZ      36.8828   YYZZ    -210.2922
      XZZZ      71.0820   YZZZ    -211.9941   ZZZZ    -559.2230
 -----------------------------------------------------------------
 Calculating analytic gradient of the SCF energy
 Gradient of SCF Energy
            1           2           3           4           5           6
    1   0.0000107  -0.0002163   0.0000112   0.0002461  -0.0000288  -0.0000241
    2   0.0000211   0.0003835  -0.0000531  -0.0003391  -0.0000015   0.0000187
    3  -0.0000027   0.0005689   0.0000102  -0.0006070   0.0000024  -0.0000032
            7           8           9          10          11
    1  -0.0000414   0.0000211   0.0000072   0.0000077   0.0000066
    2  -0.0000507   0.0000081  -0.0000022   0.0000191  -0.0000040
    3  -0.0000374   0.0000026   0.0000200   0.0000217   0.0000244
 Max gradient component =       6.070E-04
 RMS gradient           =       1.805E-04
 Gradient time:  CPU 9.29 s  wall 0.78 s
 Geometry Optimization Parameters
   NAtoms,    NIC,     NZ,  NCons,   NDum,   NFix, NCnnct, MaxDiis
       11      74       0       1       0       0       0       0


** CONSTRAINED OPTIMIZATION IN DELOCALIZED INTERNAL COORDINATES **
   Searching for a Minimum

   Optimization Cycle:   1

                       Coordinates (Angstroms)
     ATOM                X               Y               Z
      1  Cl        0.7742800000    0.6747500000    1.0292780000
      2  Cl       -1.3236640000    2.2305610000    1.9767310000
      3  C        -0.3737650000   -0.4396190000   -0.1910260000
      4  C        -0.2350390000    0.1458520000   -1.5030520000
      5  C         0.1006250000   -1.8648730000   -0.0068600000
      6  H        -1.3291580000   -0.2270490000    0.2862530000
      7  H        -0.7938190000    1.0358100000   -1.7684280000
      8  H         0.5365650000   -0.2031380000   -2.1819720000
      9  H         1.1195210000   -1.9954910000   -0.3810940000
     10  H         0.0663400000   -2.1643300000    1.0420400000
     11  H        -0.5615880000   -2.5270740000   -0.5770660000
   Point Group: c1    Number of degrees of freedom:    27


   Energy is  -1038.231223710

              Constraints and their Current Values
                                        Value     Constraint
   Distance(Angs):        2   4             4.200001     4.100000

 Attempting to Generate Delocalized Internal Coordinates

   Using Lagrange Multiplier Algorithm


 28 Hessian modes will be used to form the next step
  Hessian Eigenvalues:
    -0.996721    0.032863    0.045000    0.045000    0.045496    0.062266
     0.067063    0.073796    0.082366    0.085078    0.107136    0.128475
     0.144233    0.151622    0.160000    0.160000    0.160000    0.160000
     0.160000    0.310134    0.324716    0.340794    0.344363    0.346573
     0.353494    0.355357    0.369738    1.003290

 Minimum Search - Taking P-RFO Step
 Searching for Lamda that Maximizes Along the Constraint modes Only
 Value Taken    Lamda =   0.01752791
 Searching for Lamda that Minimizes Along All other modes
 Value Taken    Lamda =  -0.01756766
 Step Taken.  Stepsize is  0.185718

                             Maximum     Tolerance    Cnvgd?
         Gradient            0.188974       0.000300      NO
         Displacement        0.185715       0.001200      NO
         Energy change     *********       0.000001      NO


 New Cartesian Coordinates Obtained by Inverse Iteration

 Displacement from previous Coordinates is:  0.228029
 ----------------------------------------------------------------
             Standard Nuclear Orientation (Angstroms)
    I     Atom           X                Y                Z
 ----------------------------------------------------------------
    1      Cl      0.7883057210     0.6624785654     1.0090755470
    2      Cl     -1.3130887229     2.2270143374     1.9033307559
    3      C      -0.3711026149    -0.4502816144    -0.1958568305
    4      C      -0.2433564912     0.1641856600    -1.4766921610
    5      C       0.1012987240    -1.8748816607    -0.0017059785
    6      H      -1.3256128226    -0.2428054648     0.2633015145
    7      H      -0.8085874569     1.0576436402    -1.7152899485
    8      H       0.5274390297    -0.1613847634    -2.1680542887
    9      H       1.1223905256    -2.0078919810    -0.3690408969
   10      H       0.0603978064    -2.1691430943     1.0484245554
   11      H      -0.5577856982    -2.5395346244    -0.5726882687
 ----------------------------------------------------------------
 Nuclear Repulsion Energy =   260.4585166567 hartrees
 There are       30 alpha and       28 beta electrons

                       Distance Matrix (Angstroms)
             Cl(  1)   Cl(  2)   C (  3)   C (  4)   C (  5)   H (  6)
   Cl(  2)  2.768271
   C (  3)  2.008563  3.530133
   C (  4)  2.737090  4.101725  1.426334
   C (  5)  2.816355  4.738693  1.513388  2.540112
   H (  6)  2.417513  2.964770  1.079334  2.089138  2.184028
   H (  7)  3.182513  3.836191  2.184928  1.083828  3.516243  2.423491
   H (  8)  3.292561  5.066376  2.186413  1.085405  2.794769  3.058091
   H (  9)  3.023524  5.387918  2.164871  2.794652  1.093277  3.083522
   H ( 10)  2.923949  4.684392  2.165390  3.451508  1.091346  2.499644
   H ( 11)  3.816651  5.424126  2.131157  2.868134  1.096438  2.561914
             H (  7)   H (  8)   H (  9)   H ( 10)
   H (  8)  1.864401
   H (  9)  3.865045  2.645752
   H ( 10)  4.336520  3.820335  1.778493
   H ( 11)  3.782609  3.062434  1.774009  1.774077
 
 Applying Cartesian multipole field
    Component          Value
    ---------          -----
     (2,0,0)        1.00000E-11
     (0,2,0)        2.00000E-11
     (0,0,2)       -3.00000E-11
 Requested basis set is 6-31G(d,p)
 There are 40 shells and 113 basis functions
 A cutoff of  1.0D-14 yielded    762 shell pairs
 There are      6236 function pairs
 Smallest overlap matrix eigenvalue = 5.60E-03
 Guess from superposition of atomic densities
 Warning:  Energy on first SCF cycle will be non-variational
 SAD guess density has 58.000000 electrons

 -----------------------------------------------------------------------
  General SCF calculation program by
  Eric Jon Sundstrom, Paul Horn, Yuezhi Mao, Dmitri Zuev, Alec White,
  David Stuck, Shaama M.S., Shane Yost, Joonho Lee, David Small,
  Daniel Levine, Susi Lehtola, Hugh Burton, Evgeny Epifanovsky
 -----------------------------------------------------------------------
 Exchange:     0.2000 Hartree-Fock + 0.0800 Slater + 0.7200 B88
 Correlation:  0.1900 VWN1RPA + 0.8100 LYP
 Using SG-1 standard quadrature grid
 using 12 threads for integral computing
 -------------------------------------------------------
 OpenMP Integral computing Module                
 Release: version 1.0, May 2013, Q-Chem Inc. Pittsburgh 
 -------------------------------------------------------
 -------------------------------------------------------
 OpenMP BLAS3 based DFT computing Module                
 Release: version 1.0, May 2013, Q-Chem Inc. Pittsburgh 
 -------------------------------------------------------
 A unrestricted SCF calculation will be
 performed using DIIS
 SCF converges when DIIS error is below 1.0e-06
 Alpha HF Exchange    Energy =  -7.26394783497125
 Beta HF Exchange     Energy =  -7.26394783497125
 DFT Correlation      Energy =  -2.75666980735069
 DFT Exchange         Energy = -57.31452801612328
 One-Electron (alpha) Energy = -971.57334178170345
 One-Electron (beta)  Energy = -971.57334178170345
 Total Coulomb        Energy = 718.72473072801915
 ---------------------------------------
  Cycle       Energy         DIIS error
 ---------------------------------------
    1   -1038.5625296720      2.61e-02  
 Alpha HF Exchange    Energy =  -7.39728407812313
 Beta HF Exchange     Energy =  -7.17270372676019
 DFT Correlation      Energy =  -2.77441241777647
 DFT Exchange         Energy = -57.83680135953242
 One-Electron (alpha) Energy = -990.83032791401104
 One-Electron (beta)  Energy = -957.98041650749985
 Total Coulomb        Energy = 725.38552138936393
    2   -1038.1479079575      3.13e-03  
 Alpha HF Exchange    Energy =  -7.35503705531710
 Beta HF Exchange     Energy =  -7.14625543741001
 DFT Correlation      Energy =  -2.75360681752605
 DFT Exchange         Energy = -57.51137550533765
 One-Electron (alpha) Energy = -988.72417660280496
 One-Electron (beta)  Energy = -956.65181989142195
 Total Coulomb        Energy = 721.57429095406155
    3   -1038.1094636990      3.96e-03  
 Alpha HF Exchange    Energy =  -7.37048642724784
 Beta HF Exchange     Energy =  -7.14766941945977
 DFT Correlation      Energy =  -2.76140858093571
 DFT Exchange         Energy = -57.60307180381055
 One-Electron (alpha) Energy = -989.18683485002987
 One-Electron (beta)  Energy = -956.52700065755255
 Total Coulomb        Energy = 721.91102595133634
    4   -1038.2269291309      6.46e-04  
 Alpha HF Exchange    Energy =  -7.37759299531870
 Beta HF Exchange     Energy =  -7.15607286902604
 DFT Correlation      Energy =  -2.76268084748513
 DFT Exchange         Energy = -57.65823648048726
 One-Electron (alpha) Energy = -989.71143707379838
 One-Electron (beta)  Energy = -957.12751227064018
 Total Coulomb        Energy = 723.10534094863704
    5   -1038.2296749313      3.60e-04  
 Alpha HF Exchange    Energy =  -7.37719347960960
 Beta HF Exchange     Energy =  -7.15452230393937
 DFT Correlation      Energy =  -2.76230714776937
 DFT Exchange         Energy = -57.65115571702931
 One-Electron (alpha) Energy = -989.62995810513178
 One-Electron (beta)  Energy = -956.99733022512225
 Total Coulomb        Energy = 722.88319148481673
    6   -1038.2307588370      8.02e-05  
 Alpha HF Exchange    Energy =  -7.37674313746812
 Beta HF Exchange     Energy =  -7.15422611509963
 DFT Correlation      Energy =  -2.76205821246841
 DFT Exchange         Energy = -57.64735214926963
 One-Electron (alpha) Energy = -989.57839769144914
 One-Electron (beta)  Energy = -956.96153504514314
 Total Coulomb        Energy = 722.79097664421317
    7   -1038.2308190499      2.64e-05  
 Alpha HF Exchange    Energy =  -7.37702782227793
 Beta HF Exchange     Energy =  -7.15445654643426
 DFT Correlation      Energy =  -2.76206552778885
 DFT Exchange         Energy = -57.64917032347153
 One-Electron (alpha) Energy = -989.59455243471189
 One-Electron (beta)  Energy = -956.97901196385374
 Total Coulomb        Energy = 722.82694006410202
    8   -1038.2308278976      7.07e-06  
 Alpha HF Exchange    Energy =  -7.37699990467914
 Beta HF Exchange     Energy =  -7.15443163690386
 DFT Correlation      Energy =  -2.76203623779422
 DFT Exchange         Energy = -57.64888717408866
 One-Electron (alpha) Energy = -989.58883188228401
 One-Electron (beta)  Energy = -956.97561310574747
 Total Coulomb        Energy = 722.81745469110012
    9   -1038.2308285936      3.90e-06  
 Alpha HF Exchange    Energy =  -7.37700377121409
 Beta HF Exchange     Energy =  -7.15444168703422
 DFT Correlation      Energy =  -2.76203820138331
 DFT Exchange         Energy = -57.64894825883516
 One-Electron (alpha) Energy = -989.58955649622396
 One-Electron (beta)  Energy = -956.97672779288553
 Total Coulomb        Energy = 722.81937076431552
   10   -1038.2308287865      1.87e-06  
 Alpha HF Exchange    Energy =  -7.37700931456852
 Beta HF Exchange     Energy =  -7.15444006578947
 DFT Correlation      Energy =  -2.76203687693694
 DFT Exchange         Energy = -57.64896232288075
 One-Electron (alpha) Energy = -989.58953834536510
 One-Electron (beta)  Energy = -956.97674123122852
 Total Coulomb        Energy = 722.81938263573636
   11   -1038.2308288642      7.48e-07  Convergence criterion met
 ---------------------------------------
 SCF time:   CPU 27.84s  wall 3.00s 
<S^2> =          2.010114380
 Alpha HF Exchange    Energy =  -7.37700931456852
 Beta HF Exchange     Energy =  -7.15444006578947
 DFT Correlation      Energy =  -2.76203687693694
 DFT Exchange         Energy = -57.64896232288075
 One-Electron (alpha) Energy = -989.58953834536510
 One-Electron (beta)  Energy = -956.97674123122852
 Total Coulomb        Energy = 722.81938263573636
 Nuclear repulsion Energy = 260.45851665679669
 SCF   energy in the final basis set =    -1038.2308288642
 Total energy in the final basis set =    -1038.2308288642
 
 --------------------------------------------------------------
 
                    Orbital Energies (a.u.)
 --------------------------------------------------------------
 
 Alpha MOs
 -- Occupied --
*******-101.529 -10.278 -10.238 -10.214  -9.476  -9.442  -7.239
 -7.235  -7.229  -7.213  -7.195  -7.194  -0.875  -0.798  -0.775
 -0.726  -0.608  -0.508  -0.469  -0.462  -0.409  -0.402  -0.393
 -0.371  -0.331  -0.296  -0.292  -0.289  -0.254
 -- Virtual --
 -0.022   0.084   0.112   0.115   0.145   0.156   0.161   0.217
  0.261   0.348   0.385   0.417   0.425   0.445   0.459   0.487
  0.497   0.515   0.529   0.532   0.582   0.600   0.618   0.660
  0.700   0.763   0.789   0.827   0.835   0.841   0.850   0.868
  0.871   0.876   0.889   0.896   0.901   0.914   0.936   0.967
  1.014   1.067   1.131   1.189   1.305   1.403   1.409   1.533
  1.660   1.738   1.806   1.865   1.896   1.952   2.001   2.019
  2.056   2.084   2.105   2.248   2.273   2.328   2.382   2.471
  2.539   2.562   2.622   2.681   2.747   2.801   2.851   2.908
  3.162   3.263   3.385   3.390   3.439   3.511   4.186   4.234
  4.284   4.350   4.564
 
 Beta MOs
 -- Occupied --
*******-101.523 -10.278 -10.226 -10.214  -9.472  -9.436  -7.233
 -7.227  -7.226  -7.195  -7.191  -7.191  -0.860  -0.777  -0.736
 -0.710  -0.599  -0.502  -0.463  -0.454  -0.404  -0.395  -0.375
 -0.327  -0.321  -0.283  -0.279
 -- Virtual --
 -0.174  -0.124   0.003   0.087   0.115   0.122   0.145   0.158
  0.166   0.221   0.267   0.358   0.400   0.428   0.433   0.451
  0.465   0.494   0.513   0.532   0.540   0.574   0.598   0.615
  0.630   0.667   0.710   0.775   0.797   0.835   0.847   0.858
  0.863   0.885   0.895   0.905   0.909   0.913   0.916   0.922
  0.952   0.979   1.045   1.091   1.144   1.194   1.324   1.407
  1.438   1.540   1.667   1.739   1.816   1.870   1.911   1.972
  2.006   2.021   2.059   2.090   2.114   2.255   2.274   2.330
  2.395   2.486   2.547   2.576   2.624   2.685   2.749   2.803
  2.852   2.910   3.163   3.267   3.389   3.392   3.440   3.516
  4.202   4.250   4.295   4.361   4.567
 --------------------------------------------------------------
 
          Ground-State Mulliken Net Atomic Charges

     Atom                 Charge (a.u.)    Spin (a.u.)
  --------------------------------------------------------
      1 Cl                   -0.046546       0.447458
      2 Cl                   -0.211228       0.769773
      3 C                    -0.170377      -0.064758
      4 C                    -0.147123       0.911051
      5 C                    -0.313222       0.005278
      6 H                     0.191672       0.009729
      7 H                     0.150310      -0.039959
      8 H                     0.131421      -0.039618
      9 H                     0.134390      -0.000883
     10 H                     0.145910       0.001838
     11 H                     0.134791       0.000091
  --------------------------------------------------------
  Sum of atomic charges =    -0.000000
  Sum of spin   charges =     2.000000

 -----------------------------------------------------------------
                    Cartesian Multipole Moments
 -----------------------------------------------------------------
    Charge (ESU x 10^10)
                 0.0000
    Dipole Moment (Debye)
         X       0.2401      Y      -3.4977      Z      -3.2945
       Tot       4.8110
    Quadrupole Moments (Debye-Ang)
        XX     -45.4828     XY       1.5833     YY     -47.8844
        XZ       1.4916     YZ      -4.8356     ZZ     -47.5237
    Octopole Moments (Debye-Ang^2)
       XXX      30.3961    XXY     -23.3420    XYY      13.3089
       YYY     -80.5363    XXZ     -28.0617    XYZ       4.8498
       YYZ     -34.8304    XZZ      15.2572    YZZ     -28.7676
       ZZZ     -90.7442
    Hexadecapole Moments (Debye-Ang^3)
      XXXX    -247.2216   XXXY      94.0549   XXYY    -146.6607
      XYYY     103.9296   YYYY    -670.2780   XXXZ      58.5113
      XXYZ     -59.2676   XYYZ      26.3904   YYYZ    -201.4431
      XXZZ    -127.4756   XYZZ      36.6246   YYZZ    -204.9229
      XZZZ      65.9863   YZZZ    -202.7376   ZZZZ    -529.2538
 -----------------------------------------------------------------
 Calculating analytic gradient of the SCF energy
 Gradient of SCF Energy
            1           2           3           4           5           6
    1  -0.0006646   0.0000176  -0.0008626  -0.0027584  -0.0005342   0.0048995
    2  -0.0010035   0.0000230   0.0040509  -0.0012324  -0.0001308  -0.0010754
    3  -0.0028395   0.0003366  -0.0058123   0.0111819   0.0023729  -0.0060918
            7           8           9          10          11
    1  -0.0000977  -0.0000555  -0.0000367   0.0001069  -0.0000142
    2   0.0000576  -0.0005557   0.0001521  -0.0003498   0.0000641
    3  -0.0000215   0.0007330   0.0000632   0.0000754   0.0000020
 Max gradient component =       1.118E-02
 RMS gradient           =       2.828E-03
 Gradient time:  CPU 9.11 s  wall 0.76 s
 Geometry Optimization Parameters
   NAtoms,    NIC,     NZ,  NCons,   NDum,   NFix, NCnnct, MaxDiis
       11      74       0       1       0       0       0       0

 Cartesian Hessian Update
 Hessian Updated using BFGS Update


** CONSTRAINED OPTIMIZATION IN DELOCALIZED INTERNAL COORDINATES **
   Searching for a Minimum

   Optimization Cycle:   2

                       Coordinates (Angstroms)
     ATOM                X               Y               Z
      1  Cl        0.7883057210    0.6624785654    1.0090755470
      2  Cl       -1.3130887229    2.2270143374    1.9033307559
      3  C        -0.3711026149   -0.4502816144   -0.1958568305
      4  C        -0.2433564912    0.1641856600   -1.4766921610
      5  C         0.1012987240   -1.8748816607   -0.0017059785
      6  H        -1.3256128226   -0.2428054648    0.2633015145
      7  H        -0.8085874569    1.0576436402   -1.7152899485
      8  H         0.5274390297   -0.1613847634   -2.1680542887
      9  H         1.1223905256   -2.0078919810   -0.3690408969
     10  H         0.0603978064   -2.1691430943    1.0484245554
     11  H        -0.5577856982   -2.5395346244   -0.5726882687
   Point Group: c1    Number of degrees of freedom:    27


   Energy is  -1038.230828864

              Constraints and their Current Values
                                        Value     Constraint
   Distance(Angs):        2   4             4.101725     4.100000
 Hessian Updated using BFGS Update

   Using Lagrange Multiplier Algorithm


 25 Hessian modes will be used to form the next step
  Hessian Eigenvalues:
    -0.986278    0.033036    0.044998    0.045001    0.045494    0.063519
     0.068726    0.077313    0.082369    0.085101    0.108279    0.133755
     0.148744    0.155607    0.160000    0.164691    0.310163    0.340794
     0.344357    0.346500    0.347771    0.353584    0.355364    0.468475
     1.019675

 Minimum Search - Taking P-RFO Step
 Searching for Lamda that Maximizes Along the Constraint modes Only
 Value Taken    Lamda =   0.00002600
 Searching for Lamda that Minimizes Along All other modes
 Value Taken    Lamda =  -0.00045857
 Step Taken.  Stepsize is  0.045462

                             Maximum     Tolerance    Cnvgd?
         Gradient            0.007811       0.000300      NO
         Displacement        0.023797       0.001200      NO
         Energy change      0.000395       0.000001      NO


 New Cartesian Coordinates Obtained by Inverse Iteration

 Displacement from previous Coordinates is:  0.048130
 ----------------------------------------------------------------
             Standard Nuclear Orientation (Angstroms)
    I     Atom           X                Y                Z
 ----------------------------------------------------------------
    1      Cl      0.7886862803     0.6626519302     1.0212259894
    2      Cl     -1.3144109312     2.2281022606     1.8956302653
    3      C      -0.3725302073    -0.4499137116    -0.1893379013
    4      C      -0.2420117019     0.1631201074    -1.4801380838
    5      C       0.1016548793    -1.8746084999    -0.0036999586
    6      H      -1.3294998493    -0.2418182122     0.2783608943
    7      H      -0.8059005638     1.0568188589    -1.7205260756
    8      H       0.5276519599    -0.1635129982    -2.1727546096
    9      H       1.1216937846    -2.0061040734    -0.3746664899
   10      H       0.0637807258    -2.1716269411     1.0456304493
   11      H      -0.5588163763    -2.5377097207    -0.5749204795
 ----------------------------------------------------------------
 Nuclear Repulsion Energy =   260.2516862081 hartrees
 There are       30 alpha and       28 beta electrons

                       Distance Matrix (Angstroms)
             Cl(  1)   Cl(  2)   C (  3)   C (  4)   C (  5)   H (  6)
   Cl(  2)  2.763736
   C (  3)  2.012881  3.522215
   C (  4)  2.751126  4.100000  1.434925
   C (  5)  2.821378  4.737608  1.512967  2.539747
   H (  6)  2.420047  2.952337  1.085282  2.106875  2.189467
   H (  7)  3.196135  3.834980  2.191481  1.083723  3.516307  2.440525
   H (  8)  3.309411  5.066041  2.196883  1.085720  2.795375  3.076217
   H (  9)  3.030127  5.386776  2.165359  2.790572  1.093337  3.089903
   H ( 10)  2.925615  4.688233  2.163287  3.453123  1.091214  2.500819
   H ( 11)  3.821749  5.421025  2.131260  2.866054  1.096457  2.567715
             H (  7)   H (  8)   H (  9)   H ( 10)
   H (  8)  1.863353
   H (  9)  3.861147  2.642186
   H ( 10)  4.339450  3.821741  1.778713
   H ( 11)  3.780754  3.061094  1.773928  1.774212
 
 Applying Cartesian multipole field
    Component          Value
    ---------          -----
     (2,0,0)        1.00000E-11
     (0,2,0)        2.00000E-11
     (0,0,2)       -3.00000E-11
 Requested basis set is 6-31G(d,p)
 There are 40 shells and 113 basis functions
 A cutoff of  1.0D-14 yielded    762 shell pairs
 There are      6236 function pairs
 Smallest overlap matrix eigenvalue = 5.67E-03
 Guess from superposition of atomic densities
 Warning:  Energy on first SCF cycle will be non-variational
 SAD guess density has 58.000000 electrons

 -----------------------------------------------------------------------
  General SCF calculation program by
  Eric Jon Sundstrom, Paul Horn, Yuezhi Mao, Dmitri Zuev, Alec White,
  David Stuck, Shaama M.S., Shane Yost, Joonho Lee, David Small,
  Daniel Levine, Susi Lehtola, Hugh Burton, Evgeny Epifanovsky
 -----------------------------------------------------------------------
 Exchange:     0.2000 Hartree-Fock + 0.0800 Slater + 0.7200 B88
 Correlation:  0.1900 VWN1RPA + 0.8100 LYP
 Using SG-1 standard quadrature grid
 using 12 threads for integral computing
 -------------------------------------------------------
 OpenMP Integral computing Module                
 Release: version 1.0, May 2013, Q-Chem Inc. Pittsburgh 
 -------------------------------------------------------
 -------------------------------------------------------
 OpenMP BLAS3 based DFT computing Module                
 Release: version 1.0, May 2013, Q-Chem Inc. Pittsburgh 
 -------------------------------------------------------
 A unrestricted SCF calculation will be
 performed using DIIS
 SCF converges when DIIS error is below 1.0e-06
 Alpha HF Exchange    Energy =  -7.26228453902609
 Beta HF Exchange     Energy =  -7.26228453902609
 DFT Correlation      Energy =  -2.75632015822641
 DFT Exchange         Energy = -57.31116162921543
 One-Electron (alpha) Energy = -971.37523272853934
 One-Electron (beta)  Energy = -971.37523272853934
 Total Coulomb        Energy = 718.54285912306318
 ---------------------------------------
  Cycle       Energy         DIIS error
 ---------------------------------------
    1   -1038.5479709913      2.59e-02  
 Alpha HF Exchange    Energy =  -7.39631723066953
 Beta HF Exchange     Energy =  -7.17211486639084
 DFT Correlation      Energy =  -2.77392751158355
 DFT Exchange         Energy = -57.83078384241281
 One-Electron (alpha) Energy = -990.60401027149942
 One-Electron (beta)  Energy = -957.80380243971399
 Total Coulomb        Energy = 725.18019656848901
    2   -1038.1490733856      3.11e-03  
 Alpha HF Exchange    Energy =  -7.35421593457215
 Beta HF Exchange     Energy =  -7.14554411885299
 DFT Correlation      Energy =  -2.75326920423717
 DFT Exchange         Energy = -57.50630191901430
 One-Electron (alpha) Energy = -988.51232064319333
 One-Electron (beta)  Energy = -956.46733482638456
 Total Coulomb        Energy = 721.37569849216368
    3   -1038.1116019459      3.93e-03  
 Alpha HF Exchange    Energy =  -7.36965932954385
 Beta HF Exchange     Energy =  -7.14708144007461
 DFT Correlation      Energy =  -2.76099186887623
 DFT Exchange         Energy = -57.59801326917105
 One-Electron (alpha) Energy = -988.96732390803129
 One-Electron (beta)  Energy = -956.34665448252304
 Total Coulomb        Energy = 721.71081990980349
    4   -1038.2272181802      6.49e-04  
 Alpha HF Exchange    Energy =  -7.37670939265590
 Beta HF Exchange     Energy =  -7.15544255867175
 DFT Correlation      Energy =  -2.76224669649233
 DFT Exchange         Energy = -57.65276916466885
 One-Electron (alpha) Energy = -989.49011425102037
 One-Electron (beta)  Energy = -956.94524835746665
 Total Coulomb        Energy = 722.90084338440897
    5   -1038.2300008284      3.60e-04  
 Alpha HF Exchange    Energy =  -7.37635105909126
 Beta HF Exchange     Energy =  -7.15392533026865
 DFT Correlation      Energy =  -2.76188789169207
 DFT Exchange         Energy = -57.64600619332558
 One-Electron (alpha) Energy = -989.41181361359872
 One-Electron (beta)  Energy = -956.81798905760115
 Total Coulomb        Energy = 722.68519974187200
    6   -1038.2310871955      8.05e-05  
 Alpha HF Exchange    Energy =  -7.37589090676624
 Beta HF Exchange     Energy =  -7.15360796843077
 DFT Correlation      Energy =  -2.76162877822179
 DFT Exchange         Energy = -57.64206084619350
 One-Electron (alpha) Energy = -989.35843020868469
 One-Electron (beta)  Energy = -956.78034204408402
 Total Coulomb        Energy = 722.58912678666923
    7   -1038.2311477575      2.66e-05  
 Alpha HF Exchange    Energy =  -7.37617475522287
 Beta HF Exchange     Energy =  -7.15384241261601
 DFT Correlation      Energy =  -2.76163966854829
 DFT Exchange         Energy = -57.64390264170363
 One-Electron (alpha) Energy = -989.37522599102738
 One-Electron (beta)  Energy = -956.79830912880254
 Total Coulomb        Energy = 722.62625185915090
    8   -1038.2311565306      8.01e-06  
 Alpha HF Exchange    Energy =  -7.37615290712686
 Beta HF Exchange     Energy =  -7.15381554765958
 DFT Correlation      Energy =  -2.76160953579923
 DFT Exchange         Energy = -57.64363206931100
 One-Electron (alpha) Energy = -989.36953818346331
 One-Electron (beta)  Energy = -956.79475327015291
 Total Coulomb        Energy = 722.61665805238465
    9   -1038.2311572529      4.75e-06  
 Alpha HF Exchange    Energy =  -7.37615215904143
 Beta HF Exchange     Energy =  -7.15382425836156
 DFT Correlation      Energy =  -2.76161051004398
 DFT Exchange         Energy = -57.64366779380137
 One-Electron (alpha) Energy = -989.36993472605161
 One-Electron (beta)  Energy = -956.79566656338829
 Total Coulomb        Energy = 722.61801230415290
   10   -1038.2311574983      1.76e-06  
 Alpha HF Exchange    Energy =  -7.37615915270566
 Beta HF Exchange     Energy =  -7.15382373259258
 DFT Correlation      Energy =  -2.76160958094465
 DFT Exchange         Energy = -57.64369300892726
 One-Electron (alpha) Energy = -989.37007192015005
 One-Electron (beta)  Energy = -956.79581609684158
 Total Coulomb        Energy = 722.61832970666558
   11   -1038.2311575773      7.26e-07  Convergence criterion met
 ---------------------------------------
 SCF time:   CPU 27.70s  wall 2.00s 
<S^2> =          2.010116289
 Alpha HF Exchange    Energy =  -7.37615915270566
 Beta HF Exchange     Energy =  -7.15382373259258
 DFT Correlation      Energy =  -2.76160958094465
 DFT Exchange         Energy = -57.64369300892726
 One-Electron (alpha) Energy = -989.37007192015005
 One-Electron (beta)  Energy = -956.79581609684158
 Total Coulomb        Energy = 722.61832970666558
 Nuclear repulsion Energy = 260.25168620821648
 SCF   energy in the final basis set =    -1038.2311575773
 Total energy in the final basis set =    -1038.2311575773
 
 --------------------------------------------------------------
 
                    Orbital Energies (a.u.)
 --------------------------------------------------------------
 
 Alpha MOs
 -- Occupied --
*******-101.528 -10.279 -10.239 -10.215  -9.476  -9.441  -7.239
 -7.235  -7.229  -7.212  -7.194  -7.194  -0.874  -0.798  -0.775
 -0.726  -0.608  -0.507  -0.469  -0.461  -0.409  -0.403  -0.392
 -0.371  -0.331  -0.296  -0.292  -0.288  -0.255
 -- Virtual --
 -0.023   0.084   0.110   0.115   0.145   0.156   0.161   0.216
  0.258   0.348   0.385   0.417   0.425   0.445   0.461   0.488
  0.498   0.516   0.529   0.532   0.581   0.600   0.615   0.660
  0.700   0.761   0.789   0.827   0.834   0.841   0.851   0.868
  0.871   0.876   0.889   0.895   0.901   0.914   0.935   0.966
  1.014   1.066   1.129   1.188   1.304   1.400   1.409   1.533
  1.658   1.738   1.807   1.856   1.894   1.949   1.999   2.019
  2.055   2.081   2.100   2.245   2.274   2.327   2.382   2.468
  2.536   2.558   2.619   2.678   2.739   2.801   2.849   2.905
  3.162   3.259   3.377   3.390   3.435   3.506   4.183   4.234
  4.282   4.349   4.563
 
 Beta MOs
 -- Occupied --
*******-101.523 -10.280 -10.227 -10.214  -9.472  -9.436  -7.233
 -7.227  -7.226  -7.195  -7.191  -7.191  -0.859  -0.777  -0.736
 -0.709  -0.599  -0.502  -0.462  -0.454  -0.403  -0.396  -0.374
 -0.327  -0.321  -0.283  -0.279
 -- Virtual --
 -0.174  -0.124   0.001   0.087   0.114   0.122   0.145   0.158
  0.166   0.220   0.264   0.358   0.400   0.427   0.433   0.451
  0.466   0.495   0.514   0.532   0.540   0.574   0.598   0.615
  0.627   0.667   0.711   0.773   0.797   0.834   0.847   0.858
  0.862   0.885   0.895   0.905   0.909   0.913   0.916   0.922
  0.951   0.979   1.044   1.090   1.141   1.193   1.323   1.404
  1.439   1.540   1.665   1.739   1.817   1.863   1.908   1.971
  2.005   2.020   2.058   2.086   2.109   2.252   2.275   2.330
  2.394   2.483   2.544   2.572   2.621   2.681   2.741   2.802
  2.849   2.907   3.163   3.263   3.381   3.391   3.436   3.511
  4.199   4.251   4.294   4.360   4.566
 --------------------------------------------------------------
 
          Ground-State Mulliken Net Atomic Charges

     Atom                 Charge (a.u.)    Spin (a.u.)
  --------------------------------------------------------
      1 Cl                   -0.047637       0.445270
      2 Cl                   -0.212422       0.768235
      3 C                    -0.168919      -0.065192
      4 C                    -0.147852       0.915704
      5 C                    -0.313286       0.005171
      6 H                     0.192086       0.009636
      7 H                     0.150360      -0.040073
      8 H                     0.132063      -0.039817
      9 H                     0.134650      -0.000889
     10 H                     0.145763       0.001839
     11 H                     0.135194       0.000115
  --------------------------------------------------------
  Sum of atomic charges =     0.000000
  Sum of spin   charges =     2.000000

 -----------------------------------------------------------------
                    Cartesian Multipole Moments
 -----------------------------------------------------------------
    Charge (ESU x 10^10)
                -0.0000
    Dipole Moment (Debye)
         X       0.2477      Y      -3.5173      Z      -3.3075
       Tot       4.8344
    Quadrupole Moments (Debye-Ang)
        XX     -45.5077     XY       1.6087     YY     -47.9267
        XZ       1.4772     YZ      -4.8434     ZZ     -47.5042
    Octopole Moments (Debye-Ang^2)
       XXX      30.4555    XXY     -23.4044    XYY      13.3844
       YYY     -80.6918    XXZ     -28.1312    XYZ       4.9062
       YYZ     -34.9590    XZZ      15.3335    YZZ     -28.8048
       ZZZ     -91.0323
    Hexadecapole Moments (Debye-Ang^3)
      XXXX    -247.6440   XXXY      94.2395   XXYY    -146.8542
      XYYY     104.2092   YYYY    -670.8235   XXXZ      57.9673
      XXYZ     -59.3058   XYYZ      26.3540   YYYZ    -201.3649
      XXZZ    -127.6691   XYZZ      36.8483   YYZZ    -205.1250
      XZZZ      65.5467   YZZZ    -202.6103   ZZZZ    -529.0839
 -----------------------------------------------------------------
 Calculating analytic gradient of the SCF energy
 Gradient of SCF Energy
            1           2           3           4           5           6
    1  -0.0001407   0.0001268   0.0003402  -0.0013938  -0.0004202   0.0013594
    2  -0.0002187  -0.0000862   0.0011792  -0.0000020  -0.0001918  -0.0004931
    3  -0.0016689   0.0002614  -0.0022392   0.0054786   0.0015452  -0.0033295
            7           8           9          10          11
    1   0.0000230   0.0000307   0.0000186   0.0000196   0.0000363
    2  -0.0000587  -0.0001427   0.0000449  -0.0000199  -0.0000110
    3  -0.0001006   0.0000431   0.0000228   0.0000011  -0.0000139
 Max gradient component =       5.479E-03
 RMS gradient           =       1.317E-03
 Gradient time:  CPU 9.06 s  wall 0.76 s
 Geometry Optimization Parameters
   NAtoms,    NIC,     NZ,  NCons,   NDum,   NFix, NCnnct, MaxDiis
       11      74       0       1       0       0       0       0

 Cartesian Hessian Update
 Hessian Updated using BFGS Update


** CONSTRAINED OPTIMIZATION IN DELOCALIZED INTERNAL COORDINATES **
   Searching for a Minimum

   Optimization Cycle:   3

                       Coordinates (Angstroms)
     ATOM                X               Y               Z
      1  Cl        0.7886862803    0.6626519302    1.0212259894
      2  Cl       -1.3144109312    2.2281022606    1.8956302653
      3  C        -0.3725302073   -0.4499137116   -0.1893379013
      4  C        -0.2420117019    0.1631201074   -1.4801380838
      5  C         0.1016548793   -1.8746084999   -0.0036999586
      6  H        -1.3294998493   -0.2418182122    0.2783608943
      7  H        -0.8059005638    1.0568188589   -1.7205260756
      8  H         0.5276519599   -0.1635129982   -2.1727546096
      9  H         1.1216937846   -2.0061040734   -0.3746664899
     10  H         0.0637807258   -2.1716269411    1.0456304493
     11  H        -0.5588163763   -2.5377097207   -0.5749204795
   Point Group: c1    Number of degrees of freedom:    27


   Energy is  -1038.231157577

              Constraints and their Current Values
                                        Value     Constraint
   Distance(Angs):        2   4             4.100000     4.100000
 Hessian Updated using BFGS Update

 24 Hessian modes will be used to form the next step
  Hessian Eigenvalues:
     0.032902    0.044985    0.045002    0.045443    0.052444    0.065670
     0.071556    0.082378    0.085091    0.105699    0.119477    0.142737
     0.152112    0.159965    0.160000    0.163582    0.310051    0.340790
     0.344282    0.346074    0.348118    0.354037    0.355420    0.404661

 Minimum Search - Taking Simple RFO Step
 Searching for Lamda that Minimizes Along All modes
 Value Taken    Lamda =  -0.00028570
 Step Taken.  Stepsize is  0.064672

                             Maximum     Tolerance    Cnvgd?
         Gradient           0.003196      0.000300      NO
         Displacement       0.023950      0.001200      NO
         Energy change     -0.000329      0.000001      NO


 New Cartesian Coordinates Obtained by Inverse Iteration

 Displacement from previous Coordinates is:  0.083278
 ----------------------------------------------------------------
             Standard Nuclear Orientation (Angstroms)
    I     Atom           X                Y                Z
 ----------------------------------------------------------------
    1      Cl      0.7864006636     0.6616470132     1.0408918461
    2      Cl     -1.3185777606     2.2346749310     1.8849408070
    3      C      -0.3748765294    -0.4473043510    -0.1797854675
    4      C      -0.2412659092     0.1583886460    -1.4823188787
    5      C       0.1024662923    -1.8721640451    -0.0089650433
    6      H      -1.3303325811    -0.2381685496     0.3005890193
    7      H      -0.8016290138     1.0529941757    -1.7281172492
    8      H       0.5276205565    -0.1757454182    -2.1718140885
    9      H       1.1201657762    -1.9996326791    -0.3874888605
   10      H       0.0715799240    -2.1782239144     1.0381076764
   11      H      -0.5612534185    -2.5310668086    -0.5812357611
 ----------------------------------------------------------------
 Nuclear Repulsion Energy =   260.0297258782 hartrees
 There are       30 alpha and       28 beta electrons

                       Distance Matrix (Angstroms)
             Cl(  1)   Cl(  2)   C (  3)   C (  4)   C (  5)   H (  6)
   Cl(  2)  2.760031
   C (  3)  2.017025  3.513784
   C (  4)  2.770552  4.100000  1.442674
   C (  5)  2.826688  4.740503  1.512369  2.532206
   H (  6)  2.416252  2.936880  1.089676  2.126519  2.195149
   H (  7)  3.215961  3.836378  2.197805  1.083855  3.511328  2.462169
   H (  8)  3.330116  5.067133  2.203729  1.085466  2.781458  3.093326
   H (  9)  3.038763  5.388949  2.165183  2.776546  1.093271  3.095343
   H ( 10)  2.928454  4.703546  2.163023  3.451113  1.091324  2.504617
   H ( 11)  3.826342  5.419212  2.130250  2.854385  1.096435  2.574195
             H (  7)   H (  8)   H (  9)   H ( 10)
   H (  8)  1.863752
   H (  9)  3.848261  2.619445
   H ( 10)  4.342265  3.810707  1.778694
   H ( 11)  3.770757  3.043538  1.774015  1.774049
 
 Applying Cartesian multipole field
    Component          Value
    ---------          -----
     (2,0,0)        1.00000E-11
     (0,2,0)        2.00000E-11
     (0,0,2)       -3.00000E-11
 Nucleus-field energy     =     0.0000000001 hartrees
 Requested basis set is 6-31G(d,p)
 There are 40 shells and 113 basis functions
 A cutoff of  1.0D-14 yielded    762 shell pairs
 There are      6236 function pairs
 Smallest overlap matrix eigenvalue = 5.73E-03
 Guess from superposition of atomic densities
 Warning:  Energy on first SCF cycle will be non-variational
 SAD guess density has 58.000000 electrons

 -----------------------------------------------------------------------
  General SCF calculation program by
  Eric Jon Sundstrom, Paul Horn, Yuezhi Mao, Dmitri Zuev, Alec White,
  David Stuck, Shaama M.S., Shane Yost, Joonho Lee, David Small,
  Daniel Levine, Susi Lehtola, Hugh Burton, Evgeny Epifanovsky
 -----------------------------------------------------------------------
 Exchange:     0.2000 Hartree-Fock + 0.0800 Slater + 0.7200 B88
 Correlation:  0.1900 VWN1RPA + 0.8100 LYP
 Using SG-1 standard quadrature grid
 using 12 threads for integral computing
 -------------------------------------------------------
 OpenMP Integral computing Module                
 Release: version 1.0, May 2013, Q-Chem Inc. Pittsburgh 
 -------------------------------------------------------
 -------------------------------------------------------
 OpenMP BLAS3 based DFT computing Module                
 Release: version 1.0, May 2013, Q-Chem Inc. Pittsburgh 
 -------------------------------------------------------
 A unrestricted SCF calculation will be
 performed using DIIS
 SCF converges when DIIS error is below 1.0e-06
 Alpha HF Exchange    Energy =  -7.26091987354218
 Beta HF Exchange     Energy =  -7.26091987354218
 DFT Correlation      Energy =  -2.75604168827476
 DFT Exchange         Energy = -57.30838395374060
 One-Electron (alpha) Energy = -971.16020117422613
 One-Electron (beta)  Energy = -971.16020117422613
 Total Coulomb        Energy = 718.34116063851593
 ---------------------------------------
  Cycle       Energy         DIIS error
 ---------------------------------------
    1   -1038.5357812207      2.58e-02  
 Alpha HF Exchange    Energy =  -7.39549975053430
 Beta HF Exchange     Energy =  -7.17170373567651
 DFT Correlation      Energy =  -2.77352141839680
 DFT Exchange         Energy = -57.82598699860557
 One-Electron (alpha) Energy = -990.36160867853960
 One-Electron (beta)  Energy = -957.61627098440329
 Total Coulomb        Energy = 724.96487288106732
    2   -1038.1499928068      3.10e-03  
 Alpha HF Exchange    Energy =  -7.35348708502984
 Beta HF Exchange     Energy =  -7.14494110539974
 DFT Correlation      Energy =  -2.75297671246735
 DFT Exchange         Energy = -57.50187351633333
 One-Electron (alpha) Energy = -988.27466734401696
 One-Electron (beta)  Energy = -956.26554814889369
 Total Coulomb        Energy = 721.15039647997412
    3   -1038.1133715539      3.90e-03  
 Alpha HF Exchange    Energy =  -7.36895716910998
 Beta HF Exchange     Energy =  -7.14664122503061
 DFT Correlation      Energy =  -2.76064344359296
 DFT Exchange         Energy = -57.59394334883923
 One-Electron (alpha) Energy = -988.72786249437888
 One-Electron (beta)  Energy = -956.15342256390522
 Total Coulomb        Energy = 721.49440959483456
    4   -1038.2273347717      6.52e-04  
 Alpha HF Exchange    Energy =  -7.37595144917485
 Beta HF Exchange     Energy =  -7.15495671750597
 DFT Correlation      Energy =  -2.76187995358003
 DFT Exchange         Energy = -57.64827904849814
 One-Electron (alpha) Energy = -989.24868815662035
 One-Electron (beta)  Energy = -956.74963805315747
 Total Coulomb        Energy = 722.67950928179073
    5   -1038.2301582184      3.61e-04  
 Alpha HF Exchange    Energy =  -7.37563015050180
 Beta HF Exchange     Energy =  -7.15346864253738
 DFT Correlation      Energy =  -2.76153476951313
 DFT Exchange         Energy = -57.64180240739712
 One-Electron (alpha) Energy = -989.17332676808132
 One-Electron (beta)  Energy = -956.62509137502934
 Total Coulomb        Energy = 722.46988129926672
    6   -1038.2312469355      8.10e-05  
 Alpha HF Exchange    Energy =  -7.37516278766866
 Beta HF Exchange     Energy =  -7.15313396920467
 DFT Correlation      Energy =  -2.76126752636500
 DFT Exchange         Energy = -57.63774339855117
 One-Electron (alpha) Energy = -989.11851834631193
 One-Electron (beta)  Energy = -956.58592721485843
 Total Coulomb        Energy = 722.37071943278602
    7   -1038.2313079319      2.68e-05  
 Alpha HF Exchange    Energy =  -7.37544452746467
 Beta HF Exchange     Energy =  -7.15336943091009
 DFT Correlation      Energy =  -2.76128107685222
 DFT Exchange         Energy = -57.63959179881223
 One-Electron (alpha) Energy = -989.13575025393925
 One-Electron (beta)  Energy = -956.60411132212687
 Total Coulomb        Energy = 722.40850589990009
    8   -1038.2313166319      8.93e-06  
 Alpha HF Exchange    Energy =  -7.37542905550158
 Beta HF Exchange     Energy =  -7.15334274838416
 DFT Correlation      Energy =  -2.76125101145994
 DFT Exchange         Energy = -57.63934460465884
 One-Electron (alpha) Energy = -989.13026793246638
 One-Electron (beta)  Energy = -956.60059177858318
 Total Coulomb        Energy = 722.39918383530517
    9   -1038.2313174174      5.15e-06  
 Alpha HF Exchange    Energy =  -7.37542480547134
 Beta HF Exchange     Energy =  -7.15334944286475
 DFT Correlation      Energy =  -2.76125079559852
 DFT Exchange         Energy = -57.63935670659832
 One-Electron (alpha) Energy = -989.13034617556718
 One-Electron (beta)  Energy = -956.60126971030343
 Total Coulomb        Energy = 722.39995406016953
   10   -1038.2313176979      1.68e-06  
 Alpha HF Exchange    Energy =  -7.37543247539831
 Beta HF Exchange     Energy =  -7.15334944158514
 DFT Correlation      Energy =  -2.76125010218208
 DFT Exchange         Energy = -57.63938733435552
 One-Electron (alpha) Energy = -989.13057204201516
 One-Electron (beta)  Energy = -956.60148274030689
 Total Coulomb        Energy = 722.40043048236532
   11   -1038.2313177752      7.17e-07  Convergence criterion met
 ---------------------------------------
 SCF time:   CPU 27.21s  wall 2.00s 
<S^2> =          2.010099656
 Alpha HF Exchange    Energy =  -7.37543247539831
 Beta HF Exchange     Energy =  -7.15334944158514
 DFT Correlation      Energy =  -2.76125010218208
 DFT Exchange         Energy = -57.63938733435552
 One-Electron (alpha) Energy = -989.13057204201516
 One-Electron (beta)  Energy = -956.60148274030689
 Total Coulomb        Energy = 722.40043048236532
 Nuclear repulsion Energy = 260.02972587831624
 SCF   energy in the final basis set =    -1038.2313177752
 Total energy in the final basis set =    -1038.2313177752
 
 --------------------------------------------------------------
 
                    Orbital Energies (a.u.)
 --------------------------------------------------------------
 
 Alpha MOs
 -- Occupied --
*******-101.528 -10.281 -10.240 -10.215  -9.476  -9.441  -7.239
 -7.235  -7.229  -7.212  -7.194  -7.194  -0.872  -0.798  -0.775
 -0.725  -0.608  -0.507  -0.469  -0.461  -0.408  -0.403  -0.391
 -0.371  -0.330  -0.296  -0.292  -0.288  -0.256
 -- Virtual --
 -0.025   0.084   0.109   0.114   0.145   0.157   0.161   0.215
  0.255   0.348   0.385   0.416   0.426   0.444   0.463   0.489
  0.498   0.516   0.528   0.532   0.581   0.600   0.613   0.659
  0.700   0.758   0.789   0.826   0.834   0.841   0.851   0.869
  0.871   0.877   0.889   0.895   0.902   0.914   0.936   0.966
  1.013   1.063   1.127   1.187   1.304   1.396   1.409   1.534
  1.656   1.739   1.807   1.850   1.893   1.947   1.996   2.018
  2.054   2.080   2.096   2.242   2.277   2.327   2.381   2.466
  2.535   2.554   2.618   2.674   2.732   2.800   2.847   2.901
  3.162   3.256   3.371   3.390   3.432   3.503   4.179   4.235
  4.281   4.348   4.562
 
 Beta MOs
 -- Occupied --
*******-101.522 -10.282 -10.228 -10.214  -9.472  -9.436  -7.233
 -7.227  -7.226  -7.194  -7.191  -7.190  -0.857  -0.777  -0.735
 -0.708  -0.599  -0.501  -0.462  -0.453  -0.402  -0.397  -0.373
 -0.327  -0.321  -0.283  -0.279
 -- Virtual --
 -0.173  -0.124  -0.000   0.087   0.113   0.121   0.146   0.158
  0.166   0.219   0.261   0.358   0.401   0.426   0.433   0.451
  0.468   0.496   0.514   0.532   0.540   0.574   0.598   0.615
  0.625   0.666   0.711   0.770   0.797   0.834   0.847   0.858
  0.861   0.886   0.894   0.904   0.909   0.914   0.916   0.922
  0.952   0.979   1.043   1.088   1.140   1.193   1.322   1.400
  1.439   1.541   1.663   1.740   1.817   1.857   1.906   1.970
  2.002   2.019   2.057   2.083   2.105   2.249   2.277   2.330
  2.394   2.479   2.542   2.570   2.620   2.677   2.734   2.802
  2.847   2.904   3.162   3.260   3.376   3.391   3.433   3.508
  4.196   4.251   4.292   4.359   4.565
 --------------------------------------------------------------
 
          Ground-State Mulliken Net Atomic Charges

     Atom                 Charge (a.u.)    Spin (a.u.)
  --------------------------------------------------------
      1 Cl                   -0.048868       0.442974
      2 Cl                   -0.213605       0.766631
      3 C                    -0.167415      -0.065606
      4 C                    -0.148138       0.920200
      5 C                    -0.313598       0.005111
      6 H                     0.192875       0.009617
      7 H                     0.150303      -0.040139
      8 H                     0.132745      -0.039997
      9 H                     0.134819      -0.000905
     10 H                     0.145266       0.001917
     11 H                     0.135615       0.000197
  --------------------------------------------------------
  Sum of atomic charges =     0.000000
  Sum of spin   charges =     2.000000

 -----------------------------------------------------------------
                    Cartesian Multipole Moments
 -----------------------------------------------------------------
    Charge (ESU x 10^10)
                -0.0000
    Dipole Moment (Debye)
         X       0.2591      Y      -3.5390      Z      -3.3229
       Tot       4.8615
    Quadrupole Moments (Debye-Ang)
        XX     -45.5419     XY       1.6377     YY     -48.0018
        XZ       1.4631     YZ      -4.8431     ZZ     -47.4760
    Octopole Moments (Debye-Ang^2)
       XXX      30.7380    XXY     -23.5370    XYY      13.5521
       YYY     -81.0314    XXZ     -28.2747    XYZ       4.9851
       YYZ     -35.1763    XZZ      15.4827    YZZ     -28.9207
       ZZZ     -91.4672
    Hexadecapole Moments (Debye-Ang^3)
      XXXX    -248.3563   XXXY      95.0578   XXYY    -147.3238
      XYYY     105.1325   YYYY    -672.9299   XXXZ      57.3987
      XXYZ     -59.5620   XYYZ      26.3456   YYYZ    -201.9529
      XXZZ    -127.9630   XYZZ      37.3416   YYZZ    -205.6082
      XZZZ      65.2069   YZZZ    -202.9723   ZZZZ    -529.0700
 -----------------------------------------------------------------
 Calculating analytic gradient of the SCF energy
 Gradient of SCF Energy
            1           2           3           4           5           6
    1   0.0001772   0.0001893   0.0003702   0.0003002  -0.0000629  -0.0009326
    2   0.0004165  -0.0001687  -0.0006487  -0.0000076   0.0001046   0.0000305
    3  -0.0002509   0.0002193   0.0009201  -0.0002815   0.0000551  -0.0005468
            7           8           9          10          11
    1  -0.0000202  -0.0000238   0.0000158  -0.0000376   0.0000244
    2  -0.0000360   0.0001623  -0.0000296   0.0001653   0.0000113
    3  -0.0000166  -0.0001605   0.0000283   0.0000242   0.0000093
 Max gradient component =       9.326E-04
 RMS gradient           =       3.128E-04
 Gradient time:  CPU 8.98 s  wall 0.76 s
 Geometry Optimization Parameters
   NAtoms,    NIC,     NZ,  NCons,   NDum,   NFix, NCnnct, MaxDiis
       11      74       0       1       0       0       0       0

 Cartesian Hessian Update
 Hessian Updated using BFGS Update


** CONSTRAINED OPTIMIZATION IN DELOCALIZED INTERNAL COORDINATES **
   Searching for a Minimum

   Optimization Cycle:   4

                       Coordinates (Angstroms)
     ATOM                X               Y               Z
      1  Cl        0.7864006636    0.6616470132    1.0408918461
      2  Cl       -1.3185777606    2.2346749310    1.8849408070
      3  C        -0.3748765294   -0.4473043510   -0.1797854675
      4  C        -0.2412659092    0.1583886460   -1.4823188787
      5  C         0.1024662923   -1.8721640451   -0.0089650433
      6  H        -1.3303325811   -0.2381685496    0.3005890193
      7  H        -0.8016290138    1.0529941757   -1.7281172492
      8  H         0.5276205565   -0.1757454182   -2.1718140885
      9  H         1.1201657762   -1.9996326791   -0.3874888605
     10  H         0.0715799240   -2.1782239144    1.0381076764
     11  H        -0.5612534185   -2.5310668086   -0.5812357611
   Point Group: c1    Number of degrees of freedom:    27


   Energy is  -1038.231317775

              Constraints and their Current Values
                                        Value     Constraint
   Distance(Angs):        2   4             4.100000     4.100000
 Hessian Updated using BFGS Update

 25 Hessian modes will be used to form the next step
  Hessian Eigenvalues:
     0.033270    0.040043    0.045002    0.045095    0.045597    0.066153
     0.071187    0.082376    0.085115    0.107367    0.119005    0.143259
     0.152510    0.159988    0.160000    0.160142    0.165366    0.310553
     0.340797    0.344346    0.346452    0.350338    0.353955    0.355406
     0.440824

 Minimum Search - Taking Simple RFO Step
 Searching for Lamda that Minimizes Along All modes
 Value Taken    Lamda =  -0.00002048
 Step Taken.  Stepsize is  0.020948

                             Maximum     Tolerance    Cnvgd?
         Gradient           0.000647      0.000300      NO
         Displacement       0.008398      0.001200      NO
         Energy change     -0.000160      0.000001      NO


 New Cartesian Coordinates Obtained by Inverse Iteration

 Displacement from previous Coordinates is:  0.027900
 ----------------------------------------------------------------
             Standard Nuclear Orientation (Angstroms)
    I     Atom           X                Y                Z
 ----------------------------------------------------------------
    1      Cl      0.7848990891     0.6601360498     1.0465470238
    2      Cl     -1.3212601433     2.2399473231     1.8810132642
    3      C      -0.3748557400    -0.4464157908    -0.1778122411
    4      C      -0.2417914150     0.1575320891    -1.4817679377
    5      C       0.1029112879    -1.8720069918    -0.0106972817
    6      H      -1.3281326538    -0.2368908273     0.3063672412
    7      H      -0.8006399672     1.0526695691    -1.7291305192
    8      H       0.5266954330    -0.1799950008    -2.1699858629
    9      H       1.1197809267    -1.9981637066    -0.3918337333
   10      H       0.0745886695    -2.1818456213     1.0353985207
   11      H      -0.5618974869    -2.5295680927    -0.5832944740
 ----------------------------------------------------------------
 Nuclear Repulsion Energy =   259.9358912377 hartrees
 There are       30 alpha and       28 beta electrons

                       Distance Matrix (Angstroms)
             Cl(  1)   Cl(  2)   C (  3)   C (  4)   C (  5)   H (  6)
   Cl(  2)  2.761891
   C (  3)  2.017063  3.514398
   C (  4)  2.774722  4.100000  1.443177
   C (  5)  2.827476  4.744998  1.512779  2.530197
   H (  6)  2.411934  2.935010  1.089526  2.129116  2.195910
   H (  7)  3.220621  3.835859  2.198895  1.083869  3.510435  2.466671
   H (  8)  3.334452  5.067707  2.202846  1.085422  2.775793  3.094503
   H (  9)  3.040994  5.393153  2.165102  2.772879  1.093254  3.095456
   H ( 10)  2.929424  4.713355  2.164624  3.450929  1.091384  2.506384
   H ( 11)  3.826808  5.421967  2.130475  2.851356  1.096460  2.575846
             H (  7)   H (  8)   H (  9)   H ( 10)
   H (  8)  1.864305
   H (  9)  3.844992  2.611381
   H ( 10)  4.344046  3.806087  1.778527
   H ( 11)  3.768603  3.036959  1.774004  1.773751
 
 Applying Cartesian multipole field
    Component          Value
    ---------          -----
     (2,0,0)        1.00000E-11
     (0,2,0)        2.00000E-11
     (0,0,2)       -3.00000E-11
 Nucleus-field energy     =     0.0000000001 hartrees
 Requested basis set is 6-31G(d,p)
 There are 40 shells and 113 basis functions
 A cutoff of  1.0D-14 yielded    762 shell pairs
 There are      6236 function pairs
 Smallest overlap matrix eigenvalue = 5.74E-03
 Guess from superposition of atomic densities
 Warning:  Energy on first SCF cycle will be non-variational
 SAD guess density has 58.000000 electrons

 -----------------------------------------------------------------------
  General SCF calculation program by
  Eric Jon Sundstrom, Paul Horn, Yuezhi Mao, Dmitri Zuev, Alec White,
  David Stuck, Shaama M.S., Shane Yost, Joonho Lee, David Small,
  Daniel Levine, Susi Lehtola, Hugh Burton, Evgeny Epifanovsky
 -----------------------------------------------------------------------
 Exchange:     0.2000 Hartree-Fock + 0.0800 Slater + 0.7200 B88
 Correlation:  0.1900 VWN1RPA + 0.8100 LYP
 Using SG-1 standard quadrature grid
 using 12 threads for integral computing
 -------------------------------------------------------
 OpenMP Integral computing Module                
 Release: version 1.0, May 2013, Q-Chem Inc. Pittsburgh 
 -------------------------------------------------------
 -------------------------------------------------------
 OpenMP BLAS3 based DFT computing Module                
 Release: version 1.0, May 2013, Q-Chem Inc. Pittsburgh 
 -------------------------------------------------------
 A unrestricted SCF calculation will be
 performed using DIIS
 SCF converges when DIIS error is below 1.0e-06
 Alpha HF Exchange    Energy =  -7.26079518264915
 Beta HF Exchange     Energy =  -7.26079518264915
 DFT Correlation      Energy =  -2.75600254318011
 DFT Exchange         Energy = -57.30813715279400
 One-Electron (alpha) Energy = -971.06678513371958
 One-Electron (beta)  Energy = -971.06678513371958
 Total Coulomb        Energy = 718.24881083491221
 ---------------------------------------
  Cycle       Energy         DIIS error
 ---------------------------------------
    1   -1038.5345982559      2.58e-02  
 Alpha HF Exchange    Energy =  -7.39541206015277
 Beta HF Exchange     Energy =  -7.17167291537905
 DFT Correlation      Energy =  -2.77346563121771
 DFT Exchange         Energy = -57.82555223826299
 One-Electron (alpha) Energy = -990.26168332899636
 One-Electron (beta)  Energy = -957.52876972162994
 Total Coulomb        Energy = 724.87060406479020
    2   -1038.1500605930      3.09e-03  
 Alpha HF Exchange    Energy =  -7.35340863199255
 Beta HF Exchange     Energy =  -7.14492412042882
 DFT Correlation      Energy =  -2.75292845486824
 DFT Exchange         Energy = -57.50151257540476
 One-Electron (alpha) Energy = -988.17395262275204
 One-Electron (beta)  Energy = -956.17741812745589
 Total Coulomb        Energy = 721.05481166330128
    3   -1038.1134416317      3.90e-03  
 Alpha HF Exchange    Energy =  -7.36888023402091
 Beta HF Exchange     Energy =  -7.14661790375403
 DFT Correlation      Energy =  -2.76059128893597
 DFT Exchange         Energy = -57.59357781080260
 One-Electron (alpha) Energy = -988.62766806776506
 One-Electron (beta)  Energy = -956.06607907944885
 Total Coulomb        Energy = 721.40017431364959
    4   -1038.2273488332      6.52e-04  
 Alpha HF Exchange    Energy =  -7.37587442637145
 Beta HF Exchange     Energy =  -7.15493853090546
 DFT Correlation      Energy =  -2.76182691210943
 DFT Exchange         Energy = -57.64791961049549
 One-Electron (alpha) Energy = -989.14845574919605
 One-Electron (beta)  Energy = -956.66220569255017
 Total Coulomb        Energy = 722.58516040054371
    5   -1038.2301692832      3.61e-04  
 Alpha HF Exchange    Energy =  -7.37555474893077
 Beta HF Exchange     Energy =  -7.15344780560361
 DFT Correlation      Energy =  -2.76148286000909
 DFT Exchange         Energy = -57.64144871529076
 One-Electron (alpha) Energy = -989.07323453135143
 One-Electron (beta)  Energy = -956.53765800403312
 Total Coulomb        Energy = 722.37567357078865
    6   -1038.2312618566      8.11e-05  
 Alpha HF Exchange    Energy =  -7.37508654487252
 Beta HF Exchange     Energy =  -7.15311228383129
 DFT Correlation      Energy =  -2.76121514646268
 DFT Exchange         Energy = -57.63738098199897
 One-Electron (alpha) Energy = -989.01832738176347
 One-Electron (beta)  Energy = -956.49838227072053
 Total Coulomb        Energy = 722.27629038453597
    7   -1038.2313229872      2.69e-05  
 Alpha HF Exchange    Energy =  -7.37536836354474
 Beta HF Exchange     Energy =  -7.15334771986029
 DFT Correlation      Energy =  -2.76122885864381
 DFT Exchange         Energy = -57.63923029027805
 One-Electron (alpha) Energy = -989.03559620439717
 One-Electron (beta)  Energy = -956.51655524567241
 Total Coulomb        Energy = 722.31410375588030
    8   -1038.2313316886      8.97e-06  
 Alpha HF Exchange    Energy =  -7.37535326452039
 Beta HF Exchange     Energy =  -7.15332106250406
 DFT Correlation      Energy =  -2.76119889380643
 DFT Exchange         Energy = -57.63898477561878
[...]

 Minimum Search - Taking Simple RFO Step
 Searching for Lamda that Minimizes Along All modes
 Value Taken    Lamda =  -0.00000149
 Step Taken.  Stepsize is  0.014614

                             Maximum     Tolerance    Cnvgd?
         Gradient           0.000121      0.000300     YES
         Displacement       0.007246      0.001200      NO
         Energy change     -0.000002      0.000001      NO


 New Cartesian Coordinates Obtained by Inverse Iteration

 Displacement from previous Coordinates is:  0.017240
 ----------------------------------------------------------------
             Standard Nuclear Orientation (Angstroms)
    I     Atom           X                Y                Z
 ----------------------------------------------------------------
    1      Cl      0.7693913679     0.6467451099     1.0667481405
    2      Cl     -1.3124484926     2.3002192996     1.8576486400
    3      C      -0.3780287322    -0.4556316747    -0.1747476438
    4      C      -0.2468666383     0.1591292616    -1.4725573771
    5      C       0.1086003685    -1.8795579237    -0.0179029026
    6      H      -1.3311024589    -0.2559841239     0.3124203265
    7      H      -0.8046886020     1.0571542533    -1.7114541639
    8      H       0.5184004529    -0.1756513345    -2.1656487742
    9      H       1.1277635860    -1.9955174187    -0.3962101598
   10      H       0.0786984309    -2.1987921839     1.0252949904
   11      H      -0.5494212821    -2.5367142651    -0.5987870759
 ----------------------------------------------------------------
 Nuclear Repulsion Energy =   259.3071591745 hartrees
 There are       30 alpha and       28 beta electrons

                       Distance Matrix (Angstroms)
             Cl(  1)   Cl(  2)   C (  3)   C (  4)   C (  5)   H (  6)
   Cl(  2)  2.773726
   C (  3)  2.018197  3.549435
   C (  4)  2.778241  4.100000  1.442028
   C (  5)  2.827600  4.796625  1.512936  2.529550
   H (  6)  2.407489  2.987014  1.088826  2.129327  2.194960
   H (  7)  3.219405  3.813335  2.198187  1.083829  3.510910  2.469314
   H (  8)  3.344805  5.066445  2.201286  1.085397  2.772011  3.093209
   H (  9)  3.041419  5.430273  2.165111  2.773199  1.093278  3.094213
   H ( 10)  2.928457  4.782176  2.165020  3.450370  1.091360  2.504043
   H ( 11)  3.827230  5.478340  2.130749  2.850015  1.096482  2.577412
             H (  7)   H (  8)   H (  9)   H ( 10)
   H (  8)  1.864582
   H (  9)  3.844872  2.610392
   H ( 10)  4.344117  3.803756  1.778352
   H ( 11)  3.770820  3.028187  1.773945  1.773801
 
 Applying Cartesian multipole field
    Component          Value
    ---------          -----
     (2,0,0)        1.00000E-11
     (0,2,0)        2.00000E-11
     (0,0,2)       -3.00000E-11
 Nucleus-field energy     =     0.0000000006 hartrees
 Requested basis set is 6-31G(d,p)
 There are 40 shells and 113 basis functions
 A cutoff of  1.0D-14 yielded    761 shell pairs
 There are      6224 function pairs
 Smallest overlap matrix eigenvalue = 5.74E-03
 Guess from superposition of atomic densities
 Warning:  Energy on first SCF cycle will be non-variational
 SAD guess density has 58.000000 electrons

 -----------------------------------------------------------------------
  General SCF calculation program by
  Eric Jon Sundstrom, Paul Horn, Yuezhi Mao, Dmitri Zuev, Alec White,
  David Stuck, Shaama M.S., Shane Yost, Joonho Lee, David Small,
  Daniel Levine, Susi Lehtola, Hugh Burton, Evgeny Epifanovsky
 -----------------------------------------------------------------------
 Exchange:     0.2000 Hartree-Fock + 0.0800 Slater + 0.7200 B88
 Correlation:  0.1900 VWN1RPA + 0.8100 LYP
 Using SG-1 standard quadrature grid
 using 12 threads for integral computing
 -------------------------------------------------------
 OpenMP Integral computing Module                
 Release: version 1.0, May 2013, Q-Chem Inc. Pittsburgh 
 -------------------------------------------------------
 -------------------------------------------------------
 OpenMP BLAS3 based DFT computing Module                
 Release: version 1.0, May 2013, Q-Chem Inc. Pittsburgh 
 -------------------------------------------------------
 A unrestricted SCF calculation will be
 performed using DIIS
 SCF converges when DIIS error is below 1.0e-06
 Alpha HF Exchange    Energy =  -7.26065931260815
 Beta HF Exchange     Energy =  -7.26065931260815
 DFT Correlation      Energy =  -2.75580587090864
 DFT Exchange         Energy = -57.30793458250875
 One-Electron (alpha) Energy = -970.43730074270002
 One-Electron (beta)  Energy = -970.43730074270002
 Total Coulomb        Energy = 717.61895176661676
 ---------------------------------------
  Cycle       Energy         DIIS error
 ---------------------------------------
    1   -1038.5335496223      2.58e-02  
 Alpha HF Exchange    Energy =  -7.39538805790328
 Beta HF Exchange     Energy =  -7.17157613891369
 DFT Correlation      Energy =  -2.77331316251586
 DFT Exchange         Energy = -57.82541430623105
 One-Electron (alpha) Energy = -989.62113434392722
 One-Electron (beta)  Energy = -956.91515496492639
 Total Coulomb        Energy = 724.24491253116651
    2   -1038.1499092682      3.09e-03  
 Alpha HF Exchange    Energy =  -7.35330559511406
 Beta HF Exchange     Energy =  -7.14494342582877
 DFT Correlation      Energy =  -2.75274493480525
 DFT Exchange         Energy = -57.50112603940548
 One-Electron (alpha) Energy = -987.52739561361284
 One-Electron (beta)  Energy = -955.56947930593242
 Total Coulomb        Energy = 720.42853147536471
    3   -1038.1133042642      3.90e-03  
 Alpha HF Exchange    Energy =  -7.36879015255341
 Beta HF Exchange     Energy =  -7.14654548781901
 DFT Correlation      Energy =  -2.76040884915879
 DFT Exchange         Energy = -57.59304260343086
 One-Electron (alpha) Energy = -987.98082842583028
 One-Electron (beta)  Energy = -955.45215731611847
 Total Coulomb        Energy = 720.76725890074192
    4   -1038.2273547591      6.53e-04  
 Alpha HF Exchange    Energy =  -7.37582210091246
 Beta HF Exchange     Energy =  -7.15494269694008
 DFT Correlation      Energy =  -2.76165157148605
 DFT Exchange         Energy = -57.64774994806061
 One-Electron (alpha) Energy = -988.50489112129424
 One-Electron (beta)  Energy = -956.05309127310966
 Total Coulomb        Energy = 721.96081707269855
    5   -1038.2301724640      3.64e-04  
 Alpha HF Exchange    Energy =  -7.37549542897272
 Beta HF Exchange     Energy =  -7.15342939572328
 DFT Correlation      Energy =  -2.76130718452240
 DFT Exchange         Energy = -57.64119129154285
 One-Electron (alpha) Energy = -988.42859804454395
 One-Electron (beta)  Energy = -955.92681266094939
 Total Coulomb        Energy = 721.74839071032636
    6   -1038.2312841208      8.16e-05  
 Alpha HF Exchange    Energy =  -7.37502546605057
 Beta HF Exchange     Energy =  -7.15309821562919
 DFT Correlation      Energy =  -2.76103861871257
 DFT Exchange         Energy = -57.63712309356454
 One-Electron (alpha) Energy = -988.37352571459905
 One-Electron (beta)  Energy = -955.88763602591848
 Total Coulomb        Energy = 721.64894202681069
    7   -1038.2313459326      2.71e-05  
 Alpha HF Exchange    Energy =  -7.37530839894237
 Beta HF Exchange     Energy =  -7.15333602665936
 DFT Correlation      Energy =  -2.76105207178485
 DFT Exchange         Energy = -57.63898293945810
 One-Electron (alpha) Energy = -988.39079844782964
 One-Electron (beta)  Energy = -955.90586461325086
 Total Coulomb        Energy = 721.68682855671636
    8   -1038.2313547661      8.92e-06  
 Alpha HF Exchange    Energy =  -7.37529320262301
 Beta HF Exchange     Energy =  -7.15330968915326
 DFT Correlation      Energy =  -2.76102215873962
 DFT Exchange         Energy = -57.63873812033192
 One-Electron (alpha) Energy = -988.38535461259062
 One-Electron (beta)  Energy = -955.90240180341584
 Total Coulomb        Energy = 721.67760485911595
    9   -1038.2313555526      5.20e-06  
 Alpha HF Exchange    Energy =  -7.37528892990289
 Beta HF Exchange     Energy =  -7.15331655911859
 DFT Correlation      Energy =  -2.76102192158869
 DFT Exchange         Energy = -57.63875057076076
 One-Electron (alpha) Energy = -988.38543287427922
 One-Electron (beta)  Energy = -955.90307795288174
 Total Coulomb        Energy = 721.67837379379364
   10   -1038.2313558396      1.69e-06  
 Alpha HF Exchange    Energy =  -7.37529663807283
 Beta HF Exchange     Energy =  -7.15331646069772
 DFT Correlation      Energy =  -2.76102120778567
 DFT Exchange         Energy = -57.63878110799898
 One-Electron (alpha) Energy = -988.38566083249384
 One-Electron (beta)  Energy = -955.90328592178332
 Total Coulomb        Energy = 721.67884707331655
   11   -1038.2313559204      7.38e-07  Convergence criterion met
 ---------------------------------------
 SCF time:   CPU 27.76s  wall 3.00s 
<S^2> =          2.010132706
 Alpha HF Exchange    Energy =  -7.37529663807283
 Beta HF Exchange     Energy =  -7.15331646069772
 DFT Correlation      Energy =  -2.76102120778567
 DFT Exchange         Energy = -57.63878110799898
 One-Electron (alpha) Energy = -988.38566083249384
 One-Electron (beta)  Energy = -955.90328592178332
 Total Coulomb        Energy = 721.67884707331655
 Nuclear repulsion Energy = 259.30715917508934
 SCF   energy in the final basis set =    -1038.2313559204
 Total energy in the final basis set =    -1038.2313559204
 
 --------------------------------------------------------------
 
                    Orbital Energies (a.u.)
 --------------------------------------------------------------
 
 Alpha MOs
 -- Occupied --
*******-101.529 -10.281 -10.241 -10.215  -9.475  -9.441  -7.239
 -7.234  -7.228  -7.212  -7.194  -7.194  -0.872  -0.798  -0.775
 -0.725  -0.609  -0.507  -0.469  -0.461  -0.408  -0.403  -0.391
 -0.371  -0.330  -0.296  -0.292  -0.289  -0.256
 -- Virtual --
 -0.024   0.084   0.109   0.114   0.145   0.157   0.160   0.215
  0.254   0.348   0.385   0.415   0.427   0.443   0.463   0.490
  0.497   0.518   0.529   0.532   0.580   0.602   0.612   0.659
  0.700   0.758   0.789   0.826   0.834   0.841   0.852   0.869
  0.871   0.876   0.889   0.895   0.902   0.914   0.931   0.966
  1.010   1.059   1.128   1.187   1.302   1.395   1.410   1.535
  1.656   1.739   1.807   1.850   1.894   1.946   1.994   2.018
  2.053   2.080   2.097   2.242   2.276   2.328   2.381   2.466
  2.535   2.554   2.618   2.674   2.732   2.800   2.846   2.902
  3.162   3.257   3.370   3.389   3.432   3.504   4.178   4.233
  4.280   4.347   4.562
 
 Beta MOs
 -- Occupied --
*******-101.523 -10.282 -10.229 -10.215  -9.471  -9.436  -7.232
 -7.227  -7.225  -7.195  -7.191  -7.191  -0.857  -0.777  -0.736
 -0.708  -0.599  -0.501  -0.462  -0.454  -0.402  -0.398  -0.373
 -0.326  -0.320  -0.283  -0.279
 -- Virtual --
 -0.174  -0.125   0.000   0.087   0.112   0.121   0.145   0.158
  0.165   0.219   0.260   0.357   0.400   0.425   0.434   0.449
  0.468   0.498   0.514   0.533   0.538   0.574   0.596   0.617
  0.624   0.666   0.710   0.770   0.796   0.834   0.846   0.859
  0.861   0.888   0.895   0.905   0.909   0.914   0.916   0.921
  0.947   0.979   1.040   1.084   1.140   1.192   1.321   1.399
  1.439   1.542   1.663   1.741   1.816   1.857   1.906   1.970
  2.001   2.019   2.056   2.084   2.106   2.249   2.277   2.331
  2.394   2.479   2.543   2.570   2.620   2.678   2.734   2.801
  2.847   2.904   3.162   3.261   3.375   3.390   3.432   3.509
  4.195   4.250   4.292   4.358   4.566
 --------------------------------------------------------------
 
          Ground-State Mulliken Net Atomic Charges

     Atom                 Charge (a.u.)    Spin (a.u.)
  --------------------------------------------------------
      1 Cl                   -0.051438       0.440588
      2 Cl                   -0.211711       0.769540
      3 C                    -0.167254      -0.065940
      4 C                    -0.147700       0.919412
      5 C                    -0.314223       0.005221
      6 H                     0.192835       0.009947
      7 H                     0.150908      -0.040091
      8 H                     0.132850      -0.039974
      9 H                     0.135133      -0.000933
     10 H                     0.144956       0.001831
     11 H                     0.135644       0.000398
  --------------------------------------------------------
  Sum of atomic charges =    -0.000000
  Sum of spin   charges =     2.000000

 -----------------------------------------------------------------
                    Cartesian Multipole Moments
 -----------------------------------------------------------------
    Charge (ESU x 10^10)
                 0.0000
    Dipole Moment (Debye)
         X       0.2391      Y      -3.5925      Z      -3.3089
       Tot       4.8900
    Quadrupole Moments (Debye-Ang)
        XX     -45.5406     XY       1.6479     YY     -48.1607
        XZ       1.3991     YZ      -4.8634     ZZ     -47.3909
    Octopole Moments (Debye-Ang^2)
       XXX      31.1771    XXY     -24.1076    XYY      13.6726
       YYY     -83.2678    XXZ     -28.2656    XYZ       4.9625
       YYZ     -35.3877    XZZ      15.5179    YZZ     -29.5000
       ZZZ     -91.1926
    Hexadecapole Moments (Debye-Ang^3)
      XXXX    -245.7061   XXXY      98.8762   XXYY    -150.4151
      XYYY     108.3951   YYYY    -696.8751   XXXZ      55.6131
      XXYZ     -60.6410   XYYZ      25.5546   YYYZ    -205.2511
      XXZZ    -126.7858   XYZZ      38.7516   YYZZ    -208.8095
      XZZZ      63.2322   YZZZ    -205.5446   ZZZZ    -523.2582
 -----------------------------------------------------------------
 Calculating analytic gradient of the SCF energy
 Gradient of SCF Energy
            1           2           3           4           5           6
    1   0.0001403  -0.0002414  -0.0001277   0.0002427   0.0000448  -0.0000481
    2   0.0000720   0.0003989  -0.0001796  -0.0003272   0.0000559  -0.0000020
    3   0.0000125   0.0005555  -0.0000385  -0.0005741  -0.0000003   0.0000159
            7           8           9          10          11
    1  -0.0000056  -0.0000342   0.0000118   0.0000080   0.0000094
    2  -0.0000062  -0.0000212   0.0000057   0.0000118  -0.0000080
    3   0.0000008  -0.0000273   0.0000191   0.0000152   0.0000211
 Max gradient component =       5.741E-04
 RMS gradient           =       1.833E-04
 Gradient time:  CPU 8.91 s  wall 0.75 s
 Geometry Optimization Parameters
   NAtoms,    NIC,     NZ,  NCons,   NDum,   NFix, NCnnct, MaxDiis
       11      74       0       1       0       0       0       0

 Cartesian Hessian Update
 Hessian Updated using BFGS Update


** CONSTRAINED OPTIMIZATION IN DELOCALIZED INTERNAL COORDINATES **
   Searching for a Minimum

   Optimization Cycle:  12

                       Coordinates (Angstroms)
     ATOM                X               Y               Z
      1  Cl        0.7693913679    0.6467451099    1.0667481405
      2  Cl       -1.3124484926    2.3002192996    1.8576486400
      3  C        -0.3780287322   -0.4556316747   -0.1747476438
      4  C        -0.2468666383    0.1591292616   -1.4725573771
      5  C         0.1086003685   -1.8795579237   -0.0179029026
      6  H        -1.3311024589   -0.2559841239    0.3124203265
      7  H        -0.8046886020    1.0571542533   -1.7114541639
      8  H         0.5184004529   -0.1756513345   -2.1656487742
      9  H         1.1277635860   -1.9955174187   -0.3962101598
     10  H         0.0786984309   -2.1987921839    1.0252949904
     11  H        -0.5494212821   -2.5367142651   -0.5987870759
   Point Group: c1    Number of degrees of freedom:    27


   Energy is  -1038.231355920

              Constraints and their Current Values
                                        Value     Constraint
   Distance(Angs):        2   4             4.100000     4.100000
 Hessian Updated using BFGS Update

 26 Hessian modes will be used to form the next step
  Hessian Eigenvalues:
     0.001939    0.016971    0.040992    0.045015    0.045385    0.047740
     0.070744    0.082438    0.085063    0.102786    0.118075    0.144735
     0.153791    0.159941    0.160005    0.160076    0.160580    0.166565
     0.309841    0.340835    0.344075    0.345174    0.347119    0.353968
     0.355515    0.424525

 Minimum Search - Taking Simple RFO Step
 Searching for Lamda that Minimizes Along All modes
 Value Taken    Lamda =   0.00000000
 Step Taken.  Stepsize is  0.005200

                             Maximum     Tolerance    Cnvgd?
         Gradient           0.000126      0.000300     YES
         Displacement       0.002270      0.001200      NO
         Energy change     -0.000001      0.000001     YES


                       Distance Matrix (Angstroms)
             Cl(  1)   Cl(  2)   C (  3)   C (  4)   C (  5)   H (  6)
   Cl(  2)  2.773726
   C (  3)  2.018197  3.549435
   C (  4)  2.778241  4.100000  1.442028
   C (  5)  2.827600  4.796625  1.512936  2.529550
   H (  6)  2.407489  2.987014  1.088826  2.129327  2.194960
   H (  7)  3.219405  3.813335  2.198187  1.083829  3.510910  2.469314
   H (  8)  3.344805  5.066445  2.201286  1.085397  2.772011  3.093209
   H (  9)  3.041419  5.430273  2.165111  2.773199  1.093278  3.094213
   H ( 10)  2.928457  4.782176  2.165020  3.450370  1.091360  2.504043
   H ( 11)  3.827230  5.478340  2.130749  2.850015  1.096482  2.577412
             H (  7)   H (  8)   H (  9)   H ( 10)
   H (  8)  1.864582
   H (  9)  3.844872  2.610392
   H ( 10)  4.344117  3.803756  1.778352
   H ( 11)  3.770820  3.028187  1.773945  1.773801
 
 Final energy is   -1038.23135592043     


 ******************************
 **  OPTIMIZATION CONVERGED  **
 ******************************

                       Coordinates (Angstroms)
     ATOM                X               Y               Z
      1  Cl        0.7693913679    0.6467451099    1.0667481405
      2  Cl       -1.3124484926    2.3002192996    1.8576486400
      3  C        -0.3780287322   -0.4556316747   -0.1747476438
      4  C        -0.2468666383    0.1591292616   -1.4725573771
      5  C         0.1086003685   -1.8795579237   -0.0179029026
      6  H        -1.3311024589   -0.2559841239    0.3124203265
      7  H        -0.8046886020    1.0571542533   -1.7114541639
      8  H         0.5184004529   -0.1756513345   -2.1656487742
      9  H         1.1277635860   -1.9955174187   -0.3962101598
     10  H         0.0786984309   -2.1987921839    1.0252949904
     11  H        -0.5494212821   -2.5367142651   -0.5987870759

Z-matrix Print:
$molecule
0 3
Cl
C  1 2.018197
H  2 1.088826 1 97.022817
C  2 1.442028 1 105.608027 3 117.205460 0
H  4 1.083829 2 120.317658 1 -78.891053 0
H  4 1.085397 2 120.486374 1 91.652552 0
C  2 1.512936 1 105.512208 3 -117.421724 0
H  7 1.091360 2 111.443465 1 55.311404 0
H  7 1.093278 2 111.333381 1 -66.597629 0
H  7 1.096482 2 108.428708 1 174.467221 0
Cl 1 2.773726 2 94.260802 3 -24.175681 0
$end

PES scan, value:    4.1000 energy: -1038.2313559204
------- Summary of potential scan: ------ 
    4.1000     -1038.2313559204
----------------------------------------- 
Archival summary:
1\1\hpc0332\JobtypUnspecified\ProcedureUnspecified\6-31G**\l236(3)\knomura\TueMar1200:59:442019TueMar1200:59:442019\0\\#,JobtypUnspecified,ProcedureUnspecified,6-31G**,\\0,3\Cl\C,1,2.0182\H,2,1.08883,1,97.0228\C,2,1.44203,1,105.608,3,117.205,0\H,4,1.08383,2,120.318,1,-78.8911,0\H,4,1.0854,2,120.486,1,91.6526,0\C,2,1.51294,1,105.512,3,-117.422,0\H,7,1.09136,2,111.443,1,55.3114,0\H,7,1.09328,2,111.333,1,-66.5976,0\H,7,1.09648,2,108.429,1,174.467,0\Cl,1,2.77373,2,94.2608,3,-24.1757,0\\\@

 Total job time:  41.77s(wall), 490.56s(cpu) 
 Tue Mar 12 00:59:44 2019

        *************************************************************
        *                                                           *
        *  Thank you very much for using Q-Chem.  Have a nice day.  *
        *                                                           *
        *************************************************************


