
Running Job 1 of 1 ruruma/CH3CHClCH2Cl_afterGeo_edge_singlet.xyz.data/inputs/bond_triplet_2.6.in
qchem ruruma/CH3CHClCH2Cl_afterGeo_edge_singlet.xyz.data/inputs/bond_triplet_2.6.in_24156.0 /staging/scratch/2858534/qchem24156/ 1
/usr/usc/qchem/5.1.1/exe/qcprog.exe_s ruruma/CH3CHClCH2Cl_afterGeo_edge_singlet.xyz.data/inputs/bond_triplet_2.6.in_24156.0 /staging/scratch/2858534/qchem24156/
Check license passed

                  Welcome to Q-Chem
     A Quantum Leap Into The Future Of Chemistry


 Q-Chem 5.1, Q-Chem, Inc., Pleasanton, CA (2018)

 Yihan Shao,  Zhengting Gan,  E. Epifanovsky,  A. T. B. Gilbert,  M. Wormit,  
 J. Kussmann,  A. W. Lange,  A. Behn,  Jia Deng,  Xintian Feng,  D. Ghosh,  
 M. Goldey,  P. R. Horn,  L. D. Jacobson,  I. Kaliman,  T. Kus,  A. Landau,  
 Jie Liu,  E. I. Proynov,  R. M. Richard,  R. P. Steele,  E. J. Sundstrom,  
 H. L. Woodcock III,  P. M. Zimmerman,  D. Zuev,  B. Albrecht,  E. Alguire,  
 S. A. Baeppler,  D. Barton,  Z. Benda,  Y. A. Bernard,  E. J. Berquist,  
 K. B. Bravaya,  H. Burton,  D. Casanova,  Chun-Min Chang,  Yunqing Chen,  
 A. Chien,  K. D. Closser,  M. P. Coons,  S. Coriani,  S. Dasgupta,  
 A. L. Dempwolff,  M. Diedenhofen,  Hainam Do,  R. G. Edgar,  Po-Tung Fang,  
 S. Faraji,  S. Fatehi,  Qingguo Feng,  K. D. Fenk,  J. Fosso-Tande,  
 Qinghui Ge,  A. Ghysels,  G. Gidofalvi,  J. Gomes,  J. Gonthier,  A. Gunina,  
 D. Hait,  M. W. D. Hanson-Heine,  P. H. P. Harbach,  A. W. Hauser,  
 J. E. Herr,  E. G. Hohenstein,  Z. C. Holden,  Kerwin Hui,  B. C. Huynh,  
 T.-C. Jagau,  Hyunjun Ji,  B. Kaduk,  K. Khistyaev,  Jaehoon Kim,  
 P. Klunzinger,  K. Koh,  D. Kosenkov,  L. Koulias,  T. Kowalczyk,  
 C. M. Krauter,  A. Kunitsa,  Ka Un Lao,  A. Laurent,  K. V. Lawler,  
 Joonho Lee,  D. Lefrancois,  S. Lehtola,  D. S. Levine,  Yi-Pei Li,  
 You-Sheng Lin,  Fenglai Liu,  E. Livshits,  A. Luenser,  P. Manohar,  
 E. Mansoor,  S. F. Manzer,  Shan-Ping Mao,  Yuezhi Mao,  N. Mardirossian,  
 A. V. Marenich,  T. Markovich,  L. A. Martinez-Martinez,  S. A. Maurer,  
 N. J. Mayhall,  S. C. McKenzie,  J.-M. Mewes,  A. F. Morrison,  
 J. W. Mullinax,  K. Nanda,  T. S. Nguyen-Beck,  R. Olivares-Amaya,  
 J. A. Parkhill,  T. M. Perrine,  F. Plasser,  P. Pokhilko,  S. Prager,  
 A. Prociuk,  E. Ramos,  D. R. Rehn,  F. Rob,  M. Schneider,  N. Sergueev,  
 S. M. Sharada,  S. Sharma,  D. W. Small,  T. Stauch,  T. Stein,  
 Yu-Chuan Su,  A. J. W. Thom,  A. Tkatchenko,  T. Tsuchimochi,  N. M. Tubman,  
 L. Vogt,  M. L. Vidal,  O. Vydrov,  M. A. Watson,  J. Wenzel,  
 M. de Wergifosse,  T. A. Wesolowski,  A. White,  J. Witte,  A. Yamada,  
 Jun Yang,  K. Yao,  S. Yeganeh,  S. R. Yost,  Zhi-Qiang You,  A. Zech,  
 Igor Ying Zhang,  Xing Zhang,  Yan Zhao,  Ying Zhu,  B. R. Brooks,  
 G. K. L. Chan,  C. J. Cramer,  M. S. Gordon,  W. J. Hehre,  A. Klamt,  
 M. W. Schmidt,  C. D. Sherrill,  D. G. Truhlar,  A. Aspuru-Guzik,  R. Baer,  
 A. T. Bell,  N. A. Besley,  Jeng-Da Chai,  A. E. DePrince, III,  
 R. A. DiStasio Jr.,  A. Dreuw,  B. D. Dunietz,  T. R. Furlani,  
 Chao-Ping Hsu,  Yousung Jung,  Jing Kong,  D. S. Lambrecht,  WanZhen Liang,  
 C. Ochsenfeld,  V. A. Rassolov,  L. V. Slipchenko,  J. E. Subotnik,  
 T. Van Voorhis,  J. M. Herbert,  A. I. Krylov,  P. M. W. Gill,  M. Head-Gordon

 Contributors to earlier versions of Q-Chem not listed above: 
 R. D. Adamson,  B. Austin,  J. Baker,  G. J. O. Beran,  K. Brandhorst,  
 S. T. Brown,  E. F. C. Byrd,  A. K. Chakraborty,  C.-L. Cheng,  
 Siu Hung Chien,  D. M. Chipman,  D. L. Crittenden,  H. Dachsel,  
 R. J. Doerksen,  A. D. Dutoi,  L. Fusti-Molnar,  W. A. Goddard III,  
 A. Golubeva-Zadorozhnaya,  S. R. Gwaltney,  G. Hawkins,  A. Heyden,  
 S. Hirata,  G. Kedziora,  F. J. Keil,  C. Kelley,  Jihan Kim,  R. A. King,  
 R. Z. Khaliullin,  P. P. Korambath,  W. Kurlancheek,  A. M. Lee,  M. S. Lee,  
 S. V. Levchenko,  Ching Yeh Lin,  D. Liotard,  R. C. Lochan,  I. Lotan,  
 P. E. Maslen,  N. Nair,  D. P. O'Neill,  D. Neuhauser,  E. Neuscamman,  
 C. M. Oana,  R. Olson,  B. Peters,  R. Peverati,  P. A. Pieniazek,  
 Y. M. Rhee,  J. Ritchie,  M. A. Rohrdanz,  E. Rosta,  N. J. Russ,  
 H. F. Schaefer III,  N. E. Schultz,  N. Shenvi,  A. C. Simmonett,  A. Sodt,  
 D. Stuck,  K. S. Thanthiriwatte,  V. Vanovschi,  Tao Wang,  A. Warshel,  
 C. F. Williams,  Q. Wu,  X. Xu,  W. Zhang

 Please cite Q-Chem as follows:
 Y. Shao et al., Mol. Phys. 113, 184-215 (2015)
 DOI: 10.1080/00268976.2014.952696

 Q-Chem 5.1.1 for Intel X86 EM64T Linux

 Parts of Q-Chem use Armadillo 8.300.2 (Tropical Shenanigans).
 http://arma.sourceforge.net/

 Q-Chem begins on Tue Mar 12 01:11:03 2019  

Host: 
0

     Scratch files written to /staging/scratch/2858534/qchem24156//
 Aug318 |scratch|qcdevops|jenkins|workspace|build_RNUM 6013   
Processing $rem in /usr/usc/qchem/5.1.1/config/preferences.
 MEM_TOTAL  2000 
Input Ideriv = 2
Curr. Ideriv = -1
Max.  Ideriv = 2

Checking the input file for inconsistencies... 	...done.

--------------------------------------------------------------
User input:
--------------------------------------------------------------

$comment
potential surface scanner
$end

$rem
JOBTYPE  PES_SCAN
UNRESTRICTED TRUE
SYM_IGNORE  TRUE
GEOM_OPT_MAX_CYCLES 400
SCF_MAX_CYCLES 400
METHOD   B3LYP
BASIS   6-31G**
PDB_PRINT 2
SCF_CONVERGENCE 6
THRESH 14
SCF_PRINT 1
$end
$molecule
0 3
Cl -0.135488 0.418585 1.880092
Cl 0.492697 2.416097 0.184462
C -0.706714 -0.728839 -0.122904
C -0.661126 0.313449 -1.055524
C 0.310086 -1.830134 -0.125692
H -1.672855 -0.950776 0.320694
H -1.507857 0.970999 -1.201475
H 0.179184 0.418640 -1.730829
H 1.312776 -1.446534 -0.327693
H 0.319039 -2.370265 0.822040
H 0.050546 -2.545824 -0.918368
$end
$scan
stre 2 4 2.600000 2.601000 0.100000
$end
--------------------------------------------------------------
 ----------------------------------------------------------------
             Standard Nuclear Orientation (Angstroms)
    I     Atom           X                Y                Z
 ----------------------------------------------------------------
    1      Cl     -0.1354880000     0.4185850000     1.8800920000
    2      Cl      0.4926970000     2.4160970000     0.1844620000
    3      C      -0.7067140000    -0.7288390000    -0.1229040000
    4      C      -0.6611260000     0.3134490000    -1.0555240000
    5      C       0.3100860000    -1.8301340000    -0.1256920000
    6      H      -1.6728550000    -0.9507760000     0.3206940000
    7      H      -1.5078570000     0.9709990000    -1.2014750000
    8      H       0.1791840000     0.4186400000    -1.7308290000
    9      H       1.3127760000    -1.4465340000    -0.3276930000
   10      H       0.3190390000    -2.3702650000     0.8220400000
   11      H       0.0505460000    -2.5458240000    -0.9183680000
 ----------------------------------------------------------------
 Nuclear Repulsion Energy =   264.9266765521 hartrees
 There are       30 alpha and       28 beta electrons
 Requested basis set is 6-31G(d,p)
 There are 40 shells and 113 basis functions

 Total QAlloc Memory Limit   2000 MB
 Mega-Array Size       188 MB
 MEM_STATIC part       192 MB
A total of 1 constraints
  
            1
    1   1.0100000
    2   2.0100000
    3   4.0100000
    4   2.6000000
    5   2.6010000
    6   0.1000000
    7   0.0000000
    8   0.0000000
    9   0.0000000
   10   0.0000000

                       Distance Matrix (Angstroms)
             Cl(  1)   Cl(  2)   C (  3)   C (  4)   C (  5)   H (  6)
   Cl(  2)  2.694407
   C (  3)  2.377998  3.379894
   C (  4)  2.984157  2.700000  1.399365
   C (  5)  3.046054  4.261457  1.498913  2.530373
   H (  6)  2.582706  4.005497  1.086031  2.125050  2.214630
   H (  7)  3.418276  2.830432  2.166701  1.081955  3.508357  2.457121
   H (  8)  3.624606  2.785043  2.164936  1.083154  2.765969  3.084493
   H (  9)  3.232716  3.981802  2.152990  2.742912  1.092401  3.095186
   H ( 10)  3.017243  4.831762  2.153919  3.418814  1.090879  2.496786
   H ( 11)  4.080895  5.102195  2.123120  2.949700  1.099049  2.655101
             H (  7)   H (  8)   H (  9)   H ( 10)
   H (  8)  1.852410
   H (  9)  3.816272  2.594744
   H ( 10)  4.312332  3.783476  1.778392
   H ( 11)  3.857047  3.076473  1.774982  1.769726
 
 A cutoff of  1.0D-14 yielded    773 shell pairs
 There are      6361 function pairs
 
 -------------------------------------------------------
 OpenMP Integral Computing Module                       
 Release: version 1.0, May 2013, Q-Chem Inc. Pittsburgh 
 -------------------------------------------------------
 Integral Job Info:
 Integral job number is                      11
 Integral operator is                         1
 short-range coefficients                     0
 long-range coefficients              100000000
 Omega coefficients                           0
 if combine SR and LR in K                    0
 Integral screening is                        0
 Integral computing path is                   2
 max size of driver memory is            800000
 size of driver memory is                593474
 size of scratch memory is             15267112
 max col of scratch BK array               1296
 max len of scratch array in speh3          155
 max len of scratch index in speh4           18
 max int batch size is                      520
 min int batch size is                       52
 fixed nKL is                                52
 max L of basis functions is                  2
 order of int derivative is                   0
 number of shells is                         40
 number of basis is                         113
 number of cartesian basis is               113
 number of contracted shell pairs           773
 number of primitive shell pairs           3105
 maxK2 (contraction) of shell pair           36
 max number of K2 of shell pair               1
 max number of CS2 of shell pair             60
 max number of PS2 of shell pair            330
 mem total for path MDJ                  519084
 -------------------------------------------------------
 Smallest overlap matrix eigenvalue = 5.30E-03

 Scale SEOQF with 1.000000e-01/1.000000e-01/1.000000e-01

 Standard Electronic Orientation quadrupole field applied
 Nucleus-field energy     =     0.0000000029 hartrees
 Guess from superposition of atomic densities
 Warning:  Energy on first SCF cycle will be non-variational
 SAD guess density has 58.000000 electrons

 -----------------------------------------------------------------------
  General SCF calculation program by
  Eric Jon Sundstrom, Paul Horn, Yuezhi Mao, Dmitri Zuev, Alec White,
  David Stuck, Shaama M.S., Shane Yost, Joonho Lee, David Small,
  Daniel Levine, Susi Lehtola, Hugh Burton, Evgeny Epifanovsky
 -----------------------------------------------------------------------
 Exchange:     0.2000 Hartree-Fock + 0.0800 Slater + 0.7200 B88
 Correlation:  0.1900 VWN1RPA + 0.8100 LYP
 Using SG-1 standard quadrature grid
 using 12 threads for integral computing
 -------------------------------------------------------
 OpenMP Integral computing Module                
 Release: version 1.0, May 2013, Q-Chem Inc. Pittsburgh 
 -------------------------------------------------------
 -------------------------------------------------------
 OpenMP BLAS3 based DFT computing Module                
 Release: version 1.0, May 2013, Q-Chem Inc. Pittsburgh 
 -------------------------------------------------------
 A unrestricted SCF calculation will be
 performed using DIIS
 SCF converges when DIIS error is below 1.0e-06
 Alpha HF Exchange    Energy =  -7.25642444472235
 Beta HF Exchange     Energy =  -7.25642444472235
 DFT Correlation      Energy =  -2.75602833832867
 DFT Exchange         Energy = -57.30017472214253
 One-Electron (alpha) Energy = -976.03903151954216
 One-Electron (beta)  Energy = -976.03903151954216
 Total Coulomb        Energy = 723.22287440996604
 ---------------------------------------
  Cycle       Energy         DIIS error
 ---------------------------------------
    1   -1038.4975640240      2.56e-02  
 Alpha HF Exchange    Energy =  -7.39883200080560
 Beta HF Exchange     Energy =  -7.16696191227865
 DFT Correlation      Energy =  -2.77580285541534
 DFT Exchange         Energy = -57.83276878191875
 One-Electron (alpha) Energy = -996.56412813524878
 One-Electron (beta)  Energy = -962.44288909548277
 Total Coulomb        Energy = 731.08101060835588
    2   -1038.1736956178      2.70e-03  
 Alpha HF Exchange    Energy =  -7.35396740321244
 Beta HF Exchange     Energy =  -7.12369696560894
 DFT Correlation      Energy =  -2.75611291572638
 DFT Exchange         Energy = -57.45272438512234
 One-Electron (alpha) Energy = -993.78915459616564
 One-Electron (beta)  Energy = -959.59282391541217
 Total Coulomb        Energy = 724.97754759929842
    3   -1038.1642560269      2.92e-03  
 Alpha HF Exchange    Energy =  -7.37321242000557
 Beta HF Exchange     Energy =  -7.13702122047937
 DFT Correlation      Energy =  -2.76437382513224
 DFT Exchange         Energy = -57.59570860312229
 One-Electron (alpha) Energy = -995.00071831059756
 One-Electron (beta)  Energy = -960.33134316012263
 Total Coulomb        Energy = 727.05768357433101
    4   -1038.2180174101      9.91e-04  
 Alpha HF Exchange    Energy =  -7.37700065839571
 Beta HF Exchange     Energy =  -7.14057250352806
 DFT Correlation      Energy =  -2.76517403042307
 DFT Exchange         Energy = -57.62231154805284
 One-Electron (alpha) Energy = -995.28530295286885
 One-Electron (beta)  Energy = -960.68003735318905
 Total Coulomb        Energy = 727.71702687654715
    5   -1038.2266956149      2.96e-04  
 Alpha HF Exchange    Energy =  -7.37775075276987
 Beta HF Exchange     Energy =  -7.14044883886160
 DFT Correlation      Energy =  -2.76502937619814
 DFT Exchange         Energy = -57.62402331851273
 One-Electron (alpha) Energy = -995.31593792745821
 One-Electron (beta)  Energy = -960.62801054474096
 Total Coulomb        Energy = 727.69699389996947
    6   -1038.2275303035      7.88e-05  
 Alpha HF Exchange    Energy =  -7.37732023529581
 Beta HF Exchange     Energy =  -7.13993242389913
 DFT Correlation      Energy =  -2.76488594802520
 DFT Exchange         Energy = -57.62004383225220
 One-Electron (alpha) Energy = -995.28756111203199
 One-Electron (beta)  Energy = -960.57765286997210
 Total Coulomb        Energy = 727.61311406571497
    7   -1038.2276058007      3.36e-05  
 Alpha HF Exchange    Energy =  -7.37751537628125
 Beta HF Exchange     Energy =  -7.14013427802611
 DFT Correlation      Energy =  -2.76482931349694
 DFT Exchange         Energy = -57.62092929109576
 One-Electron (alpha) Energy = -995.29656108416475
 One-Electron (beta)  Energy = -960.58272343247984
 Total Coulomb        Energy = 727.62838685465454
    8   -1038.2276293659      2.18e-05  
 Alpha HF Exchange    Energy =  -7.37760333884052
 Beta HF Exchange     Energy =  -7.14023348965807
 DFT Correlation      Energy =  -2.76481824018244
 DFT Exchange         Energy = -57.62143011303102
 One-Electron (alpha) Energy = -995.30256364959905
 One-Electron (beta)  Energy = -960.58344344082923
 Total Coulomb        Energy = 727.63577212377993
    9   -1038.2276435933      9.33e-06  
 Alpha HF Exchange    Energy =  -7.37757533882267
 Beta HF Exchange     Energy =  -7.14029030887678
 DFT Correlation      Energy =  -2.76477470935548
 DFT Exchange         Energy = -57.62125798611924
 One-Electron (alpha) Energy = -995.29695164865518
 One-Electron (beta)  Energy = -960.58030731631595
 Total Coulomb        Energy = 727.62683342856531
   10   -1038.2276473246      3.11e-06  
 Alpha HF Exchange    Energy =  -7.37758671656513
 Beta HF Exchange     Energy =  -7.14033464725708
 DFT Correlation      Energy =  -2.76477165502002
 DFT Exchange         Energy = -57.62141057209240
 One-Electron (alpha) Energy = -995.29748182535843
 One-Electron (beta)  Energy = -960.58283728695949
 Total Coulomb        Energy = 727.63009850469166
   11   -1038.2276476435      9.30e-07  Convergence criterion met
 ---------------------------------------
 SCF time:   CPU 28.75s  wall 2.00s 
<S^2> =          2.007968110
 Alpha HF Exchange    Energy =  -7.37758671656513
 Beta HF Exchange     Energy =  -7.14033464725708
 DFT Correlation      Energy =  -2.76477165502002
 DFT Exchange         Energy = -57.62141057209240
 One-Electron (alpha) Energy = -995.29748182535843
 One-Electron (beta)  Energy = -960.58283728695949
 Total Coulomb        Energy = 727.63009850469166
 Nuclear repulsion Energy = 264.92667655502305
 SCF   energy in the final basis set =    -1038.2276476435
 Total energy in the final basis set =    -1038.2276476435
 
 --------------------------------------------------------------
 
                    Orbital Energies (a.u.)
 --------------------------------------------------------------
 
 Alpha MOs
 -- Occupied --
*******-101.525 -10.276 -10.255 -10.216  -9.455  -9.438  -7.219
 -7.216  -7.208  -7.206  -7.193  -7.191  -0.852  -0.799  -0.773
 -0.729  -0.609  -0.514  -0.469  -0.457  -0.410  -0.399  -0.385
 -0.362  -0.317  -0.305  -0.286  -0.274  -0.257
 -- Virtual --
 -0.044   0.080   0.106   0.114   0.149   0.153   0.154   0.235
  0.284   0.354   0.398   0.419   0.437   0.454   0.482   0.501
  0.513   0.519   0.539   0.551   0.577   0.647   0.658   0.688
  0.701   0.719   0.779   0.822   0.830   0.845   0.855   0.862
  0.878   0.880   0.887   0.894   0.907   0.908   0.919   0.941
  1.046   1.128   1.168   1.250   1.286   1.342   1.422   1.446
  1.612   1.745   1.819   1.868   1.880   1.935   2.009   2.035
  2.054   2.086   2.153   2.244   2.292   2.338   2.394   2.455
  2.545   2.561   2.625   2.656   2.757   2.814   2.847   2.939
  3.157   3.235   3.382   3.393   3.420   3.567   4.190   4.252
  4.269   4.390   4.574
 
 Beta MOs
 -- Occupied --
*******-101.519 -10.273 -10.248 -10.216  -9.450  -9.432  -7.208
 -7.207  -7.205  -7.191  -7.188  -7.187  -0.836  -0.766  -0.736
 -0.717  -0.601  -0.509  -0.464  -0.450  -0.407  -0.397  -0.340
 -0.316  -0.305  -0.278  -0.273
 -- Virtual --
 -0.164  -0.162  -0.006   0.082   0.107   0.118   0.151   0.155
  0.158   0.239   0.289   0.366   0.416   0.423   0.444   0.466
  0.486   0.509   0.525   0.535   0.560   0.577   0.593   0.659
  0.668   0.700   0.715   0.737   0.785   0.829   0.834   0.853
  0.873   0.881   0.901   0.905   0.913   0.922   0.927   0.928
  0.931   0.962   1.080   1.142   1.175   1.261   1.297   1.360
  1.433   1.462   1.615   1.749   1.830   1.872   1.900   1.946
  2.010   2.037   2.056   2.089   2.164   2.246   2.297   2.341
  2.404   2.464   2.554   2.570   2.631   2.658   2.759   2.815
  2.849   2.942   3.158   3.238   3.385   3.395   3.420   3.571
  4.202   4.267   4.284   4.397   4.581
 --------------------------------------------------------------
 
          Ground-State Mulliken Net Atomic Charges

     Atom                 Charge (a.u.)    Spin (a.u.)
  --------------------------------------------------------
      1 Cl                   -0.163887       0.681394
      2 Cl                   -0.225245       0.709081
      3 C                    -0.068000       0.122776
      4 C                    -0.139592       0.530305
      5 C                    -0.329763      -0.005051
      6 H                     0.167588      -0.003249
      7 H                     0.165004      -0.022903
      8 H                     0.160312      -0.021667
      9 H                     0.149864       0.000148
     10 H                     0.147153       0.005299
     11 H                     0.136567       0.003867
  --------------------------------------------------------
  Sum of atomic charges =     0.000000
  Sum of spin   charges =     2.000000

 -----------------------------------------------------------------
                    Cartesian Multipole Moments
 -----------------------------------------------------------------
    Charge (ESU x 10^10)
                -0.0000
    Dipole Moment (Debye)
         X      -1.5054      Y      -4.0260      Z      -2.9887
       Tot       5.2351
    Quadrupole Moments (Debye-Ang)
        XX     -43.4756     XY      -1.2380     YY     -48.3984
        XZ       0.2144     YZ      -2.7017     ZZ     -46.1396
    Octopole Moments (Debye-Ang^2)
       XXX       0.3808    XXY     -22.7302    XYY      -1.1909
       YYY     -82.3921    XXZ     -19.5682    XYZ       1.2756
       YYZ     -21.3070    XZZ       2.3764    YZZ     -21.5160
       ZZZ     -59.8426
    Hexadecapole Moments (Debye-Ang^3)
      XXXX    -121.3697   XXXY     -36.4474   XXYY    -139.7674
      XYYY     -36.2378   YYYY    -724.3102   XXXZ      -6.4696
      XXYZ     -18.7576   XYYZ      -2.3265   YYYZ     -55.4845
      XXZZ     -85.8595   XYZZ     -10.8002   YYZZ    -176.3240
      XZZZ      -5.5166   YZZZ     -48.9406   ZZZZ    -383.2985
 -----------------------------------------------------------------
 Calculating analytic gradient of the SCF energy
 Gradient of SCF Energy
            1           2           3           4           5           6
    1  -0.0000684  -0.0011393   0.0000357   0.0011608  -0.0000583  -0.0000190
    2   0.0000075  -0.0020721  -0.0000079   0.0021387  -0.0000293  -0.0000104
    3  -0.0000001  -0.0011368  -0.0000352   0.0012419  -0.0000411  -0.0000527
            7           8           9          10          11
    1   0.0000613   0.0000491   0.0000111  -0.0000656   0.0000327
    2  -0.0000184   0.0000033  -0.0000063  -0.0000398   0.0000348
    3  -0.0000088   0.0000433   0.0000683  -0.0000246  -0.0000542
 Max gradient component =       2.139E-03
 RMS gradient           =       6.603E-04
 Gradient time:  CPU 9.29 s  wall 0.78 s
 Geometry Optimization Parameters
   NAtoms,    NIC,     NZ,  NCons,   NDum,   NFix, NCnnct, MaxDiis
       11     113       0       1       0       0       0       0


** CONSTRAINED OPTIMIZATION IN DELOCALIZED INTERNAL COORDINATES **
   Searching for a Minimum

   Optimization Cycle:   1

                       Coordinates (Angstroms)
     ATOM                X               Y               Z
      1  Cl       -0.1354880000    0.4185850000    1.8800920000
      2  Cl        0.4926970000    2.4160970000    0.1844620000
      3  C        -0.7067140000   -0.7288390000   -0.1229040000
      4  C        -0.6611260000    0.3134490000   -1.0555240000
      5  C         0.3100860000   -1.8301340000   -0.1256920000
      6  H        -1.6728550000   -0.9507760000    0.3206940000
      7  H        -1.5078570000    0.9709990000   -1.2014750000
      8  H         0.1791840000    0.4186400000   -1.7308290000
      9  H         1.3127760000   -1.4465340000   -0.3276930000
     10  H         0.3190390000   -2.3702650000    0.8220400000
     11  H         0.0505460000   -2.5458240000   -0.9183680000
   Point Group: c1    Number of degrees of freedom:    27


   Energy is  -1038.227647644

              Constraints and their Current Values
                                        Value     Constraint
   Distance(Angs):        2   4             2.700000     2.600000

 Attempting to Generate Delocalized Internal Coordinates

   Using Lagrange Multiplier Algorithm


 28 Hessian modes will be used to form the next step
  Hessian Eigenvalues:
    -0.981287    0.045000    0.045788    0.047707    0.052532    0.055906
     0.062223    0.071479    0.076758    0.078385    0.082111    0.084838
     0.084910    0.089322    0.117640    0.136164    0.160000    0.160000
     0.160000    0.302286    0.311145    0.314216    0.324916    0.337875
     0.345366    0.347112    0.416631    1.019070

 Minimum Search - Taking P-RFO Step
 Searching for Lamda that Maximizes Along the Constraint modes Only
 Value Taken    Lamda =   0.01869636
 Searching for Lamda that Minimizes Along All other modes
 Value Taken    Lamda =  -0.01643824
 Step Taken.  Stepsize is  0.185702

                             Maximum     Tolerance    Cnvgd?
         Gradient            0.188973       0.000300      NO
         Displacement        0.185698       0.001200      NO
         Energy change     *********       0.000001      NO


 New Cartesian Coordinates Obtained by Inverse Iteration

 Displacement from previous Coordinates is:  0.170453
 ----------------------------------------------------------------
             Standard Nuclear Orientation (Angstroms)
    I     Atom           X                Y                Z
 ----------------------------------------------------------------
    1      Cl     -0.1347650255     0.4000436709     1.8951822721
    2      Cl      0.4715589306     2.3497327728     0.1545000622
    3      C      -0.7022404157    -0.7175263368    -0.1137632736
    4      C      -0.6507819328     0.3345662281    -1.0490241228
    5      C       0.3123424341    -1.8208513041    -0.1227428850
    6      H      -1.6746185832    -0.9410339847     0.3268491297
    7      H      -1.5158567915     0.9802760317    -1.2053073159
    8      H       0.1871984498     0.4161051729    -1.7407105397
    9      H       1.3161889723    -1.4377398172    -0.3198298764
   10      H       0.3182610026    -2.3680916178     0.8209212469
   11      H       0.0530009592    -2.5300828159    -0.9212716975
 ----------------------------------------------------------------
 Nuclear Repulsion Energy =   266.7962150212 hartrees
 There are       30 alpha and       28 beta electrons

                       Distance Matrix (Angstroms)
             Cl(  1)   Cl(  2)   C (  3)   C (  4)   C (  5)   H (  6)
   Cl(  2)  2.683075
   C (  3)  2.367879  3.295125
   C (  4)  2.989801  2.601733  1.408637
   C (  5)  3.033859  4.182820  1.498928  2.536026
   H (  6)  2.574744  3.932547  1.090694  2.137387  2.219060
   H (  7)  3.443417  2.770254  2.176229  1.090743  3.515761  2.462548
   H (  8)  3.650155  2.722425  2.173288  1.089628  2.763595  3.095641
   H (  9)  3.223196  3.909391  2.152958  2.746228  1.092394  3.099974
   H ( 10)  3.003638  4.767125  2.153932  3.426383  1.090875  2.500434
   H ( 11)  4.068576  5.014487  2.123163  2.952600  1.099052  2.658487
             H (  7)   H (  8)   H (  9)   H ( 10)
   H (  8)  1.872256
   H (  9)  3.827709  2.594275
   H ( 10)  4.322170  3.785616  1.778406
   H ( 11)  3.855465  3.060966  1.774990  1.769701
 
 Applying Cartesian multipole field
    Component          Value
    ---------          -----
     (2,0,0)        1.00000E-11
     (0,2,0)        2.00000E-11
     (0,0,2)       -3.00000E-11
 Nucleus-field energy     =     0.0000000024 hartrees
 Requested basis set is 6-31G(d,p)
 There are 40 shells and 113 basis functions
 A cutoff of  1.0D-14 yielded    775 shell pairs
 There are      6371 function pairs
 Smallest overlap matrix eigenvalue = 5.33E-03
 Guess from superposition of atomic densities
 Warning:  Energy on first SCF cycle will be non-variational
 SAD guess density has 58.000000 electrons

 -----------------------------------------------------------------------
  General SCF calculation program by
  Eric Jon Sundstrom, Paul Horn, Yuezhi Mao, Dmitri Zuev, Alec White,
  David Stuck, Shaama M.S., Shane Yost, Joonho Lee, David Small,
  Daniel Levine, Susi Lehtola, Hugh Burton, Evgeny Epifanovsky
 -----------------------------------------------------------------------
 Exchange:     0.2000 Hartree-Fock + 0.0800 Slater + 0.7200 B88
 Correlation:  0.1900 VWN1RPA + 0.8100 LYP
 Using SG-1 standard quadrature grid
 using 12 threads for integral computing
 -------------------------------------------------------
 OpenMP Integral computing Module                
 Release: version 1.0, May 2013, Q-Chem Inc. Pittsburgh 
 -------------------------------------------------------
 -------------------------------------------------------
 OpenMP BLAS3 based DFT computing Module                
 Release: version 1.0, May 2013, Q-Chem Inc. Pittsburgh 
 -------------------------------------------------------
 A unrestricted SCF calculation will be
 performed using DIIS
 SCF converges when DIIS error is below 1.0e-06
 Alpha HF Exchange    Energy =  -7.25594017579385
 Beta HF Exchange     Energy =  -7.25594017579385
 DFT Correlation      Energy =  -2.75673356875504
 DFT Exchange         Energy = -57.29866666434835
 One-Electron (alpha) Energy = -977.92441987242751
 One-Electron (beta)  Energy = -977.92441987242751
 Total Coulomb        Energy = 725.12646125737137
 ---------------------------------------
  Cycle       Energy         DIIS error
 ---------------------------------------
    1   -1038.4934440486      2.54e-02  
 Alpha HF Exchange    Energy =  -7.39765280089321
 Beta HF Exchange     Energy =  -7.16567273377245
 DFT Correlation      Energy =  -2.77639655189067
 DFT Exchange         Energy = -57.82510854603049
 One-Electron (alpha) Energy = -998.49403504151769
 One-Electron (beta)  Energy = -964.24431649085875
 Total Coulomb        Energy = 732.93185311224352
    2   -1038.1751140292      2.68e-03  
 Alpha HF Exchange    Energy =  -7.35355499493268
 Beta HF Exchange     Energy =  -7.12238697748930
 DFT Correlation      Energy =  -2.75680860130973
 DFT Exchange         Energy = -57.44812150983260
 One-Electron (alpha) Energy = -995.73568327109047
 One-Electron (beta)  Energy = -961.34012841978983
 Total Coulomb        Energy = 726.78845499164254
    3   -1038.1720137593      2.77e-03  
 Alpha HF Exchange    Energy =  -7.37303756752913
 Beta HF Exchange     Energy =  -7.13659111398750
 DFT Correlation      Energy =  -2.76533598152633
 DFT Exchange         Energy = -57.59572444564304
 One-Electron (alpha) Energy = -997.00216066785481
 One-Electron (beta)  Energy = -962.21014444119839
 Total Coulomb        Energy = 729.06582578753182
    4   -1038.2209534067      7.84e-04  
 Alpha HF Exchange    Energy =  -7.37623953493956
 Beta HF Exchange     Energy =  -7.13955164521446
 DFT Correlation      Energy =  -2.76587504779518
 DFT Exchange         Energy = -57.61752282102434
 One-Electron (alpha) Energy = -997.23776718160434
 One-Electron (beta)  Energy = -962.47780101519311
 Total Coulomb        Energy = 729.59265508105182
    5   -1038.2258871412      3.16e-04  
 Alpha HF Exchange    Energy =  -7.37689540714149
 Beta HF Exchange     Energy =  -7.13942768227568
 DFT Correlation      Energy =  -2.76573681391763
 DFT Exchange         Energy = -57.61893622443556
 One-Electron (alpha) Energy = -997.26318116437039
 One-Electron (beta)  Energy = -962.43045156997289
 Total Coulomb        Energy = 729.57161930422740
    6   -1038.2267945344      8.89e-05  
 Alpha HF Exchange    Energy =  -7.37645585277628
 Beta HF Exchange     Energy =  -7.13877369057192
 DFT Correlation      Energy =  -2.76564870453737
 DFT Exchange         Energy = -57.61490439849334
 One-Electron (alpha) Energy = -997.23713750378181
 One-Electron (beta)  Energy = -962.38067790225671
 Total Coulomb        Energy = 729.49051388980990
    7   -1038.2268691391      3.78e-05  
 Alpha HF Exchange    Energy =  -7.37658111369104
 Beta HF Exchange     Energy =  -7.13889584770502
 DFT Correlation      Energy =  -2.76558940276668
 DFT Exchange         Energy = -57.61529617507730
 One-Electron (alpha) Energy = -997.24243984752241
 One-Electron (beta)  Energy = -962.38136322935475
 Total Coulomb        Energy = 729.49706183093610
    8   -1038.2268887617      1.73e-05  
 Alpha HF Exchange    Energy =  -7.37669110381165
 Beta HF Exchange     Energy =  -7.13896007521717
 DFT Correlation      Energy =  -2.76558876852217
 DFT Exchange         Energy = -57.61584390680412
 One-Electron (alpha) Energy = -997.25027859197655
 One-Electron (beta)  Energy = -962.38298873424458
 Total Coulomb        Energy = 729.50723782967680
    9   -1038.2268983274      7.32e-06  
 Alpha HF Exchange    Energy =  -7.37666489199548
 Beta HF Exchange     Energy =  -7.13898058097600
 DFT Correlation      Energy =  -2.76555555047763
 DFT Exchange         Energy = -57.61563521239589
 One-Electron (alpha) Energy = -997.24558641926217
 One-Electron (beta)  Energy = -962.37940376171412
 Total Coulomb        Energy = 729.49871013522045
   10   -1038.2269012581      3.04e-06  
 Alpha HF Exchange    Energy =  -7.37667811268695
 Beta HF Exchange     Energy =  -7.13902346609535
 DFT Correlation      Energy =  -2.76555276222588
 DFT Exchange         Energy = -57.61579267984665
 One-Electron (alpha) Energy = -997.24630773719286
 One-Electron (beta)  Energy = -962.38193900186900
 Total Coulomb        Energy = 729.50217711365326
   11   -1038.2269016227      1.03e-06  
 Alpha HF Exchange    Energy =  -7.37667417387773
 Beta HF Exchange     Energy =  -7.13902834484857
 DFT Correlation      Energy =  -2.76555156237771
 DFT Exchange         Energy = -57.61578852087818
 One-Electron (alpha) Energy = -997.24570030920427
 One-Electron (beta)  Energy = -962.38216015625119
 Total Coulomb        Energy = 729.50178640271395
   12   -1038.2269016412      5.71e-07  Convergence criterion met
 ---------------------------------------
 SCF time:   CPU 30.88s  wall 3.00s 
<S^2> =          2.006509375
 Alpha HF Exchange    Energy =  -7.37667417387773
 Beta HF Exchange     Energy =  -7.13902834484857
 DFT Correlation      Energy =  -2.76555156237771
 DFT Exchange         Energy = -57.61578852087818
 One-Electron (alpha) Energy = -997.24570030920427
 One-Electron (beta)  Energy = -962.38216015625119
 Total Coulomb        Energy = 729.50178640271395
 Nuclear repulsion Energy = 266.79621502352774
 SCF   energy in the final basis set =    -1038.2269016412
 Total energy in the final basis set =    -1038.2269016412
 
 --------------------------------------------------------------
 
                    Orbital Energies (a.u.)
 --------------------------------------------------------------
 
 Alpha MOs
 -- Occupied --
*******-101.528 -10.275 -10.256 -10.215  -9.454  -9.441  -7.217
 -7.214  -7.208  -7.207  -7.198  -7.194  -0.850  -0.799  -0.775
 -0.726  -0.606  -0.510  -0.467  -0.457  -0.408  -0.398  -0.387
 -0.362  -0.317  -0.309  -0.287  -0.274  -0.250
 -- Virtual --
 -0.042   0.079   0.105   0.113   0.149   0.153   0.155   0.235
  0.281   0.355   0.397   0.419   0.439   0.457   0.483   0.500
  0.510   0.520   0.538   0.561   0.577   0.650   0.657   0.684
  0.700   0.717   0.773   0.820   0.829   0.844   0.852   0.859
  0.877   0.879   0.885   0.894   0.908   0.909   0.920   0.943
  1.051   1.142   1.175   1.265   1.290   1.345   1.433   1.456
  1.613   1.746   1.819   1.864   1.875   1.926   2.009   2.031
  2.055   2.086   2.161   2.243   2.294   2.340   2.383   2.454
  2.535   2.563   2.620   2.651   2.748   2.809   2.847   2.926
  3.157   3.225   3.371   3.392   3.420   3.546   4.193   4.253
  4.271   4.396   4.576
 
 Beta MOs
 -- Occupied --
*******-101.522 -10.272 -10.248 -10.215  -9.449  -9.436  -7.206
 -7.205  -7.203  -7.194  -7.192  -7.191  -0.834  -0.767  -0.739
 -0.714  -0.598  -0.506  -0.461  -0.448  -0.405  -0.396  -0.342
 -0.316  -0.305  -0.280  -0.275
 -- Virtual --
 -0.165  -0.158  -0.003   0.082   0.108   0.117   0.151   0.155
  0.159   0.239   0.286   0.367   0.415   0.423   0.447   0.468
  0.487   0.510   0.524   0.535   0.558   0.584   0.594   0.662
  0.668   0.699   0.713   0.734   0.780   0.827   0.834   0.853
  0.870   0.876   0.899   0.904   0.913   0.921   0.926   0.930
  0.932   0.963   1.083   1.154   1.183   1.280   1.300   1.363
  1.445   1.471   1.617   1.750   1.833   1.869   1.895   1.936
  2.010   2.032   2.057   2.088   2.173   2.246   2.299   2.343
  2.392   2.463   2.544   2.573   2.626   2.654   2.750   2.810
  2.849   2.929   3.158   3.228   3.375   3.393   3.420   3.550
  4.205   4.269   4.286   4.404   4.583
 --------------------------------------------------------------
 
          Ground-State Mulliken Net Atomic Charges

     Atom                 Charge (a.u.)    Spin (a.u.)
  --------------------------------------------------------
      1 Cl                   -0.165625       0.673706
      2 Cl                   -0.211563       0.708078
      3 C                    -0.064059       0.163276
      4 C                    -0.154540       0.497588
      5 C                    -0.328387      -0.007701
      6 H                     0.166681      -0.005169
      7 H                     0.165222      -0.021613
      8 H                     0.161088      -0.020051
      9 H                     0.149156       0.000505
     10 H                     0.146245       0.005879
     11 H                     0.135783       0.005502
  --------------------------------------------------------
  Sum of atomic charges =    -0.000000
  Sum of spin   charges =     2.000000

 -----------------------------------------------------------------
                    Cartesian Multipole Moments
 -----------------------------------------------------------------
    Charge (ESU x 10^10)
                -0.0000
    Dipole Moment (Debye)
         X      -1.4434      Y      -3.8221      Z      -2.9668
       Tot       5.0491
    Quadrupole Moments (Debye-Ang)
        XX     -43.4650     XY      -1.1348     YY     -47.9376
        XZ       0.1850     YZ      -2.6200     ZZ     -46.3472
    Octopole Moments (Debye-Ang^2)
       XXX       1.0489    XXY     -21.6173    XYY      -0.6862
       YYY     -77.9861    XXZ     -19.3677    XYZ       1.4533
       YYZ     -20.5846    XZZ       2.6038    YZZ     -20.7039
       ZZZ     -59.9671
    Hexadecapole Moments (Debye-Ang^3)
      XXXX    -119.4026   XXXY     -32.8024   XXYY    -134.4973
      XYYY     -32.0796   YYYY    -693.3766   XXXZ      -5.3956
      XXYZ     -16.9796   XYYZ      -1.4734   YYYZ     -48.6582
      XXZZ     -86.1710   XYZZ      -9.4560   YYZZ    -171.9578
      XZZZ      -4.9176   YZZZ     -44.7380   ZZZZ    -388.6582
 -----------------------------------------------------------------
 Calculating analytic gradient of the SCF energy
 Gradient of SCF Energy
            1           2           3           4           5           6
    1  -0.0008849  -0.0014467   0.0026635   0.0033454   0.0003098  -0.0029087
    2  -0.0013201  -0.0025711  -0.0030423   0.0039677  -0.0000481  -0.0007197
    3  -0.0020088  -0.0023462   0.0035970   0.0010989   0.0001169   0.0016504
            7           8           9          10          11
    1  -0.0052586   0.0043539  -0.0000327  -0.0000996  -0.0000414
    2   0.0035328   0.0001659  -0.0000334  -0.0000095   0.0000779
    3   0.0000828  -0.0021764   0.0000451  -0.0000707   0.0000111
 Max gradient component =       5.259E-03
 RMS gradient           =       2.160E-03
 Gradient time:  CPU 9.16 s  wall 0.77 s
 Geometry Optimization Parameters
   NAtoms,    NIC,     NZ,  NCons,   NDum,   NFix, NCnnct, MaxDiis
       11     113       0       1       0       0       0       0

 Cartesian Hessian Update
 Hessian Updated using BFGS Update


** CONSTRAINED OPTIMIZATION IN DELOCALIZED INTERNAL COORDINATES **
   Searching for a Minimum

   Optimization Cycle:   2

                       Coordinates (Angstroms)
     ATOM                X               Y               Z
      1  Cl       -0.1347650255    0.4000436709    1.8951822721
      2  Cl        0.4715589306    2.3497327728    0.1545000622
      3  C        -0.7022404157   -0.7175263368   -0.1137632736
      4  C        -0.6507819328    0.3345662281   -1.0490241228
      5  C         0.3123424341   -1.8208513041   -0.1227428850
      6  H        -1.6746185832   -0.9410339847    0.3268491297
      7  H        -1.5158567915    0.9802760317   -1.2053073159
      8  H         0.1871984498    0.4161051729   -1.7407105397
      9  H         1.3161889723   -1.4377398172   -0.3198298764
     10  H         0.3182610026   -2.3680916178    0.8209212469
     11  H         0.0530009592   -2.5300828159   -0.9212716975
   Point Group: c1    Number of degrees of freedom:    27


   Energy is  -1038.226901641

              Constraints and their Current Values
                                        Value     Constraint
   Distance(Angs):        2   4             2.601733     2.600000
 Hessian Updated using BFGS Update

   Using Lagrange Multiplier Algorithm


 27 Hessian modes will be used to form the next step
  Hessian Eigenvalues:
    -0.993402    0.045000    0.046007    0.048706    0.052633    0.055924
     0.062340    0.071692    0.076887    0.078821    0.082114    0.084909
     0.085351    0.090762    0.118483    0.136420    0.160000    0.160013
     0.302287    0.313747    0.324912    0.337873    0.345365    0.347109
     0.375049    0.528599    1.010336

 Minimum Search - Taking P-RFO Step
 Searching for Lamda that Maximizes Along the Constraint modes Only
 Value Taken    Lamda =   0.00000044
 Searching for Lamda that Minimizes Along All other modes
 Value Taken    Lamda =  -0.00023585
 Step Taken.  Stepsize is  0.026326

                             Maximum     Tolerance    Cnvgd?
         Gradient            0.005531       0.000300      NO
         Displacement        0.014000       0.001200      NO
         Energy change      0.000746       0.000001      NO


 New Cartesian Coordinates Obtained by Inverse Iteration

 Displacement from previous Coordinates is:  0.024301
 ----------------------------------------------------------------
             Standard Nuclear Orientation (Angstroms)
    I     Atom           X                Y                Z
 ----------------------------------------------------------------
    1      Cl     -0.1336328962     0.4036507740     1.9001521795
    2      Cl      0.4702751600     2.3465097636     0.1557477935
    3      C      -0.7023460626    -0.7159387369    -0.1149936181
    4      C      -0.6507618634     0.3329936046    -1.0480094823
    5      C       0.3116933787    -1.8196027274    -0.1239602769
    6      H      -1.6724827266    -0.9385101794     0.3238918917
    7      H      -1.5114370585     0.9753460861    -1.2059890749
    8      H       0.1832285120     0.4133721328    -1.7383796540
    9      H       1.3156468697    -1.4366220490    -0.3209283309
   10      H       0.3175435480    -2.3668174926     0.8197775969
   11      H       0.0525611389    -2.5289831758    -0.9225060246
 ----------------------------------------------------------------
 Nuclear Repulsion Energy =   266.8905425524 hartrees
 There are       30 alpha and       28 beta electrons

                       Distance Matrix (Angstroms)
             Cl(  1)   Cl(  2)   C (  3)   C (  4)   C (  5)   H (  6)
   Cl(  2)  2.679991
   C (  3)  2.374390  3.290430
   C (  4)  2.994006  2.600001  1.404791
   C (  5)  3.039441  4.178502  1.498810  2.532560
   H (  6)  2.579545  3.925690  1.087807  2.131373  2.216721
   H (  7)  3.445765  2.767960  2.169180  1.085512  3.508038  2.455467
   H (  8)  3.652316  2.721605  2.166787  1.085639  2.758447  3.086133
   H (  9)  3.228036  3.905632  2.152693  2.743529  1.092425  3.097229
   H ( 10)  3.007701  4.762323  2.153920  3.422751  1.090926  2.499234
   H ( 11)  4.074605  5.010743  2.123462  2.949801  1.099111  2.656857
             H (  7)   H (  8)   H (  9)   H ( 10)
   H (  8)  1.863101
   H (  9)  3.820121  2.591142
   H ( 10)  4.314969  3.780432  1.778394
   H ( 11)  3.847957  3.056171  1.774974  1.769764
 
 Applying Cartesian multipole field
    Component          Value
    ---------          -----
     (2,0,0)        1.00000E-11
     (0,2,0)        2.00000E-11
     (0,0,2)       -3.00000E-11
 Nucleus-field energy     =     0.0000000023 hartrees
 Requested basis set is 6-31G(d,p)
 There are 40 shells and 113 basis functions
 A cutoff of  1.0D-14 yielded    776 shell pairs
 There are      6375 function pairs
 Smallest overlap matrix eigenvalue = 5.29E-03
 Guess from superposition of atomic densities
 Warning:  Energy on first SCF cycle will be non-variational
 SAD guess density has 58.000000 electrons

 -----------------------------------------------------------------------
  General SCF calculation program by
  Eric Jon Sundstrom, Paul Horn, Yuezhi Mao, Dmitri Zuev, Alec White,
  David Stuck, Shaama M.S., Shane Yost, Joonho Lee, David Small,
  Daniel Levine, Susi Lehtola, Hugh Burton, Evgeny Epifanovsky
 -----------------------------------------------------------------------
 Exchange:     0.2000 Hartree-Fock + 0.0800 Slater + 0.7200 B88
 Correlation:  0.1900 VWN1RPA + 0.8100 LYP
 Using SG-1 standard quadrature grid
 using 12 threads for integral computing
 -------------------------------------------------------
 OpenMP Integral computing Module                
 Release: version 1.0, May 2013, Q-Chem Inc. Pittsburgh 
 -------------------------------------------------------
 -------------------------------------------------------
 OpenMP BLAS3 based DFT computing Module                
 Release: version 1.0, May 2013, Q-Chem Inc. Pittsburgh 
 -------------------------------------------------------
 A unrestricted SCF calculation will be
 performed using DIIS
 SCF converges when DIIS error is below 1.0e-06
 Alpha HF Exchange    Energy =  -7.25703035507479
 Beta HF Exchange     Energy =  -7.25703035507479
 DFT Correlation      Energy =  -2.75694101003613
 DFT Exchange         Energy = -57.30102850187877
 One-Electron (alpha) Energy = -978.00999039733460
 One-Electron (beta)  Energy = -978.00999039733460
 Total Coulomb        Energy = 725.19954563576232
 ---------------------------------------
  Cycle       Energy         DIIS error
 ---------------------------------------
    1   -1038.5019228263      2.55e-02  
 Alpha HF Exchange    Energy =  -7.39849402292025
 Beta HF Exchange     Energy =  -7.16621411574977
 DFT Correlation      Energy =  -2.77671388400470
 DFT Exchange         Energy = -57.83045726866697
 One-Electron (alpha) Energy = -998.59680641084947
 One-Electron (beta)  Energy = -964.33016596893788
 Total Coulomb        Energy = 733.03317074435631
    2   -1038.1751383721      2.68e-03  
 Alpha HF Exchange    Energy =  -7.35428966954257
 Beta HF Exchange     Energy =  -7.12291915665405
 DFT Correlation      Energy =  -2.75705208301726
 DFT Exchange         Energy = -57.45248304774270
 One-Electron (alpha) Energy = -995.83231632033710
 One-Electron (beta)  Energy = -961.42261668876927
 Total Coulomb        Energy = 726.87873002401670
    3   -1038.1724043873      2.77e-03  
 Alpha HF Exchange    Energy =  -7.37377702505189
 Beta HF Exchange     Energy =  -7.13706992177207
 DFT Correlation      Energy =  -2.76563745720238
 DFT Exchange         Energy = -57.60029280419158
 One-Electron (alpha) Energy = -997.10286713677124
 One-Electron (beta)  Energy = -962.29407514263153
 Total Coulomb        Energy = 729.16189334326521
    4   -1038.2212835897      7.72e-04  
 Alpha HF Exchange    Energy =  -7.37698735535840
 Beta HF Exchange     Energy =  -7.14004135359215
 DFT Correlation      Energy =  -2.76615852028622
 DFT Exchange         Energy = -57.62208091138555
 One-Electron (alpha) Energy = -997.33708199760065
 One-Electron (beta)  Energy = -962.56014695604574
 Total Coulomb        Energy = 729.68593181757024
    5   -1038.2260227220      3.18e-04  
 Alpha HF Exchange    Energy =  -7.37763037827072
 Beta HF Exchange     Energy =  -7.13992162501322
 DFT Correlation      Energy =  -2.76602119144328
 DFT Exchange         Energy = -57.62345687499388
 One-Electron (alpha) Energy = -997.36221952589199
 One-Electron (beta)  Energy = -962.51306911388406
 Total Coulomb        Energy = 729.66484248230643
    6   -1038.2269336725      9.18e-05  
 Alpha HF Exchange    Energy =  -7.37718834135520
 Beta HF Exchange     Energy =  -7.13924954724665
 DFT Correlation      Energy =  -2.76593802342057
 DFT Exchange         Energy = -57.61939745810924
 One-Electron (alpha) Energy = -997.33623871762427
 One-Electron (beta)  Energy = -962.46295349529146
 Total Coulomb        Energy = 729.58341129301334
    7   -1038.2270117353      3.83e-05  
 Alpha HF Exchange    Energy =  -7.37730673233918
 Beta HF Exchange     Energy =  -7.13936395792294
 DFT Correlation      Energy =  -2.76587961690573
 DFT Exchange         Energy = -57.61974205847513
 One-Electron (alpha) Energy = -997.34131631584739
 One-Electron (beta)  Energy = -962.46311693902669
 Total Coulomb        Energy = 729.58915196546116
    8   -1038.2270311004      1.67e-05  
 Alpha HF Exchange    Energy =  -7.37741663143946
 Beta HF Exchange     Energy =  -7.13942459072468
 DFT Correlation      Energy =  -2.76587991405376
 DFT Exchange         Energy = -57.62028254585911
 One-Electron (alpha) Energy = -997.34926217483530
 One-Electron (beta)  Energy = -962.46470014001216
 Total Coulomb        Energy = 729.59938335949130
    9   -1038.2270400827      7.14e-06  
 Alpha HF Exchange    Energy =  -7.37739137429172
 Beta HF Exchange     Energy =  -7.13944240893316
 DFT Correlation      Energy =  -2.76584817082369
 DFT Exchange         Energy = -57.62007556620734
 One-Electron (alpha) Energy = -997.34479146244644
 One-Electron (beta)  Energy = -962.46107430112602
 Total Coulomb        Energy = 729.59103778397537
   10   -1038.2270429451      3.04e-06  
 Alpha HF Exchange    Energy =  -7.37740453502535
 Beta HF Exchange     Energy =  -7.13948520056335
 DFT Correlation      Energy =  -2.76584536165771
 DFT Exchange         Energy = -57.62023170390007
 One-Electron (alpha) Energy = -997.34553376649683
 One-Electron (beta)  Energy = -962.46356211762156
 Total Coulomb        Energy = 729.59447680281744
   11   -1038.2270433277      1.08e-06  
 Alpha HF Exchange    Energy =  -7.37740071789887
 Beta HF Exchange     Energy =  -7.13949020117678
 DFT Correlation      Energy =  -2.76584410737975
 DFT Exchange         Energy = -57.62022807882680
 One-Electron (alpha) Energy = -997.34493178427192
 One-Electron (beta)  Energy = -962.46378719516656
 Total Coulomb        Energy = 729.59409618225379
   12   -1038.2270433478      6.15e-07  Convergence criterion met
 ---------------------------------------
 SCF time:   CPU 30.72s  wall 3.00s 
<S^2> =          2.006389927
 Alpha HF Exchange    Energy =  -7.37740071789887
 Beta HF Exchange     Energy =  -7.13949020117678
 DFT Correlation      Energy =  -2.76584410737975
 DFT Exchange         Energy = -57.62022807882680
 One-Electron (alpha) Energy = -997.34493178427192
 One-Electron (beta)  Energy = -962.46378719516656
 Total Coulomb        Energy = 729.59409618225379
 Nuclear repulsion Energy = 266.89054255470290
 SCF   energy in the final basis set =    -1038.2270433478
 Total energy in the final basis set =    -1038.2270433478
 
 --------------------------------------------------------------
 
                    Orbital Energies (a.u.)
 --------------------------------------------------------------
 
 Alpha MOs
 -- Occupied --
*******-101.528 -10.274 -10.255 -10.215  -9.454  -9.441  -7.217
 -7.214  -7.209  -7.206  -7.198  -7.194  -0.851  -0.799  -0.775
 -0.727  -0.607  -0.511  -0.467  -0.457  -0.409  -0.398  -0.387
 -0.362  -0.317  -0.309  -0.287  -0.274  -0.251
 -- Virtual --
 -0.042   0.080   0.106   0.114   0.150   0.154   0.155   0.236
  0.282   0.355   0.397   0.419   0.438   0.457   0.483   0.501
  0.510   0.521   0.538   0.561   0.577   0.650   0.658   0.685
  0.700   0.717   0.774   0.821   0.829   0.845   0.852   0.860
  0.877   0.879   0.885   0.894   0.908   0.909   0.921   0.942
  1.052   1.142   1.174   1.266   1.290   1.344   1.432   1.455
  1.614   1.748   1.820   1.868   1.878   1.928   2.010   2.034
  2.056   2.087   2.164   2.244   2.296   2.340   2.386   2.456
  2.538   2.566   2.625   2.654   2.754   2.811   2.849   2.932
  3.158   3.233   3.379   3.393   3.420   3.556   4.194   4.254
  4.271   4.397   4.577
 
 Beta MOs
 -- Occupied --
*******-101.522 -10.271 -10.248 -10.215  -9.448  -9.436  -7.206
 -7.205  -7.203  -7.194  -7.192  -7.191  -0.834  -0.767  -0.739
 -0.714  -0.598  -0.507  -0.462  -0.448  -0.406  -0.396  -0.342
 -0.316  -0.305  -0.280  -0.275
 -- Virtual --
 -0.164  -0.159  -0.003   0.082   0.108   0.118   0.152   0.156
  0.160   0.240   0.287   0.367   0.415   0.423   0.446   0.468
  0.488   0.510   0.524   0.535   0.558   0.584   0.594   0.662
  0.669   0.700   0.713   0.734   0.781   0.828   0.834   0.853
  0.871   0.877   0.899   0.904   0.913   0.921   0.927   0.930
  0.933   0.963   1.084   1.154   1.183   1.281   1.299   1.362
  1.444   1.469   1.618   1.752   1.833   1.872   1.897   1.938
  2.011   2.035   2.058   2.089   2.176   2.247   2.301   2.344
  2.396   2.466   2.547   2.576   2.631   2.656   2.756   2.812
  2.851   2.935   3.159   3.235   3.384   3.394   3.421   3.560
  4.206   4.269   4.286   4.404   4.584
 --------------------------------------------------------------
 
          Ground-State Mulliken Net Atomic Charges

     Atom                 Charge (a.u.)    Spin (a.u.)
  --------------------------------------------------------
      1 Cl                   -0.166607       0.676327
      2 Cl                   -0.211291       0.708046
      3 C                    -0.062381       0.167384
      4 C                    -0.154242       0.490037
      5 C                    -0.329012      -0.007928
      6 H                     0.166247      -0.005364
      7 H                     0.165244      -0.021169
      8 H                     0.160998      -0.019631
      9 H                     0.149068       0.000560
     10 H                     0.146207       0.005976
     11 H                     0.135771       0.005762
  --------------------------------------------------------
  Sum of atomic charges =    -0.000000
  Sum of spin   charges =     2.000000

 -----------------------------------------------------------------
                    Cartesian Multipole Moments
 -----------------------------------------------------------------
    Charge (ESU x 10^10)
                 0.0000
    Dipole Moment (Debye)
         X      -1.4437      Y      -3.8167      Z      -2.9800
       Tot       5.0529
    Quadrupole Moments (Debye-Ang)
        XX     -43.4623     XY      -1.1212     YY     -47.9181
        XZ       0.2022     YZ      -2.6103     ZZ     -46.3490
    Octopole Moments (Debye-Ang^2)
       XXX       1.0603    XXY     -21.6260    XYY      -0.6545
       YYY     -77.9262    XXZ     -19.4562    XYZ       1.4565
       YYZ     -20.6358    XZZ       2.5723    YZZ     -20.7471
       ZZZ     -60.2877
    Hexadecapole Moments (Debye-Ang^3)
      XXXX    -119.1381   XXXY     -32.6223   XXYY    -134.2373
      XYYY     -31.8691   YYYY    -691.8680   XXXZ      -5.4356
      XXYZ     -17.1200   XYYZ      -1.4577   YYYZ     -49.0481
      XXZZ     -86.3482   XYZZ      -9.4022   YYZZ    -171.9600
      XZZZ      -4.9242   YZZZ     -45.3714   ZZZZ    -390.0547
 -----------------------------------------------------------------
 Calculating analytic gradient of the SCF energy
 Gradient of SCF Energy
            1           2           3           4           5           6
    1  -0.0007880  -0.0013870   0.0013781   0.0023119   0.0001490  -0.0012719
    2  -0.0010956  -0.0025667  -0.0010658   0.0037238  -0.0000514  -0.0003408
    3  -0.0020260  -0.0020745   0.0029424   0.0007679  -0.0001241   0.0005583
            7           8           9          10          11
    1  -0.0023519   0.0021154  -0.0000348  -0.0001115  -0.0000091
    2   0.0014020  -0.0000408  -0.0000010  -0.0000029   0.0000393
    3   0.0004505  -0.0004857   0.0000471  -0.0000400  -0.0000159
 Max gradient component =       3.724E-03
 RMS gradient           =       1.401E-03
 Gradient time:  CPU 9.40 s  wall 0.79 s
 Geometry Optimization Parameters
   NAtoms,    NIC,     NZ,  NCons,   NDum,   NFix, NCnnct, MaxDiis
       11     113       0       1       0       0       0       0

 Cartesian Hessian Update
 Hessian Updated using BFGS Update


** CONSTRAINED OPTIMIZATION IN DELOCALIZED INTERNAL COORDINATES **
   Searching for a Minimum

   Optimization Cycle:   3

                       Coordinates (Angstroms)
     ATOM                X               Y               Z
      1  Cl       -0.1336328962    0.4036507740    1.9001521795
      2  Cl        0.4702751600    2.3465097636    0.1557477935
      3  C        -0.7023460626   -0.7159387369   -0.1149936181
      4  C        -0.6507618634    0.3329936046   -1.0480094823
      5  C         0.3116933787   -1.8196027274   -0.1239602769
      6  H        -1.6724827266   -0.9385101794    0.3238918917
      7  H        -1.5114370585    0.9753460861   -1.2059890749
      8  H         0.1832285120    0.4133721328   -1.7383796540
      9  H         1.3156468697   -1.4366220490   -0.3209283309
     10  H         0.3175435480   -2.3668174926    0.8197775969
     11  H         0.0525611389   -2.5289831758   -0.9225060246
   Point Group: c1    Number of degrees of freedom:    27


   Energy is  -1038.227043348

              Constraints and their Current Values
                                        Value     Constraint
   Distance(Angs):        2   4             2.600001     2.600000
 Hessian Updated using BFGS Update

   Using Lagrange Multiplier Algorithm


 28 Hessian modes will be used to form the next step
  Hessian Eigenvalues:
    -0.990781    0.039187    0.045020    0.046410    0.052248    0.055848
     0.060631    0.071491    0.073878    0.077615    0.082067    0.082182
     0.084911    0.087524    0.112942    0.135551    0.159969    0.160000
     0.160041    0.302228    0.313121    0.324860    0.337868    0.345356
     0.347105    0.350275    0.420663    1.013653

 Minimum Search - Taking P-RFO Step
 Searching for Lamda that Maximizes Along the Constraint modes Only
 Value Taken    Lamda =   0.00000002
 Searching for Lamda that Minimizes Along All other modes
 Value Taken    Lamda =  -0.00017930
 Step Taken.  Stepsize is  0.055772

                             Maximum     Tolerance    Cnvgd?
         Gradient            0.002490       0.000300      NO
         Displacement        0.036864       0.001200      NO
         Energy change     -0.000142       0.000001      NO


 New Cartesian Coordinates Obtained by Inverse Iteration

 Displacement from previous Coordinates is:  0.040449
 ----------------------------------------------------------------
             Standard Nuclear Orientation (Angstroms)
    I     Atom           X                Y                Z
 ----------------------------------------------------------------
    1      Cl     -0.1300270340     0.4118846809     1.9135831439
    2      Cl      0.4674986340     2.3432279204     0.1597652680
    3      C      -0.7026285167    -0.7149523592    -0.1185506487
    4      C      -0.6509575157     0.3307517278    -1.0481237859
    5      C       0.3108261108    -1.8190964623    -0.1258158687
    6      H      -1.6699117031    -0.9361631573     0.3202121533
    7      H      -1.5060131344     0.9703563444    -1.2097210890
    8      H       0.1777021257     0.4112876455    -1.7384591304
    9      H       1.3151314062    -1.4369354594    -0.3229312337
   10      H       0.3167454102    -2.3655072247     0.8184815834
   11      H       0.0519222170    -2.5294556560    -0.9236373921
 ----------------------------------------------------------------
 Nuclear Repulsion Energy =   266.6989293868 hartrees
 There are       30 alpha and       28 beta electrons

                       Distance Matrix (Angstroms)
             Cl(  1)   Cl(  2)   C (  3)   C (  4)   C (  5)   H (  6)
   Cl(  2)  2.676378
   C (  3)  2.393157  3.286202
   C (  4)  3.008265  2.600000  1.400098
   C (  5)  3.054632  4.175051  1.498759  2.529333
   H (  6)  2.593706  3.917738  1.084935  2.125014  2.214009
   H (  7)  3.458361  2.766770  2.162486  1.079967  3.500972  2.449975
   H (  8)  3.664984  2.723900  2.160440  1.081539  2.755531  3.076919
   H (  9)  3.241699  3.903987  2.152762  2.741556  1.092488  3.094332
   H ( 10)  3.018735  4.756976  2.154410  3.419134  1.091008  2.497620
   H ( 11)  4.090771  5.008943  2.123660  2.947935  1.099164  2.655269
             H (  7)   H (  8)   H (  9)   H ( 10)
   H (  8)  1.851221
   H (  9)  3.813175  2.591022
   H ( 10)  4.308601  3.777283  1.778157
   H ( 11)  3.841574  3.054133  1.774865  1.769743
 
 Applying Cartesian multipole field
    Component          Value
    ---------          -----
     (2,0,0)        1.00000E-11
     (0,2,0)        2.00000E-11
     (0,0,2)       -3.00000E-11
 Nucleus-field energy     =     0.0000000022 hartrees
 Requested basis set is 6-31G(d,p)
 There are 40 shells and 113 basis functions
 A cutoff of  1.0D-14 yielded    776 shell pairs
 There are      6375 function pairs
 Smallest overlap matrix eigenvalue = 5.26E-03
 Guess from superposition of atomic densities
 Warning:  Energy on first SCF cycle will be non-variational
 SAD guess density has 58.000000 electrons

 -----------------------------------------------------------------------
  General SCF calculation program by
  Eric Jon Sundstrom, Paul Horn, Yuezhi Mao, Dmitri Zuev, Alec White,
  David Stuck, Shaama M.S., Shane Yost, Joonho Lee, David Small,
  Daniel Levine, Susi Lehtola, Hugh Burton, Evgeny Epifanovsky
 -----------------------------------------------------------------------
 Exchange:     0.2000 Hartree-Fock + 0.0800 Slater + 0.7200 B88
 Correlation:  0.1900 VWN1RPA + 0.8100 LYP
 Using SG-1 standard quadrature grid
 using 12 threads for integral computing
 -------------------------------------------------------
 OpenMP Integral computing Module                
 Release: version 1.0, May 2013, Q-Chem Inc. Pittsburgh 
 -------------------------------------------------------
 -------------------------------------------------------
 OpenMP BLAS3 based DFT computing Module                
 Release: version 1.0, May 2013, Q-Chem Inc. Pittsburgh 
 -------------------------------------------------------
 A unrestricted SCF calculation will be
 performed using DIIS
 SCF converges when DIIS error is below 1.0e-06
 Alpha HF Exchange    Energy =  -7.25785143806983
 Beta HF Exchange     Energy =  -7.25785143806983
 DFT Correlation      Energy =  -2.75696987335905
 DFT Exchange         Energy = -57.30294464770749
 One-Electron (alpha) Energy = -977.80895438256925
 One-Electron (beta)  Energy = -977.80895438256925
 Total Coulomb        Energy = 724.98625480562919
 ---------------------------------------
  Cycle       Energy         DIIS error
 ---------------------------------------
    1   -1038.5083419677      2.56e-02  
 Alpha HF Exchange    Energy =  -7.39933532810836
 Beta HF Exchange     Energy =  -7.16667175042910
 DFT Correlation      Energy =  -2.77689145586173
 DFT Exchange         Energy = -57.83561345766050
 One-Electron (alpha) Energy = -998.41363728481508
 One-Electron (beta)  Energy = -964.14806548834542
 Total Coulomb        Energy = 732.86588039447804
    2   -1038.1754049817      2.68e-03  
 Alpha HF Exchange    Energy =  -7.35491255567228
 Beta HF Exchange     Energy =  -7.12307164620857
 DFT Correlation      Energy =  -2.75715999143300
 DFT Exchange         Energy = -57.45544973168661
 One-Electron (alpha) Energy = -995.63271761470332
 One-Electron (beta)  Energy = -961.21539091669933
 Total Coulomb        Energy = 726.66587824714441
    3   -1038.1738948202      2.75e-03  
 Alpha HF Exchange    Energy =  -7.37455651010573
 Beta HF Exchange     Energy =  -7.13740205842865
 DFT Correlation      Energy =  -2.76582932762298
 DFT Exchange         Energy = -57.60478276839331
 One-Electron (alpha) Energy = -996.92141927548721
 One-Electron (beta)  Energy = -962.10655099773680
 Total Coulomb        Energy = 728.98970922614762
    4   -1038.2219023226      7.38e-04  
 Alpha HF Exchange    Energy =  -7.37771843887104
 Beta HF Exchange     Energy =  -7.14032407006767
 DFT Correlation      Energy =  -2.76630287429405
 DFT Exchange         Energy = -57.62606070336699
 One-Electron (alpha) Energy = -997.14862466077682
 One-Electron (beta)  Energy = -962.36437994455775
 Total Coulomb        Energy = 729.49836784311162
    5   -1038.2261134598      3.22e-04  
 Alpha HF Exchange    Energy =  -7.37832787809667
 Beta HF Exchange     Energy =  -7.14018655768357
 DFT Correlation      Energy =  -2.76617278786526
 DFT Exchange         Energy = -57.62728367321139
 One-Electron (alpha) Energy = -997.17298862533323
 One-Electron (beta)  Energy = -962.31670857102756
 Total Coulomb        Energy = 729.47569468406971
    6   -1038.2270440201      9.56e-05  
 Alpha HF Exchange    Energy =  -7.37788556729127
 Beta HF Exchange     Energy =  -7.13948896327290
 DFT Correlation      Energy =  -2.76609628421841
 DFT Exchange         Energy = -57.62319576968568
 One-Electron (alpha) Energy = -997.14729000741727
 One-Electron (beta)  Energy = -962.26603329313718
 Total Coulomb        Energy = 729.39393405967360
    7   -1038.2271264363      3.85e-05  
 Alpha HF Exchange    Energy =  -7.37799607810914
 Beta HF Exchange     Energy =  -7.13959142859824
 DFT Correlation      Energy =  -2.76603997153221
 DFT Exchange         Energy = -57.62348113639973
 One-Electron (alpha) Energy = -997.15223777293761
 One-Electron (beta)  Energy = -962.26553191035794
 Total Coulomb        Energy = 729.39880392013754
    8   -1038.2271449888      1.58e-05  
 Alpha HF Exchange    Energy =  -7.37810437353743
 Beta HF Exchange     Energy =  -7.13964204855511
 DFT Correlation      Energy =  -2.76604245307586
 DFT Exchange         Energy = -57.62399606857571
 One-Electron (alpha) Energy = -997.16030974076375
 One-Electron (beta)  Energy = -962.26682277009138
 Total Coulomb        Energy = 729.40883509160301
    9   -1038.2271529740      6.85e-06  
 Alpha HF Exchange    Energy =  -7.37808197604391
 Beta HF Exchange     Energy =  -7.13965524119936
 DFT Correlation      Energy =  -2.76601345908007
 DFT Exchange         Energy = -57.62379685704811
 One-Electron (alpha) Energy = -997.15634256963438
 One-Electron (beta)  Energy = -962.26313251021486
 Total Coulomb        Energy = 729.40093747900198
   10   -1038.2271557452      3.04e-06  
 Alpha HF Exchange    Energy =  -7.37809501956981
 Beta HF Exchange     Energy =  -7.13969742541233
 DFT Correlation      Energy =  -2.76601052117324
 DFT Exchange         Energy = -57.62394872250921
 One-Electron (alpha) Energy = -997.15709615286301
 One-Electron (beta)  Energy = -962.26550797894708
 Total Coulomb        Energy = 729.40427025751956
   11   -1038.2271561739      1.09e-06  
 Alpha HF Exchange    Energy =  -7.37809109728917
 Beta HF Exchange     Energy =  -7.13970317571510
 DFT Correlation      Energy =  -2.76600912812258
 DFT Exchange         Energy = -57.62394617300961
 One-Electron (alpha) Energy = -997.15648228648274
 One-Electron (beta)  Energy = -962.26575014091543
 Total Coulomb        Energy = 729.40389641506454
   12   -1038.2271561975      6.19e-07  Convergence criterion met
 ---------------------------------------
 SCF time:   CPU 31.53s  wall 2.00s 
<S^2> =          2.006167022
 Alpha HF Exchange    Energy =  -7.37809109728917
 Beta HF Exchange     Energy =  -7.13970317571510
 DFT Correlation      Energy =  -2.76600912812258
 DFT Exchange         Energy = -57.62394617300961
 One-Electron (alpha) Energy = -997.15648228648274
 One-Electron (beta)  Energy = -962.26575014091543
 Total Coulomb        Energy = 729.40389641506454
 Nuclear repulsion Energy = 266.69892938901421
 SCF   energy in the final basis set =    -1038.2271561975
 Total energy in the final basis set =    -1038.2271561975
 
 --------------------------------------------------------------
 
                    Orbital Energies (a.u.)
 --------------------------------------------------------------
 
 Alpha MOs
 -- Occupied --
*******-101.528 -10.273 -10.254 -10.215  -9.453  -9.441  -7.217
 -7.213  -7.209  -7.206  -7.198  -7.194  -0.851  -0.800  -0.775
 -0.727  -0.608  -0.513  -0.468  -0.457  -0.409  -0.398  -0.387
 -0.362  -0.317  -0.309  -0.287  -0.273  -0.252
 -- Virtual --
 -0.042   0.080   0.107   0.114   0.150   0.154   0.156   0.237
  0.283   0.356   0.397   0.418   0.438   0.458   0.483   0.501
  0.510   0.521   0.538   0.561   0.578   0.649   0.658   0.684
  0.701   0.718   0.775   0.822   0.829   0.846   0.852   0.860
  0.878   0.879   0.886   0.895   0.908   0.909   0.921   0.941
  1.053   1.140   1.172   1.267   1.288   1.343   1.429   1.452
  1.613   1.749   1.820   1.870   1.880   1.931   2.011   2.038
  2.055   2.087   2.167   2.244   2.298   2.341   2.390   2.458
  2.541   2.570   2.629   2.656   2.761   2.815   2.851   2.941
  3.158   3.240   3.386   3.394   3.421   3.568   4.193   4.255
  4.271   4.396   4.576
 
 Beta MOs
 -- Occupied --
*******-101.523 -10.270 -10.247 -10.215  -9.448  -9.436  -7.205
 -7.204  -7.203  -7.194  -7.192  -7.191  -0.835  -0.767  -0.739
 -0.715  -0.600  -0.508  -0.463  -0.448  -0.406  -0.396  -0.341
 -0.316  -0.305  -0.280  -0.275
 -- Virtual --
 -0.164  -0.161  -0.003   0.083   0.109   0.118   0.152   0.156
  0.160   0.240   0.289   0.367   0.415   0.423   0.445   0.469
  0.488   0.510   0.525   0.536   0.558   0.584   0.595   0.661
  0.669   0.699   0.714   0.734   0.782   0.829   0.834   0.853
  0.873   0.878   0.899   0.904   0.914   0.921   0.927   0.930
  0.934   0.961   1.085   1.152   1.181   1.281   1.298   1.360
  1.439   1.467   1.617   1.753   1.833   1.875   1.900   1.941
  2.012   2.039   2.058   2.089   2.179   2.247   2.303   2.345
  2.400   2.467   2.549   2.579   2.635   2.659   2.763   2.816
  2.853   2.943   3.159   3.242   3.390   3.397   3.421   3.572
  4.204   4.270   4.286   4.403   4.584
 --------------------------------------------------------------
 
          Ground-State Mulliken Net Atomic Charges

     Atom                 Charge (a.u.)    Spin (a.u.)
  --------------------------------------------------------
      1 Cl                   -0.170275       0.681015
      2 Cl                   -0.211213       0.707847
      3 C                    -0.057503       0.176702
      4 C                    -0.154114       0.474789
      5 C                    -0.330469      -0.008458
      6 H                     0.165469      -0.005846
      7 H                     0.165524      -0.020376
      8 H                     0.161028      -0.018871
      9 H                     0.149134       0.000688
     10 H                     0.146479       0.006155
     11 H                     0.135939       0.006355
  --------------------------------------------------------
  Sum of atomic charges =     0.000000
  Sum of spin   charges =     2.000000

 -----------------------------------------------------------------
                    Cartesian Multipole Moments
 -----------------------------------------------------------------
    Charge (ESU x 10^10)
                 0.0000
    Dipole Moment (Debye)
         X      -1.4467      Y      -3.8219      Z      -3.0254
       Tot       5.0846
    Quadrupole Moments (Debye-Ang)
        XX     -43.4580     XY      -1.1025     YY     -47.8790
        XZ       0.2330     YZ      -2.6194     ZZ     -46.3803
    Octopole Moments (Debye-Ang^2)
       XXX       1.0503    XXY     -21.6880    XYY      -0.6117
       YYY     -78.0421    XXZ     -19.6866    XYZ       1.4769
       YYZ     -20.8086    XZZ       2.5059    YZZ     -20.8865
       ZZZ     -61.1542
    Hexadecapole Moments (Debye-Ang^3)
      XXXX    -118.7006   XXXY     -32.3211   XXYY    -133.9935
      XYYY     -31.5229   YYYY    -690.6046   XXXZ      -5.6779
      XXYZ     -17.5178   XYYZ      -1.4586   YYYZ     -50.0988
      XXZZ     -86.9571   XYZZ      -9.3182   YYZZ    -172.5027
      XZZZ      -5.1239   YZZZ     -46.9603   ZZZZ    -394.3865
 -----------------------------------------------------------------
 Calculating analytic gradient of the SCF energy
 Gradient of SCF Energy
            1           2           3           4           5           6
    1  -0.0005527  -0.0011751   0.0001025   0.0008477  -0.0001082   0.0003606
    2  -0.0006257  -0.0023052   0.0014663   0.0028305  -0.0003064  -0.0001275
    3  -0.0017137  -0.0015167   0.0021310   0.0004380  -0.0004493  -0.0007031
            7           8           9          10          11
    1   0.0009968  -0.0004563  -0.0000132  -0.0000503   0.0000482
    2  -0.0008218  -0.0000916   0.0000150  -0.0000522   0.0000187
    3   0.0006076   0.0011589   0.0000784  -0.0000107  -0.0000203
 Max gradient component =       2.830E-03
 RMS gradient           =       9.972E-04
 Gradient time:  CPU 9.02 s  wall 0.76 s
 Geometry Optimization Parameters
   NAtoms,    NIC,     NZ,  NCons,   NDum,   NFix, NCnnct, MaxDiis
       11     113       0       1       0       0       0       0

 Cartesian Hessian Update
 Hessian Updated using BFGS Update


** CONSTRAINED OPTIMIZATION IN DELOCALIZED INTERNAL COORDINATES **
   Searching for a Minimum

   Optimization Cycle:   4

                       Coordinates (Angstroms)
     ATOM                X               Y               Z
      1  Cl       -0.1300270340    0.4118846809    1.9135831439
      2  Cl        0.4674986340    2.3432279204    0.1597652680
      3  C        -0.7026285167   -0.7149523592   -0.1185506487
      4  C        -0.6509575157    0.3307517278   -1.0481237859
      5  C         0.3108261108   -1.8190964623   -0.1258158687
      6  H        -1.6699117031   -0.9361631573    0.3202121533
      7  H        -1.5060131344    0.9703563444   -1.2097210890
      8  H         0.1777021257    0.4112876455   -1.7384591304
      9  H         1.3151314062   -1.4369354594   -0.3229312337
     10  H         0.3167454102   -2.3655072247    0.8184815834
     11  H         0.0519222170   -2.5294556560   -0.9236373921
   Point Group: c1    Number of degrees of freedom:    27


   Energy is  -1038.227156197

              Constraints and their Current Values
                                        Value     Constraint
   Distance(Angs):        2   4             2.600000     2.600000
 Hessian Updated using BFGS Update

 26 Hessian modes will be used to form the next step
  Hessian Eigenvalues:
     0.022939    0.045020    0.046302    0.051961    0.055742    0.057966
     0.071852    0.071976    0.078145    0.081066    0.082125    0.084916
     0.087266    0.109973    0.135401    0.159993    0.160031    0.160079
     0.302140    0.313168    0.325027    0.337877    0.345365    0.347112
     0.387366    0.543548

 Minimum Search - Taking Simple RFO Step
 Searching for Lamda that Minimizes Along All modes
 Value Taken    Lamda =  -0.00007180
 Step Taken.  Stepsize is  0.051114

                             Maximum     Tolerance    Cnvgd?
         Gradient           0.001133      0.000300      NO
         Displacement       0.034538      0.001200      NO
         Energy change     -0.000113      0.000001      NO


 New Cartesian Coordinates Obtained by Inverse Iteration

 Displacement from previous Coordinates is:  0.033325
 ----------------------------------------------------------------
             Standard Nuclear Orientation (Angstroms)
    I     Atom           X                Y                Z
 ----------------------------------------------------------------
    1      Cl     -0.1261223675     0.4175059428     1.9265448508
    2      Cl      0.4652098983     2.3404334737     0.1634172072
    3      C      -0.7031077944    -0.7157032793    -0.1224273463
    4      C      -0.6509827311     0.3297343655    -1.0495146383
    5      C       0.3104496182    -1.8191385770    -0.1269846910
    6      H      -1.6689654229    -0.9353667308     0.3187517496
    7      H      -1.5042489879     0.9692774250    -1.2137273302
    8      H       0.1752163797     0.4109498806    -1.7415963980
    9      H       1.3149166549    -1.4374883394    -0.3244599289
   10      H       0.3159892829    -2.3636895158     0.8183960820
   11      H       0.0519334699    -2.5311166452    -0.9235965569
 ----------------------------------------------------------------
 Nuclear Repulsion Energy =   266.3823098541 hartrees
 There are       30 alpha and       28 beta electrons

                       Distance Matrix (Angstroms)
             Cl(  1)   Cl(  2)   C (  3)   C (  4)   C (  5)   H (  6)
   Cl(  2)  2.675059
   C (  3)  2.411506  3.284303
   C (  4)  3.023262  2.600000  1.398266
   C (  5)  3.067598  4.172568  1.498295  2.528452
   H (  6)  2.606843  3.912761  1.084330  2.123422  2.213101
   H (  7)  3.473470  2.766833  2.161463  1.078909  3.499915  2.450162
   H (  8)  3.680504  2.726918  2.159284  1.080823  2.756547  3.075485
   H (  9)  3.253401  3.902912  2.152722  2.741084  1.092523  3.093445
   H ( 10)  3.026302  4.751846  2.153965  3.417405  1.091014  2.495956
   H ( 11)  4.104800  5.008433  2.123131  2.948629  1.099242  2.655436
             H (  7)   H (  8)   H (  9)   H ( 10)
   H (  8)  1.846884
   H (  9)  3.811957  2.593052
   H ( 10)  4.307141  3.777830  1.778152
   H ( 11)  3.841697  3.056154  1.774856  1.769829
 
 Applying Cartesian multipole field
    Component          Value
    ---------          -----
     (2,0,0)        1.00000E-11
     (0,2,0)        2.00000E-11
     (0,0,2)       -3.00000E-11
 Nucleus-field energy     =     0.0000000021 hartrees
 Requested basis set is 6-31G(d,p)
 There are 40 shells and 113 basis functions
 A cutoff of  1.0D-14 yielded    776 shell pairs
 There are      6375 function pairs
 Smallest overlap matrix eigenvalue = 5.26E-03
 Guess from superposition of atomic densities
 Warning:  Energy on first SCF cycle will be non-variational
 SAD guess density has 58.000000 electrons

 -----------------------------------------------------------------------
  General SCF calculation program by
  Eric Jon Sundstrom, Paul Horn, Yuezhi Mao, Dmitri Zuev, Alec White,
  David Stuck, Shaama M.S., Shane Yost, Joonho Lee, David Small,
  Daniel Levine, Susi Lehtola, Hugh Burton, Evgeny Epifanovsky
 -----------------------------------------------------------------------
 Exchange:     0.2000 Hartree-Fock + 0.0800 Slater + 0.7200 B88
 Correlation:  0.1900 VWN1RPA + 0.8100 LYP
 Using SG-1 standard quadrature grid
 using 12 threads for integral computing
 -------------------------------------------------------
 OpenMP Integral computing Module                
 Release: version 1.0, May 2013, Q-Chem Inc. Pittsburgh 
 -------------------------------------------------------
 -------------------------------------------------------
 OpenMP BLAS3 based DFT computing Module                
 Release: version 1.0, May 2013, Q-Chem Inc. Pittsburgh 
 -------------------------------------------------------
 A unrestricted SCF calculation will be
 performed using DIIS
 SCF converges when DIIS error is below 1.0e-06
 Alpha HF Exchange    Energy =  -7.25775923321259
 Beta HF Exchange     Energy =  -7.25775923321259
 DFT Correlation      Energy =  -2.75680088774589
 DFT Exchange         Energy = -57.30289923069021
 One-Electron (alpha) Energy = -977.48996575398019
 One-Electron (beta)  Energy = -977.48996575398019
 Total Coulomb        Energy = 724.66500319534305
 ---------------------------------------
  Cycle       Energy         DIIS error
 ---------------------------------------
    1   -1038.5078370413      2.56e-02  
 Alpha HF Exchange    Energy =  -7.39950965908322
 Beta HF Exchange     Energy =  -7.16667166013205
 DFT Correlation      Energy =  -2.77679692086266
 DFT Exchange         Energy = -57.83647189085956
 One-Electron (alpha) Energy = -998.10084663744783
 One-Electron (beta)  Energy = -963.85416763614671
 Total Coulomb        Energy = 732.57632308566531
    2   -1038.1758314627      2.67e-03  
 Alpha HF Exchange    Energy =  -7.35490683132740
 Beta HF Exchange     Energy =  -7.12264985918531
 DFT Correlation      Energy =  -2.75704899078986
 DFT Exchange         Energy = -57.45437997700287
 One-Electron (alpha) Energy = -995.30246199173928
 One-Electron (beta)  Energy = -960.88766733987893
 Total Coulomb        Energy = 726.32113054669162
    3   -1038.1756745870      2.71e-03  
 Alpha HF Exchange    Energy =  -7.37478384889877
 Beta HF Exchange     Energy =  -7.13731074705794
 DFT Correlation      Energy =  -2.76577920181039
 DFT Exchange         Energy = -57.60576566402010
 One-Electron (alpha) Energy = -996.61434672438668
 One-Electron (beta)  Energy = -961.80855322394643
 Total Coulomb        Energy = 728.70168154070643
    4   -1038.2225480132      6.97e-04  
 Alpha HF Exchange    Energy =  -7.37786395567717
 Beta HF Exchange     Energy =  -7.14015250202059
 DFT Correlation      Energy =  -2.76620041919622
 DFT Exchange         Energy = -57.62630050631238
[...]


 New Cartesian Coordinates Obtained by Inverse Iteration

 Displacement from previous Coordinates is:  0.008561
 ----------------------------------------------------------------
             Standard Nuclear Orientation (Angstroms)
    I     Atom           X                Y                Z
 ----------------------------------------------------------------
    1      Cl      0.1683008845     0.3282446488     2.8007226018
    2      Cl      0.1367752132     1.8918994488     0.5982590115
    3      C      -0.7639286142    -0.7387167669    -0.4813584338
    4      C      -0.6252285972     0.3264568387    -1.3327356004
    5      C       0.2892074811    -1.7406460135    -0.1927400736
    6      H      -1.6994787677    -0.8369982178     0.0662961584
    7      H      -1.4573677978     0.9876499794    -1.5439011472
    8      H       0.2781750440     0.4597095229    -1.9194214215
    9      H       1.1637807672    -1.6281268375    -0.8372647829
   10      H       0.6004264726    -1.6263156036     0.8564534586
   11      H      -0.1103740858    -2.7577589993    -0.2895067709
 ----------------------------------------------------------------
 Nuclear Repulsion Energy =   252.5706567188 hartrees
 There are       30 alpha and       28 beta electrons

                       Distance Matrix (Angstroms)
             Cl(  1)   Cl(  2)   C (  3)   C (  4)   C (  5)   H (  6)
   Cl(  2)  2.701269
   C (  3)  3.574845  2.982781
   C (  4)  4.208939  2.600000  1.370648
   C (  5)  3.640844  3.720793  1.481978  2.531541
   H (  6)  3.510481  3.331921  1.088503  2.113038  2.199671
   H (  7)  4.685442  2.819186  2.142475  1.083616  3.509952  2.445546
   H (  8)  4.723253  2.899979  2.142482  1.085401  2.796983  3.087983
   H (  9)  4.248920  3.937773  2.152622  2.695634  1.092223  3.104925
   H ( 10)  2.790559  3.558015  2.106902  3.179324  1.100334  2.556743
   H ( 11)  4.376139  4.740099  2.130838  3.296330  1.097063  2.518168
             H (  7)   H (  8)   H (  9)   H ( 10)
   H (  8)  1.852524
   H (  9)  3.769886  2.512851
   H ( 10)  4.102321  3.487238  1.784952
   H ( 11)  4.173246  3.627630  1.788736  1.760292
 
 Applying Cartesian multipole field
    Component          Value
    ---------          -----
     (2,0,0)        1.00000E-11
     (0,2,0)        2.00000E-11
     (0,0,2)       -3.00000E-11
 Nucleus-field energy     =    -0.0000000095 hartrees
 Requested basis set is 6-31G(d,p)
 There are 40 shells and 113 basis functions
 A cutoff of  1.0D-14 yielded    766 shell pairs
 There are      6309 function pairs
 Smallest overlap matrix eigenvalue = 5.01E-03
 Guess from superposition of atomic densities
 Warning:  Energy on first SCF cycle will be non-variational
 SAD guess density has 58.000000 electrons

 -----------------------------------------------------------------------
  General SCF calculation program by
  Eric Jon Sundstrom, Paul Horn, Yuezhi Mao, Dmitri Zuev, Alec White,
  David Stuck, Shaama M.S., Shane Yost, Joonho Lee, David Small,
  Daniel Levine, Susi Lehtola, Hugh Burton, Evgeny Epifanovsky
 -----------------------------------------------------------------------
 Exchange:     0.2000 Hartree-Fock + 0.0800 Slater + 0.7200 B88
 Correlation:  0.1900 VWN1RPA + 0.8100 LYP
 Using SG-1 standard quadrature grid
 using 12 threads for integral computing
 -------------------------------------------------------
 OpenMP Integral computing Module                
 Release: version 1.0, May 2013, Q-Chem Inc. Pittsburgh 
 -------------------------------------------------------
 -------------------------------------------------------
 OpenMP BLAS3 based DFT computing Module                
 Release: version 1.0, May 2013, Q-Chem Inc. Pittsburgh 
 -------------------------------------------------------
 A unrestricted SCF calculation will be
 performed using DIIS
 SCF converges when DIIS error is below 1.0e-06
 Alpha HF Exchange    Energy =  -7.25258305555438
 Beta HF Exchange     Energy =  -7.25258305555438
 DFT Correlation      Energy =  -2.75078195836328
 DFT Exchange         Energy = -57.29469936287657
 One-Electron (alpha) Energy = -963.66468024465905
 One-Electron (beta)  Energy = -963.66468024465905
 Total Coulomb        Energy = 710.83019330987463
 ---------------------------------------
  Cycle       Energy         DIIS error
 ---------------------------------------
    1   -1038.4791579024      2.57e-02  
 Alpha HF Exchange    Energy =  -7.40037564787293
 Beta HF Exchange     Energy =  -7.16545473836187
 DFT Correlation      Energy =  -2.77154308975831
 DFT Exchange         Energy = -57.83186958407079
 One-Electron (alpha) Energy = -984.00827622339523
 One-Electron (beta)  Energy = -950.46564035089830
 Total Coulomb        Energy = 718.90137699030174
    2   -1038.1711259347      2.77e-03  
 Alpha HF Exchange    Energy =  -7.35310781229111
 Beta HF Exchange     Energy =  -7.11571327901424
 DFT Correlation      Energy =  -2.75135934118270
 DFT Exchange         Energy = -57.43052629655505
 One-Electron (alpha) Energy = -981.06270396841967
 One-Electron (beta)  Energy = -947.45332745040992
 Total Coulomb        Energy = 712.46656108371326
    3   -1038.1295203548      3.44e-03  
 Alpha HF Exchange    Energy =  -7.37274002032606
 Beta HF Exchange     Energy =  -7.13154590442936
 DFT Correlation      Energy =  -2.75870784298283
 DFT Exchange         Energy = -57.56974189232244
 One-Electron (alpha) Energy = -982.31651270772431
 One-Electron (beta)  Energy = -947.96347472749824
 Total Coulomb        Energy = 714.33024352652967
    4   -1038.2118228594      1.44e-03  
 Alpha HF Exchange    Energy =  -7.37839365214026
 Beta HF Exchange     Energy =  -7.13627218073873
 DFT Correlation      Energy =  -2.76051386409772
 DFT Exchange         Energy = -57.61108231939782
 One-Electron (alpha) Energy = -982.71192806783074
 One-Electron (beta)  Energy = -948.50829149499486
 Total Coulomb        Energy = 715.30375411613932
    5   -1038.2320707537      2.41e-04  
 Alpha HF Exchange    Energy =  -7.37895689377426
 Beta HF Exchange     Energy =  -7.13602947941897
 DFT Correlation      Energy =  -2.76045153941979
 DFT Exchange         Energy = -57.61124168488458
 One-Electron (alpha) Energy = -982.75179904245147
 One-Electron (beta)  Energy = -948.38240058742895
 Total Coulomb        Energy = 715.21761014181470
    6   -1038.2326123762      1.79e-04  
 Alpha HF Exchange    Energy =  -7.37912131752180
 Beta HF Exchange     Energy =  -7.13661997811434
 DFT Correlation      Energy =  -2.76021780983222
 DFT Exchange         Energy = -57.61175530811578
 One-Electron (alpha) Energy = -982.76047412903404
 One-Electron (beta)  Energy = -948.39822248598489
 Total Coulomb        Energy = 715.24282559135145
    7   -1038.2329287279      5.22e-05  
 Alpha HF Exchange    Energy =  -7.37891430947558
 Beta HF Exchange     Energy =  -7.13664109209683
 DFT Correlation      Energy =  -2.76012282976565
 DFT Exchange         Energy = -57.61014257331534
 One-Electron (alpha) Energy = -982.75120214206879
 One-Electron (beta)  Energy = -948.36077282984104
 Total Coulomb        Energy = 715.19414446357268
    8   -1038.2329946036      2.84e-05  
 Alpha HF Exchange    Energy =  -7.37910596526279
 Beta HF Exchange     Energy =  -7.13705432576850
 DFT Correlation      Energy =  -2.76010786326335
 DFT Exchange         Energy = -57.61173431449193
 One-Electron (alpha) Energy = -982.76620891626374
 One-Electron (beta)  Energy = -948.37282034435532
 Total Coulomb        Energy = 715.22336019977661
    9   -1038.2330148203      1.11e-05  
 Alpha HF Exchange    Energy =  -7.37905665095218
 Beta HF Exchange     Energy =  -7.13709964243903
 DFT Correlation      Energy =  -2.76008799461960
 DFT Exchange         Energy = -57.61156395803532
 One-Electron (alpha) Energy = -982.76182729780840
 One-Electron (beta)  Energy = -948.36898085452560
 Total Coulomb        Energy = 715.21494325311232
   10   -1038.2330164359      5.06e-06  
 Alpha HF Exchange    Energy =  -7.37903400072805
 Beta HF Exchange     Energy =  -7.13712745765504
 DFT Correlation      Energy =  -2.76008320474300
 DFT Exchange         Energy = -57.61153176063343
 One-Electron (alpha) Energy = -982.76035745469710
 One-Electron (beta)  Energy = -948.36978742540794
 Total Coulomb        Energy = 715.21424779894710
   11   -1038.2330167956      2.15e-06  
 Alpha HF Exchange    Energy =  -7.37903420326409
 Beta HF Exchange     Energy =  -7.13715082282088
 DFT Correlation      Energy =  -2.76008390795771
 DFT Exchange         Energy = -57.61160624582730
 One-Electron (alpha) Energy = -982.76050193680260
 One-Electron (beta)  Energy = -948.37119637221906
 Total Coulomb        Energy = 715.21589989569770
   12   -1038.2330168838      7.13e-07  Convergence criterion met
 ---------------------------------------
 SCF time:   CPU 29.22s  wall 3.00s 
<S^2> =          2.007056682
 Alpha HF Exchange    Energy =  -7.37903420326409
 Beta HF Exchange     Energy =  -7.13715082282088
 DFT Correlation      Energy =  -2.76008390795771
 DFT Exchange         Energy = -57.61160624582730
 One-Electron (alpha) Energy = -982.76050193680260
 One-Electron (beta)  Energy = -948.37119637221906
 Total Coulomb        Energy = 715.21589989569770
 Nuclear repulsion Energy = 252.57065670935648
 SCF   energy in the final basis set =    -1038.2330168838
 Total energy in the final basis set =    -1038.2330168838
 
 --------------------------------------------------------------
 
                    Orbital Energies (a.u.)
 --------------------------------------------------------------
 
 Alpha MOs
 -- Occupied --
*******-101.518 -10.268 -10.258 -10.215  -9.466  -9.431  -7.232
 -7.226  -7.219  -7.201  -7.185  -7.184  -0.850  -0.810  -0.766
 -0.732  -0.609  -0.518  -0.473  -0.453  -0.414  -0.399  -0.379
 -0.371  -0.321  -0.294  -0.282  -0.278  -0.272
 -- Virtual --
 -0.049   0.080   0.098   0.118   0.144   0.151   0.158   0.243
  0.312   0.352   0.404   0.415   0.425   0.434   0.480   0.491
  0.517   0.527   0.542   0.570   0.578   0.606   0.633   0.687
  0.714   0.745   0.770   0.822   0.829   0.841   0.857   0.866
  0.868   0.876   0.881   0.885   0.889   0.902   0.910   0.990
  1.013   1.054   1.157   1.213   1.253   1.296   1.347   1.431
  1.580   1.768   1.786   1.835   1.880   1.961   2.006   2.047
  2.058   2.072   2.125   2.255   2.322   2.333   2.434   2.442
  2.484   2.591   2.610   2.649   2.774   2.826   2.831   2.939
  3.152   3.227   3.375   3.397   3.430   3.584   4.151   4.249
  4.265   4.375   4.545
 
 Beta MOs
 -- Occupied --
*******-101.513 -10.263 -10.256 -10.215  -9.460  -9.426  -7.218
 -7.216  -7.215  -7.184  -7.181  -7.181  -0.836  -0.769  -0.732
 -0.720  -0.602  -0.515  -0.470  -0.442  -0.411  -0.397  -0.329
 -0.319  -0.307  -0.275  -0.269
 -- Virtual --
 -0.186  -0.158  -0.020   0.082   0.100   0.120   0.147   0.155
  0.161   0.246   0.316   0.364   0.418   0.424   0.439   0.441
  0.486   0.505   0.529   0.546   0.556   0.586   0.597   0.615
  0.642   0.699   0.727   0.767   0.775   0.827   0.842   0.849
  0.872   0.893   0.895   0.903   0.904   0.910   0.919   0.930
  0.932   1.005   1.032   1.083   1.161   1.227   1.263   1.303
  1.361   1.438   1.582   1.775   1.792   1.843   1.892   1.968
  2.008   2.050   2.061   2.076   2.134   2.258   2.325   2.337
  2.439   2.450   2.492   2.599   2.614   2.653   2.776   2.828
  2.835   2.941   3.154   3.229   3.378   3.400   3.431   3.586
  4.162   4.265   4.281   4.379   4.550
 --------------------------------------------------------------
 
          Ground-State Mulliken Net Atomic Charges

     Atom                 Charge (a.u.)    Spin (a.u.)
  --------------------------------------------------------
      1 Cl                   -0.244793       0.730608
      2 Cl                   -0.146532       0.805134
      3 C                     0.041799       0.347084
      4 C                    -0.214130       0.125355
      5 C                    -0.367281      -0.019668
      6 H                     0.150696      -0.015281
      7 H                     0.164227      -0.004483
      8 H                     0.155533      -0.005388
      9 H                     0.129535       0.000351
     10 H                     0.191293       0.021394
     11 H                     0.139653       0.014894
  --------------------------------------------------------
  Sum of atomic charges =    -0.000000
  Sum of spin   charges =     2.000000

 -----------------------------------------------------------------
                    Cartesian Multipole Moments
 -----------------------------------------------------------------
    Charge (ESU x 10^10)
                -0.0000
    Dipole Moment (Debye)
         X      -1.2390      Y      -2.7714      Z      -4.8003
       Tot       5.6797
    Quadrupole Moments (Debye-Ang)
        XX     -43.4342     XY      -0.3935     YY     -44.4635
        XZ      -0.0622     YZ      -3.4561     ZZ     -51.4644
    Octopole Moments (Debye-Ang^2)
       XXX       2.9877    XXY     -14.7569    XYY       1.8149
       YYY     -49.9586    XXZ     -34.6602    XYZ       1.6446
       YYZ     -32.7597    XZZ       1.8785    YZZ     -16.8792
       ZZZ    -117.9512
    Hexadecapole Moments (Debye-Ang^3)
      XXXX    -106.0345   XXXY      -5.3391   XXYY    -101.8369
      XYYY      -0.5674   YYYY    -492.5721   XXXZ     -41.2329
      XXYZ     -29.8303   XYYZ     -11.0018   YYYZ     -78.9865
      XXZZ    -150.7609   XYZZ      -4.5080   YYZZ    -213.8642
      XZZZ     -44.3875   YZZZ    -104.3469   ZZZZ    -822.7059
 -----------------------------------------------------------------
 Calculating analytic gradient of the SCF energy
 Gradient of SCF Energy
            1           2           3           4           5           6
    1   0.0000801   0.0013129  -0.0001177  -0.0012820   0.0000589   0.0000990
    2  -0.0000301   0.0026398   0.0001229  -0.0026922   0.0000734   0.0000566
    3  -0.0001078   0.0033721   0.0000039  -0.0033113  -0.0000071   0.0001052
            7           8           9          10          11
    1   0.0000499  -0.0000637  -0.0000472  -0.0000373  -0.0000529
    2   0.0000115  -0.0000664  -0.0000446  -0.0000550  -0.0000158
    3  -0.0000084  -0.0000270  -0.0000325  -0.0000045   0.0000173
 Max gradient component =       3.372E-03
 RMS gradient           =       1.101E-03
 Gradient time:  CPU 8.87 s  wall 0.74 s
 Geometry Optimization Parameters
   NAtoms,    NIC,     NZ,  NCons,   NDum,   NFix, NCnnct, MaxDiis
       11     113       0       1       0       0       0       0

 Cartesian Hessian Update
 Hessian Updated using BFGS Update


** CONSTRAINED OPTIMIZATION IN DELOCALIZED INTERNAL COORDINATES **
   Searching for a Minimum

   Optimization Cycle:  42

                       Coordinates (Angstroms)
     ATOM                X               Y               Z
      1  Cl        0.1683008845    0.3282446488    2.8007226018
      2  Cl        0.1367752132    1.8918994488    0.5982590115
      3  C        -0.7639286142   -0.7387167669   -0.4813584338
      4  C        -0.6252285972    0.3264568387   -1.3327356004
      5  C         0.2892074811   -1.7406460135   -0.1927400736
      6  H        -1.6994787677   -0.8369982178    0.0662961584
      7  H        -1.4573677978    0.9876499794   -1.5439011472
      8  H         0.2781750440    0.4597095229   -1.9194214215
      9  H         1.1637807672   -1.6281268375   -0.8372647829
     10  H         0.6004264726   -1.6263156036    0.8564534586
     11  H        -0.1103740858   -2.7577589993   -0.2895067709
   Point Group: c1    Number of degrees of freedom:    27


   Energy is  -1038.233016884

              Constraints and their Current Values
                                        Value     Constraint
   Distance(Angs):        2   4             2.600000     2.600000
 Hessian Updated using BFGS Update

 26 Hessian modes will be used to form the next step
  Hessian Eigenvalues:
     0.000675    0.002696    0.004203    0.007345    0.012406    0.015213
     0.026584    0.032369    0.063260    0.075857    0.084022    0.084403
     0.086738    0.096185    0.133448    0.160080    0.161324    0.170531
     0.301356    0.311917    0.329975    0.338696    0.345783    0.347731
     0.367461    0.485177

 Minimum Search - Taking Simple RFO Step
 Searching for Lamda that Minimizes Along All modes
 Value Taken    Lamda =  -0.00000103
 Step Taken.  Stepsize is  0.014252

                             Maximum     Tolerance    Cnvgd?
         Gradient           0.000070      0.000300     YES
         Displacement       0.010903      0.001200      NO
         Energy change     -0.000001      0.000001     YES


                       Distance Matrix (Angstroms)
             Cl(  1)   Cl(  2)   C (  3)   C (  4)   C (  5)   H (  6)
   Cl(  2)  2.701269
   C (  3)  3.574845  2.982781
   C (  4)  4.208939  2.600000  1.370648
   C (  5)  3.640844  3.720793  1.481978  2.531541
   H (  6)  3.510481  3.331921  1.088503  2.113038  2.199671
   H (  7)  4.685442  2.819186  2.142475  1.083616  3.509952  2.445546
   H (  8)  4.723253  2.899979  2.142482  1.085401  2.796983  3.087983
   H (  9)  4.248920  3.937773  2.152622  2.695634  1.092223  3.104925
   H ( 10)  2.790559  3.558015  2.106902  3.179324  1.100334  2.556743
   H ( 11)  4.376139  4.740099  2.130838  3.296330  1.097063  2.518168
             H (  7)   H (  8)   H (  9)   H ( 10)
   H (  8)  1.852524
   H (  9)  3.769886  2.512851
   H ( 10)  4.102321  3.487238  1.784952
   H ( 11)  4.173246  3.627630  1.788736  1.760292
 
 Final energy is   -1038.23301688384     


 ******************************
 **  OPTIMIZATION CONVERGED  **
 ******************************

                       Coordinates (Angstroms)
     ATOM                X               Y               Z
      1  Cl        0.1683008845    0.3282446488    2.8007226018
      2  Cl        0.1367752132    1.8918994488    0.5982590115
      3  C        -0.7639286142   -0.7387167669   -0.4813584338
      4  C        -0.6252285972    0.3264568387   -1.3327356004
      5  C         0.2892074811   -1.7406460135   -0.1927400736
      6  H        -1.6994787677   -0.8369982178    0.0662961584
      7  H        -1.4573677978    0.9876499794   -1.5439011472
      8  H         0.2781750440    0.4597095229   -1.9194214215
      9  H         1.1637807672   -1.6281268375   -0.8372647829
     10  H         0.6004264726   -1.6263156036    0.8564534586
     11  H        -0.1103740858   -2.7577589993   -0.2895067709

Z-matrix Print:
$molecule
0 3
Cl
C  1 2.600000
H  2 1.083616 1 90.138142
H  2 1.085401 1 94.794872 3 117.434671 0
C  2 1.370648 1 92.076941 3 -121.194778 0
H  5 1.088503 2 118.012096 1 84.508663 0
C  5 1.481978 2 125.061770 1 -92.335283 0
H  7 1.092223 5 112.609472 2 -7.886604 0
H  7 1.097063 5 110.536025 2 -130.818701 0
H  7 1.100334 5 108.448208 2 112.818463 0
Cl 1 2.701269 2 105.096237 3 122.617586 0
$end

PES scan, value:    2.6000 energy: -1038.2330168838
------- Summary of potential scan: ------ 
    2.6000     -1038.2330168838
----------------------------------------- 
Archival summary:
1\1\hpc0332\JobtypUnspecified\ProcedureUnspecified\6-31G**\l236(3)\knomura\TueMar1201:13:392019TueMar1201:13:392019\0\\#,JobtypUnspecified,ProcedureUnspecified,6-31G**,\\0,3\Cl\C,1,2.6\H,2,1.08362,1,90.1381\H,2,1.0854,1,94.7949,3,117.435,0\C,2,1.37065,1,92.0769,3,-121.195,0\H,5,1.0885,2,118.012,1,84.5087,0\C,5,1.48198,2,125.062,1,-92.3353,0\H,7,1.09222,5,112.609,2,-7.8866,0\H,7,1.09706,5,110.536,2,-130.819,0\H,7,1.10033,5,108.448,2,112.818,0\Cl,1,2.70127,2,105.096,3,122.618,0\\\@

 Total job time:  155.90s(wall), 1824.00s(cpu) 
 Tue Mar 12 01:13:39 2019

        *************************************************************
        *                                                           *
        *  Thank you very much for using Q-Chem.  Have a nice day.  *
        *                                                           *
        *************************************************************


