
Running Job 1 of 1 ruruma/CH3CHClCH2Cl_afterGeo_edge_singlet.xyz.data/inputs/bond_singlet_0.9.in
qchem ruruma/CH3CHClCH2Cl_afterGeo_edge_singlet.xyz.data/inputs/bond_singlet_0.9.in_20848.0 /staging/scratch/2858534/qchem20848/ 1
/usr/usc/qchem/5.1.1/exe/qcprog.exe_s ruruma/CH3CHClCH2Cl_afterGeo_edge_singlet.xyz.data/inputs/bond_singlet_0.9.in_20848.0 /staging/scratch/2858534/qchem20848/
Check license passed

                  Welcome to Q-Chem
     A Quantum Leap Into The Future Of Chemistry


 Q-Chem 5.1, Q-Chem, Inc., Pleasanton, CA (2018)

 Yihan Shao,  Zhengting Gan,  E. Epifanovsky,  A. T. B. Gilbert,  M. Wormit,  
 J. Kussmann,  A. W. Lange,  A. Behn,  Jia Deng,  Xintian Feng,  D. Ghosh,  
 M. Goldey,  P. R. Horn,  L. D. Jacobson,  I. Kaliman,  T. Kus,  A. Landau,  
 Jie Liu,  E. I. Proynov,  R. M. Richard,  R. P. Steele,  E. J. Sundstrom,  
 H. L. Woodcock III,  P. M. Zimmerman,  D. Zuev,  B. Albrecht,  E. Alguire,  
 S. A. Baeppler,  D. Barton,  Z. Benda,  Y. A. Bernard,  E. J. Berquist,  
 K. B. Bravaya,  H. Burton,  D. Casanova,  Chun-Min Chang,  Yunqing Chen,  
 A. Chien,  K. D. Closser,  M. P. Coons,  S. Coriani,  S. Dasgupta,  
 A. L. Dempwolff,  M. Diedenhofen,  Hainam Do,  R. G. Edgar,  Po-Tung Fang,  
 S. Faraji,  S. Fatehi,  Qingguo Feng,  K. D. Fenk,  J. Fosso-Tande,  
 Qinghui Ge,  A. Ghysels,  G. Gidofalvi,  J. Gomes,  J. Gonthier,  A. Gunina,  
 D. Hait,  M. W. D. Hanson-Heine,  P. H. P. Harbach,  A. W. Hauser,  
 J. E. Herr,  E. G. Hohenstein,  Z. C. Holden,  Kerwin Hui,  B. C. Huynh,  
 T.-C. Jagau,  Hyunjun Ji,  B. Kaduk,  K. Khistyaev,  Jaehoon Kim,  
 P. Klunzinger,  K. Koh,  D. Kosenkov,  L. Koulias,  T. Kowalczyk,  
 C. M. Krauter,  A. Kunitsa,  Ka Un Lao,  A. Laurent,  K. V. Lawler,  
 Joonho Lee,  D. Lefrancois,  S. Lehtola,  D. S. Levine,  Yi-Pei Li,  
 You-Sheng Lin,  Fenglai Liu,  E. Livshits,  A. Luenser,  P. Manohar,  
 E. Mansoor,  S. F. Manzer,  Shan-Ping Mao,  Yuezhi Mao,  N. Mardirossian,  
 A. V. Marenich,  T. Markovich,  L. A. Martinez-Martinez,  S. A. Maurer,  
 N. J. Mayhall,  S. C. McKenzie,  J.-M. Mewes,  A. F. Morrison,  
 J. W. Mullinax,  K. Nanda,  T. S. Nguyen-Beck,  R. Olivares-Amaya,  
 J. A. Parkhill,  T. M. Perrine,  F. Plasser,  P. Pokhilko,  S. Prager,  
 A. Prociuk,  E. Ramos,  D. R. Rehn,  F. Rob,  M. Schneider,  N. Sergueev,  
 S. M. Sharada,  S. Sharma,  D. W. Small,  T. Stauch,  T. Stein,  
 Yu-Chuan Su,  A. J. W. Thom,  A. Tkatchenko,  T. Tsuchimochi,  N. M. Tubman,  
 L. Vogt,  M. L. Vidal,  O. Vydrov,  M. A. Watson,  J. Wenzel,  
 M. de Wergifosse,  T. A. Wesolowski,  A. White,  J. Witte,  A. Yamada,  
 Jun Yang,  K. Yao,  S. Yeganeh,  S. R. Yost,  Zhi-Qiang You,  A. Zech,  
 Igor Ying Zhang,  Xing Zhang,  Yan Zhao,  Ying Zhu,  B. R. Brooks,  
 G. K. L. Chan,  C. J. Cramer,  M. S. Gordon,  W. J. Hehre,  A. Klamt,  
 M. W. Schmidt,  C. D. Sherrill,  D. G. Truhlar,  A. Aspuru-Guzik,  R. Baer,  
 A. T. Bell,  N. A. Besley,  Jeng-Da Chai,  A. E. DePrince, III,  
 R. A. DiStasio Jr.,  A. Dreuw,  B. D. Dunietz,  T. R. Furlani,  
 Chao-Ping Hsu,  Yousung Jung,  Jing Kong,  D. S. Lambrecht,  WanZhen Liang,  
 C. Ochsenfeld,  V. A. Rassolov,  L. V. Slipchenko,  J. E. Subotnik,  
 T. Van Voorhis,  J. M. Herbert,  A. I. Krylov,  P. M. W. Gill,  M. Head-Gordon

 Contributors to earlier versions of Q-Chem not listed above: 
 R. D. Adamson,  B. Austin,  J. Baker,  G. J. O. Beran,  K. Brandhorst,  
 S. T. Brown,  E. F. C. Byrd,  A. K. Chakraborty,  C.-L. Cheng,  
 Siu Hung Chien,  D. M. Chipman,  D. L. Crittenden,  H. Dachsel,  
 R. J. Doerksen,  A. D. Dutoi,  L. Fusti-Molnar,  W. A. Goddard III,  
 A. Golubeva-Zadorozhnaya,  S. R. Gwaltney,  G. Hawkins,  A. Heyden,  
 S. Hirata,  G. Kedziora,  F. J. Keil,  C. Kelley,  Jihan Kim,  R. A. King,  
 R. Z. Khaliullin,  P. P. Korambath,  W. Kurlancheek,  A. M. Lee,  M. S. Lee,  
 S. V. Levchenko,  Ching Yeh Lin,  D. Liotard,  R. C. Lochan,  I. Lotan,  
 P. E. Maslen,  N. Nair,  D. P. O'Neill,  D. Neuhauser,  E. Neuscamman,  
 C. M. Oana,  R. Olson,  B. Peters,  R. Peverati,  P. A. Pieniazek,  
 Y. M. Rhee,  J. Ritchie,  M. A. Rohrdanz,  E. Rosta,  N. J. Russ,  
 H. F. Schaefer III,  N. E. Schultz,  N. Shenvi,  A. C. Simmonett,  A. Sodt,  
 D. Stuck,  K. S. Thanthiriwatte,  V. Vanovschi,  Tao Wang,  A. Warshel,  
 C. F. Williams,  Q. Wu,  X. Xu,  W. Zhang

 Please cite Q-Chem as follows:
 Y. Shao et al., Mol. Phys. 113, 184-215 (2015)
 DOI: 10.1080/00268976.2014.952696

 Q-Chem 5.1.1 for Intel X86 EM64T Linux

 Parts of Q-Chem use Armadillo 8.300.2 (Tropical Shenanigans).
 http://arma.sourceforge.net/

 Q-Chem begins on Mon Mar 11 23:21:51 2019  

Host: 
0

     Scratch files written to /staging/scratch/2858534/qchem20848//
 Aug318 |scratch|qcdevops|jenkins|workspace|build_RNUM 6013   
Processing $rem in /usr/usc/qchem/5.1.1/config/preferences.
 MEM_TOTAL  2000 
Input Ideriv = 2
Curr. Ideriv = -1
Max.  Ideriv = 2

Checking the input file for inconsistencies... 	...done.

--------------------------------------------------------------
User input:
--------------------------------------------------------------

$comment
potential surface scanner
$end

$rem
JOBTYPE  PES_SCAN
UNRESTRICTED TRUE
SYM_IGNORE  TRUE
GEOM_OPT_MAX_CYCLES 400
SCF_MAX_CYCLES 400
METHOD   B3LYP
BASIS   6-31G**
PDB_PRINT 2
SCF_CONVERGENCE 6
THRESH 14
SCF_PRINT 1
$end
$molecule
0 1
Cl -1.271337 1.376813 0.223864
Cl 1.954052 0.118637 0.611689
C -0.615377 -0.179542 -0.477229
C 0.860334 -0.027482 -0.823928
C -0.945393 -1.347408 0.440549
H -1.141317 -0.286818 -1.431387
H 1.187714 -0.914977 -1.371435
H 1.028018 0.858113 -1.436294
H -0.469897 -1.223340 1.415209
H -2.024892 -1.429544 0.581904
H -0.581605 -2.279052 -0.008144
$end
$scan
stre 2 4 0.900000 0.901000 0.100000
$end
--------------------------------------------------------------
 ----------------------------------------------------------------
             Standard Nuclear Orientation (Angstroms)
    I     Atom           X                Y                Z
 ----------------------------------------------------------------
    1      Cl     -1.2713370000     1.3768130000     0.2238640000
    2      Cl      1.9540520000     0.1186370000     0.6116890000
    3      C      -0.6153770000    -0.1795420000    -0.4772290000
    4      C       0.8603340000    -0.0274820000    -0.8239280000
    5      C      -0.9453930000    -1.3474080000     0.4405490000
    6      H      -1.1413170000    -0.2868180000    -1.4313870000
    7      H       1.1877140000    -0.9149770000    -1.3714350000
    8      H       1.0280180000     0.8581130000    -1.4362940000
    9      H      -0.4698970000    -1.2233400000     1.4152090000
   10      H      -2.0248920000    -1.4295440000     0.5819040000
   11      H      -0.5816050000    -2.2790520000    -0.0081440000
 ----------------------------------------------------------------
 Nuclear Repulsion Energy =   282.3913884263 hartrees
 There are       29 alpha and       29 beta electrons
 Requested basis set is 6-31G(d,p)
 There are 40 shells and 113 basis functions

 Total QAlloc Memory Limit   2000 MB
 Mega-Array Size       188 MB
 MEM_STATIC part       192 MB
A total of 1 constraints
  
            1
    1   1.0100000
    2   2.0100000
    3   4.0100000
    4   0.9000000
    5   0.9010000
    6   0.1000000
    7   0.0000000
    8   0.0000000
    9   0.0000000
   10   0.0000000

                       Distance Matrix (Angstroms)
             Cl(  1)   Cl(  2)   C (  3)   C (  4)   C (  5)   H (  6)
   Cl(  2)  3.483755
   C (  3)  1.828676  2.806531
   C (  4)  2.759336  1.810681  1.523498
   C (  5)  2.752194  3.253515  1.521558  2.569388
   H (  6)  2.350410  3.730933  1.094778  2.107811  2.160412
   H (  7)  3.720781  2.363982  2.142803  1.092973  2.832036  2.412999
   H (  8)  2.883090  2.366136  2.167321  1.089674  3.504456  2.452938
   H (  9)  2.970253  2.884801  2.166103  2.865890  1.091536  3.070991
   H ( 10)  2.927743  4.269631  2.161250  3.502381  1.091808  2.477876
   H ( 11)  3.727587  3.544385  2.151540  2.795400  1.096188  2.511552
             H (  7)   H (  8)   H (  9)   H ( 10)
   H (  8)  1.781448
   H (  9)  3.257015  3.835005
   H ( 10)  3.794885  4.315873  1.776211
   H ( 11)  2.617203  3.804248  1.775652  1.775640
 
 A cutoff of  1.0D-14 yielded    790 shell pairs
 There are      6463 function pairs
 
 -------------------------------------------------------
 OpenMP Integral Computing Module                       
 Release: version 1.0, May 2013, Q-Chem Inc. Pittsburgh 
 -------------------------------------------------------
 Integral Job Info:
 Integral job number is                      11
 Integral operator is                         1
 short-range coefficients                     0
 long-range coefficients              100000000
 Omega coefficients                           0
 if combine SR and LR in K                    0
 Integral screening is                        0
 Integral computing path is                   2
 max size of driver memory is            800000
 size of driver memory is                593474
 size of scratch memory is             15267112
 max col of scratch BK array               1296
 max len of scratch array in speh3          155
 max len of scratch index in speh4           18
 max int batch size is                      520
 min int batch size is                       52
 fixed nKL is                                52
 max L of basis functions is                  2
 order of int derivative is                   0
 number of shells is                         40
 number of basis is                         113
 number of cartesian basis is               113
 number of contracted shell pairs           790
 number of primitive shell pairs           3285
 maxK2 (contraction) of shell pair           36
 max number of K2 of shell pair               1
 max number of CS2 of shell pair             60
 max number of PS2 of shell pair            336
 mem total for path MDJ                  520332
 -------------------------------------------------------
 Smallest overlap matrix eigenvalue = 5.58E-03

 Scale SEOQF with 1.000000e-01/1.000000e-01/1.000000e+00

 Standard Electronic Orientation quadrupole field applied
 Nucleus-field energy     =    -0.0000000158 hartrees
 Guess from superposition of atomic densities
 Warning:  Energy on first SCF cycle will be non-variational
 SAD guess density has 58.000000 electrons

 -----------------------------------------------------------------------
  General SCF calculation program by
  Eric Jon Sundstrom, Paul Horn, Yuezhi Mao, Dmitri Zuev, Alec White,
  David Stuck, Shaama M.S., Shane Yost, Joonho Lee, David Small,
  Daniel Levine, Susi Lehtola, Hugh Burton, Evgeny Epifanovsky
 -----------------------------------------------------------------------
 Exchange:     0.2000 Hartree-Fock + 0.0800 Slater + 0.7200 B88
 Correlation:  0.1900 VWN1RPA + 0.8100 LYP
 Using SG-1 standard quadrature grid
 using 12 threads for integral computing
 -------------------------------------------------------
 OpenMP Integral computing Module                
 Release: version 1.0, May 2013, Q-Chem Inc. Pittsburgh 
 -------------------------------------------------------
 -------------------------------------------------------
 OpenMP BLAS3 based DFT computing Module                
 Release: version 1.0, May 2013, Q-Chem Inc. Pittsburgh 
 -------------------------------------------------------
 A unrestricted SCF calculation will be
 performed using DIIS
 SCF converges when DIIS error is below 1.0e-06
 Alpha HF Exchange    Energy =  -7.30129902704037
 Beta HF Exchange     Energy =  -7.30129902704037
 DFT Correlation      Energy =  -2.77270974655088
 DFT Exchange         Energy = -57.38471945758086
 One-Electron (alpha) Energy = -993.48098318073494
 One-Electron (beta)  Energy = -993.48098318073494
 Total Coulomb        Energy = 740.42944441561110
 ---------------------------------------
  Cycle       Energy         DIIS error
 ---------------------------------------
    1   -1038.9011607936      2.85e-02  
 Alpha HF Exchange    Energy =  -7.29748282855918
 Beta HF Exchange     Energy =  -7.29748282855918
 DFT Correlation      Energy =  -2.79467677365200
 DFT Exchange         Energy = -57.89853378426719
 One-Electron (alpha) Energy = -996.72973630784759
 One-Electron (beta)  Energy = -996.72973630784713
 Total Coulomb        Energy = 748.06405196353808
    2   -1038.2922084567      2.68e-03  
 Alpha HF Exchange    Energy =  -7.25384690324246
 Beta HF Exchange     Energy =  -7.25384690324246
 DFT Correlation      Energy =  -2.77659031678375
 DFT Exchange         Energy = -57.53315020757699
 One-Electron (alpha) Energy = -993.83373748141082
 One-Electron (beta)  Energy = -993.83373748141059
 Total Coulomb        Energy = 741.79931972522627
    3   -1038.2942011580      2.67e-03  
 Alpha HF Exchange    Energy =  -7.27232483018713
 Beta HF Exchange     Energy =  -7.27232483018712
 DFT Correlation      Energy =  -2.78518099125493
 DFT Exchange         Energy = -57.68821642653637
 One-Electron (alpha) Energy = -995.17523655060916
 One-Electron (beta)  Energy = -995.17523655060882
 Total Coulomb        Energy = 744.63612071340810
    4   -1038.3410110555      2.94e-04  
 Alpha HF Exchange    Energy =  -7.27377553681026
 Beta HF Exchange     Energy =  -7.27377553681025
 DFT Correlation      Energy =  -2.78518713236962
 DFT Exchange         Energy = -57.69852901922975
 One-Electron (alpha) Energy = -995.22705127886911
 One-Electron (beta)  Energy = -995.22705127886832
 Total Coulomb        Energy = 744.75248384952636
    5   -1038.3414975230      1.22e-04  
 Alpha HF Exchange    Energy =  -7.27340328578547
 Beta HF Exchange     Energy =  -7.27340328578547
 DFT Correlation      Energy =  -2.78523026600751
 DFT Exchange         Energy = -57.69613815957977
 One-Electron (alpha) Energy = -995.21556249664604
 One-Electron (beta)  Energy = -995.21556249664604
 Total Coulomb        Energy = 744.72632521458104
    6   -1038.3415863654      4.76e-05  
 Alpha HF Exchange    Energy =  -7.27331308674869
 Beta HF Exchange     Energy =  -7.27331308674870
 DFT Correlation      Energy =  -2.78516221689389
 DFT Exchange         Energy = -57.69520892239400
 One-Electron (alpha) Energy = -995.20429516820866
 One-Electron (beta)  Energy = -995.20429516820900
 Total Coulomb        Energy = 744.70259846908334
    7   -1038.3416007696      5.65e-06  
 Alpha HF Exchange    Energy =  -7.27336027340680
 Beta HF Exchange     Energy =  -7.27336027340681
 DFT Correlation      Energy =  -2.78517973623670
 DFT Exchange         Energy = -57.69559382113655
 One-Electron (alpha) Energy = -995.20918035677403
 One-Electron (beta)  Energy = -995.20918035677460
 Total Coulomb        Energy = 744.71286544093073
    8   -1038.3416009663      1.49e-06  
 Alpha HF Exchange    Energy =  -7.27335053706766
 Beta HF Exchange     Energy =  -7.27335053706767
 DFT Correlation      Energy =  -2.78517649927360
 DFT Exchange         Energy = -57.69551433730117
 One-Electron (alpha) Energy = -995.20817167372036
 One-Electron (beta)  Energy = -995.20817167372104
 Total Coulomb        Energy = 744.71074586646921
    9   -1038.3416009812      3.04e-07  Convergence criterion met
 ---------------------------------------
 SCF time:   CPU 24.37s  wall 2.00s 
<S^2> =         -0.000000000
 Alpha HF Exchange    Energy =  -7.27335053706766
 Beta HF Exchange     Energy =  -7.27335053706767
 DFT Correlation      Energy =  -2.78517649927360
 DFT Exchange         Energy = -57.69551433730117
 One-Electron (alpha) Energy = -995.20817167372036
 One-Electron (beta)  Energy = -995.20817167372104
 Total Coulomb        Energy = 744.71074586646921
 Nuclear repulsion Energy = 282.39138841047981
 SCF   energy in the final basis set =    -1038.3416009812
 Total energy in the final basis set =    -1038.3416009812
 
 --------------------------------------------------------------
 
                    Orbital Energies (a.u.)
 --------------------------------------------------------------
 
 Alpha MOs
 -- Occupied --
*******-101.535 -10.272 -10.264 -10.199  -9.456  -9.452  -7.221
 -7.216  -7.211  -7.210  -7.206  -7.206  -0.887  -0.836  -0.758
 -0.701  -0.592  -0.496  -0.486  -0.452  -0.418  -0.395  -0.386
 -0.373  -0.309  -0.304  -0.299  -0.296
 -- Virtual --
  0.007   0.030   0.073   0.125   0.134   0.141   0.159   0.171
  0.190   0.214   0.364   0.393   0.420   0.431   0.446   0.457
  0.463   0.498   0.521   0.533   0.547   0.569   0.600   0.660
  0.675   0.683   0.746   0.806   0.822   0.839   0.856   0.868
  0.874   0.893   0.899   0.910   0.920   0.952   0.973   0.994
  1.048   1.078   1.100   1.183   1.330   1.395   1.420   1.554
  1.577   1.729   1.801   1.819   1.862   1.884   2.029   2.048
  2.053   2.074   2.087   2.108   2.227   2.278   2.336   2.371
  2.490   2.567   2.596   2.637   2.663   2.728   2.808   2.859
  2.886   3.186   3.234   3.320   3.400   3.430   3.465   4.151
  4.269   4.330   4.443   4.565
 
 Beta MOs
 -- Occupied --
*******-101.535 -10.272 -10.264 -10.199  -9.456  -9.452  -7.221
 -7.216  -7.211  -7.210  -7.206  -7.206  -0.887  -0.836  -0.758
 -0.701  -0.592  -0.496  -0.486  -0.452  -0.418  -0.395  -0.386
 -0.373  -0.309  -0.304  -0.299  -0.296
 -- Virtual --
  0.007   0.030   0.073   0.125   0.134   0.141   0.159   0.171
  0.190   0.214   0.364   0.393   0.420   0.431   0.446   0.457
  0.463   0.498   0.521   0.533   0.547   0.569   0.600   0.660
  0.675   0.683   0.746   0.806   0.822   0.839   0.856   0.868
  0.874   0.893   0.899   0.910   0.920   0.952   0.973   0.994
  1.048   1.078   1.100   1.183   1.330   1.395   1.420   1.554
  1.577   1.729   1.801   1.819   1.862   1.884   2.029   2.048
  2.053   2.074   2.087   2.108   2.227   2.278   2.336   2.371
  2.490   2.567   2.596   2.637   2.663   2.728   2.808   2.859
  2.886   3.186   3.234   3.320   3.400   3.430   3.465   4.151
  4.269   4.330   4.443   4.565
 --------------------------------------------------------------
 
          Ground-State Mulliken Net Atomic Charges

     Atom                 Charge (a.u.)    Spin (a.u.)
  --------------------------------------------------------
      1 Cl                   -0.078184      -0.000000
      2 Cl                   -0.070809       0.000000
      3 C                    -0.174412       0.000000
      4 C                    -0.266803      -0.000000
      5 C                    -0.303750      -0.000000
      6 H                     0.160006      -0.000000
      7 H                     0.160448      -0.000000
      8 H                     0.173712       0.000000
      9 H                     0.153032       0.000000
     10 H                     0.131614      -0.000000
     11 H                     0.115146       0.000000
  --------------------------------------------------------
  Sum of atomic charges =    -0.000000
  Sum of spin   charges =    -0.000000

 -----------------------------------------------------------------
                    Cartesian Multipole Moments
 -----------------------------------------------------------------
    Charge (ESU x 10^10)
                 0.0000
    Dipole Moment (Debye)
         X      -0.5442      Y      -2.0706      Z      -2.1131
       Tot       3.0081
    Quadrupole Moments (Debye-Ang)
        XX     -48.1439     XY       1.9339     YY     -45.2388
        XZ      -1.2733     YZ      -0.1517     ZZ     -42.5934
    Octopole Moments (Debye-Ang^2)
       XXX     -15.8519    XXY      -9.9904    XYY      -3.1457
       YYY     -23.3576    XXZ      -6.0945    XYZ      -0.1409
       YYZ      -5.2742    XZZ      -1.7494    YZZ      -7.6126
       ZZZ     -15.8070
    Hexadecapole Moments (Debye-Ang^3)
      XXXX    -570.7431   XXXY      31.4149   XXYY    -142.2750
      XYYY      23.1019   YYYY    -288.3984   XXXZ     -12.4566
      XXYZ       0.9299   XYYZ      -9.8061   YYYZ       2.0335
      XXZZ    -110.9791   XYZZ       9.4561   YYZZ     -72.2259
      XZZZ     -11.4310   YZZZ      -3.0120   ZZZZ    -142.0758
 -----------------------------------------------------------------
 Calculating analytic gradient of the SCF energy
 Gradient of SCF Energy
            1           2           3           4           5           6
    1   0.0000065   0.0000242  -0.0000508  -0.0000025  -0.0000068   0.0000138
    2  -0.0000082  -0.0000024   0.0000307  -0.0000084  -0.0000423   0.0000026
    3  -0.0000040   0.0000487  -0.0000141  -0.0000963   0.0000216  -0.0000177
            7           8           9          10          11
    1  -0.0000082  -0.0000199   0.0000196   0.0000219   0.0000021
    2   0.0000014   0.0000062   0.0000127   0.0000117  -0.0000039
    3   0.0000316   0.0000243   0.0000059  -0.0000120   0.0000119
 Max gradient component =       9.625E-05
 RMS gradient           =       2.615E-05
 Gradient time:  CPU 9.84 s  wall 0.86 s
 Geometry Optimization Parameters
   NAtoms,    NIC,     NZ,  NCons,   NDum,   NFix, NCnnct, MaxDiis
       11      68       0       1       0       0       0       0


** CONSTRAINED OPTIMIZATION IN DELOCALIZED INTERNAL COORDINATES **
   Searching for a Minimum

   Optimization Cycle:   1

                       Coordinates (Angstroms)
     ATOM                X               Y               Z
      1  Cl       -1.2713370000    1.3768130000    0.2238640000
      2  Cl        1.9540520000    0.1186370000    0.6116890000
      3  C        -0.6153770000   -0.1795420000   -0.4772290000
      4  C         0.8603340000   -0.0274820000   -0.8239280000
      5  C        -0.9453930000   -1.3474080000    0.4405490000
      6  H        -1.1413170000   -0.2868180000   -1.4313870000
      7  H         1.1877140000   -0.9149770000   -1.3714350000
      8  H         1.0280180000    0.8581130000   -1.4362940000
      9  H        -0.4698970000   -1.2233400000    1.4152090000
     10  H        -2.0248920000   -1.4295440000    0.5819040000
     11  H        -0.5816050000   -2.2790520000   -0.0081440000
   Point Group: c1    Number of degrees of freedom:    27


   Energy is  -1038.341600981

              Constraints and their Current Values
                                        Value     Constraint
   Distance(Angs):        2   4             1.810681     0.900000

 Attempting to Generate Delocalized Internal Coordinates
**WARNING** Constraint Gradient Reduced for constraint   1

   Using Lagrange Multiplier Algorithm


 28 Hessian modes will be used to form the next step
  Hessian Eigenvalues:
    -0.881500    0.045000    0.045000    0.072805    0.078457    0.080867
     0.083277    0.084473    0.086057    0.114626    0.160000    0.160000
     0.160000    0.160000    0.160000    0.187889    0.223737    0.233948
     0.239819    0.300322    0.302170    0.341072    0.342663    0.344714
     0.346045    0.346357    0.348504    1.134430

 Minimum Search - Taking P-RFO Step
 Searching for Lamda that Maximizes Along the Constraint modes Only
 Value Taken    Lamda =   0.05411425


 ********************************************
 ** ERROR IN DETERMINING Lamda IN CONFormD **
 ********************************************


 ** Scaling Hessian by  2.405078 **


 28 Hessian modes will be used to form the next step
  Hessian Eigenvalues:
    -0.741075    0.108229    0.108229    0.175101    0.188696    0.194493
     0.200287    0.203165    0.206974    0.275683    0.384812    0.384812
     0.384812    0.384812    0.384812    0.451888    0.538104    0.562662
     0.576784    0.722297    0.726743    0.820306    0.824131    0.829063
     0.832265    0.833016    0.838179    1.349391

 Minimum Search - Taking P-RFO Step
 Searching for Lamda that Maximizes Along the Constraint modes Only
 Value Taken    Lamda =   0.07147778
 Searching for Lamda that Minimizes Along All other modes
 Value Taken    Lamda =  -0.02325477
 Step Taken.  Stepsize is  0.281165

                             Maximum     Tolerance    Cnvgd?
         Gradient            0.300000       0.000300      NO
         Displacement        0.281165       0.001200      NO
         Energy change     *********       0.000001      NO


 New Cartesian Coordinates Obtained by Inverse Iteration

 Displacement from previous Coordinates is:  0.258813
 ----------------------------------------------------------------
             Standard Nuclear Orientation (Angstroms)
    I     Atom           X                Y                Z
 ----------------------------------------------------------------
    1      Cl     -1.2653691974     1.3776052574     0.2304445463
    2      Cl      1.8677553465     0.1056346138     0.5196513538
    3      C      -0.6052260854    -0.1778071922    -0.4688338035
    4      C       0.8729100911    -0.0257765445    -0.8050781853
    5      C      -0.9421881516    -1.3471427867     0.4445114073
    6      H      -1.1246254498    -0.2831782493    -1.4267739985
    7      H       1.2036972388    -0.9124341719    -1.3519166510
    8      H       1.0452188796     0.8607956537    -1.4147540177
    9      H      -0.4734600810    -1.2251165870     1.4226914192
   10      H      -2.0226930799    -1.4290486712     0.5782176249
   11      H      -0.5757195108    -2.2781313222    -0.0033616953
 ----------------------------------------------------------------
 Nuclear Repulsion Energy =   288.3173192026 hartrees
 There are       29 alpha and       29 beta electrons

                       Distance Matrix (Angstroms)
             Cl(  1)   Cl(  2)   C (  3)   C (  4)   C (  5)   H (  6)
   Cl(  2)  3.393821
   C (  3)  1.828685  2.678261
   C (  4)  2.759352  1.661895  1.523503
   C (  5)  2.752185  3.164173  1.521542  2.569448
   H (  6)  2.350401  3.590834  1.094773  2.107821  2.160327
   H (  7)  3.720811  2.231637  2.142829  1.092984  2.832128  2.413017
   H (  8)  2.883156  2.233553  2.167355  1.089681  3.504518  2.452967
   H (  9)  2.970309  2.840364  2.166123  2.866023  1.091528  3.070947
   H ( 10)  2.927762  4.182615  2.161281  3.502456  1.091823  2.477809
   H ( 11)  3.727558  3.453470  2.151487  2.795421  1.096189  2.511422
             H (  7)   H (  8)   H (  9)   H ( 10)
   H (  8)  1.781406
   H (  9)  3.257158  3.835168
   H ( 10)  3.794984  4.315948  1.776189
   H ( 11)  2.617261  3.804252  1.775648  1.775643
 
 Applying Cartesian multipole field
    Component          Value
    ---------          -----
     (2,0,0)        1.00000E-11
     (0,2,0)        2.00000E-11
     (0,0,2)       -3.00000E-10
 Nucleus-field energy     =    -0.0000000139 hartrees
 Requested basis set is 6-31G(d,p)
 There are 40 shells and 113 basis functions
 A cutoff of  1.0D-14 yielded    793 shell pairs
 There are      6480 function pairs
 Smallest overlap matrix eigenvalue = 5.45E-03
 Guess from superposition of atomic densities
 Warning:  Energy on first SCF cycle will be non-variational
 SAD guess density has 58.000000 electrons

 -----------------------------------------------------------------------
  General SCF calculation program by
  Eric Jon Sundstrom, Paul Horn, Yuezhi Mao, Dmitri Zuev, Alec White,
  David Stuck, Shaama M.S., Shane Yost, Joonho Lee, David Small,
  Daniel Levine, Susi Lehtola, Hugh Burton, Evgeny Epifanovsky
 -----------------------------------------------------------------------
 Exchange:     0.2000 Hartree-Fock + 0.0800 Slater + 0.7200 B88
 Correlation:  0.1900 VWN1RPA + 0.8100 LYP
 Using SG-1 standard quadrature grid
 using 12 threads for integral computing
 -------------------------------------------------------
 OpenMP Integral computing Module                
 Release: version 1.0, May 2013, Q-Chem Inc. Pittsburgh 
 -------------------------------------------------------
 -------------------------------------------------------
 OpenMP BLAS3 based DFT computing Module                
 Release: version 1.0, May 2013, Q-Chem Inc. Pittsburgh 
 -------------------------------------------------------
 A unrestricted SCF calculation will be
 performed using DIIS
 SCF converges when DIIS error is below 1.0e-06
 Alpha HF Exchange    Energy =  -7.31820191272917
 Beta HF Exchange     Energy =  -7.31820191272917
 DFT Correlation      Energy =  -2.77707575284415
 DFT Exchange         Energy = -57.41858029620949
 One-Electron (alpha) Energy = -999.34826422663150
 One-Electron (beta)  Energy = -999.34826422663150
 Total Coulomb        Energy = 746.13883284752615
 ---------------------------------------
  Cycle       Energy         DIIS error
 ---------------------------------------
    1   -1039.0724362915      3.02e-02  
 Alpha HF Exchange    Energy =  -7.30459453533631
 Beta HF Exchange     Energy =  -7.30459453533630
 DFT Correlation      Energy =  -2.79959573041517
 DFT Exchange         Energy = -57.94904280705056
 One-Electron (alpha) Energy = -1002.68039849764489
 One-Electron (beta)  Energy = -1002.68039849764466
 Total Coulomb        Energy = 754.12175141056457
    2   -1038.2795540041      2.75e-03  
 Alpha HF Exchange    Energy =  -7.25964315839721
 Beta HF Exchange     Energy =  -7.25964315839720
 DFT Correlation      Energy =  -2.78047763905656
 DFT Exchange         Energy = -57.57150903819853
 One-Electron (alpha) Energy = -999.59907732075783
 One-Electron (beta)  Energy = -999.59907732075703
 Total Coulomb        Energy = 747.47249115916122
    3   -1038.2796172877      2.79e-03  
 Alpha HF Exchange    Energy =  -7.27886138990958
 Beta HF Exchange     Energy =  -7.27886138990957
 DFT Correlation      Energy =  -2.78974164837949
 DFT Exchange         Energy = -57.73365636694394
 One-Electron (alpha) Energy = -1001.06660913600194
 One-Electron (beta)  Energy = -1001.06660913600194
 Total Coulomb        Energy = 750.56632747616106
    4   -1038.3306924023      3.30e-04  
 Alpha HF Exchange    Energy =  -7.28017904707111
 Beta HF Exchange     Energy =  -7.28017904707111
 DFT Correlation      Energy =  -2.78965266483184
 DFT Exchange         Energy = -57.74272969639118
 One-Electron (alpha) Energy = -1001.09266886629905
 One-Electron (beta)  Energy = -1001.09266886629950
 Total Coulomb        Energy = 750.62945190473920
    5   -1038.3313070945      1.34e-04  
 Alpha HF Exchange    Energy =  -7.27993135582091
 Beta HF Exchange     Energy =  -7.27993135582091
 DFT Correlation      Energy =  -2.78972130729280
 DFT Exchange         Energy = -57.74130253827765
 One-Electron (alpha) Energy = -1001.09296402568839
 One-Electron (beta)  Energy = -1001.09296402568816
 Total Coulomb        Energy = 750.62808106727857
    6   -1038.3314143526      4.40e-05  
 Alpha HF Exchange    Energy =  -7.27981802684824
 Beta HF Exchange     Energy =  -7.27981802684824
 DFT Correlation      Energy =  -2.78965781627853
 DFT Exchange         Energy = -57.74023451651158
 One-Electron (alpha) Energy = -1001.08023399240562
 One-Electron (beta)  Energy = -1001.08023399240506
 Total Coulomb        Energy = 750.60125087308154
    7   -1038.3314263095      5.53e-06  
 Alpha HF Exchange    Energy =  -7.27986351357244
 Beta HF Exchange     Energy =  -7.27986351357244
 DFT Correlation      Energy =  -2.78967343171254
 DFT Exchange         Energy = -57.74060070116948
 One-Electron (alpha) Energy = -1001.08483467467397
 One-Electron (beta)  Energy = -1001.08483467467397
 Total Coulomb        Energy = 750.61092482154277
    8   -1038.3314264991      1.53e-06  
 Alpha HF Exchange    Energy =  -7.27985504335089
 Beta HF Exchange     Energy =  -7.27985504335090
 DFT Correlation      Energy =  -2.78967079166151
 DFT Exchange         Energy = -57.74053218619225
 One-Electron (alpha) Energy = -1001.08397386575712
 One-Electron (beta)  Energy = -1001.08397386575700
 Total Coulomb        Energy = 750.60911509334119
    9   -1038.3314265140      3.14e-07  Convergence criterion met
 ---------------------------------------
 SCF time:   CPU 23.94s  wall 2.00s 
<S^2> =         -0.000000000
 Alpha HF Exchange    Energy =  -7.27985504335089
 Beta HF Exchange     Energy =  -7.27985504335090
 DFT Correlation      Energy =  -2.78967079166151
 DFT Exchange         Energy = -57.74053218619225
 One-Electron (alpha) Energy = -1001.08397386575712
 One-Electron (beta)  Energy = -1001.08397386575700
 Total Coulomb        Energy = 750.60911509334119
 Nuclear repulsion Energy = 288.31731918873487
 SCF   energy in the final basis set =    -1038.3314265140
 Total energy in the final basis set =    -1038.3314265140
 
 --------------------------------------------------------------
 
                    Orbital Energies (a.u.)
 --------------------------------------------------------------
 
 Alpha MOs
 -- Occupied --
*******-101.533 -10.267 -10.252 -10.198  -9.459  -9.450  -7.223
 -7.214  -7.213  -7.213  -7.204  -7.204  -0.911  -0.848  -0.755
 -0.693  -0.589  -0.499  -0.492  -0.456  -0.428  -0.399  -0.387
 -0.373  -0.309  -0.302  -0.295  -0.293
 -- Virtual --
  0.017   0.067   0.081   0.124   0.135   0.143   0.158   0.172
  0.193   0.215   0.360   0.390   0.419   0.432   0.445   0.457
  0.463   0.498   0.523   0.534   0.549   0.569   0.611   0.664
  0.677   0.688   0.750   0.792   0.829   0.840   0.853   0.868
  0.871   0.894   0.901   0.910   0.916   0.953   0.985   1.009
  1.059   1.120   1.146   1.192   1.348   1.396   1.445   1.562
  1.586   1.734   1.814   1.825   1.869   1.902   2.031   2.052
  2.075   2.082   2.096   2.168   2.239   2.286   2.348   2.377
  2.501   2.577   2.602   2.643   2.670   2.734   2.815   2.861
  2.888   3.188   3.244   3.328   3.402   3.431   3.467   4.163
  4.281   4.339   4.462   4.574
 
 Beta MOs
 -- Occupied --
*******-101.533 -10.267 -10.252 -10.198  -9.459  -9.450  -7.223
 -7.214  -7.213  -7.213  -7.204  -7.204  -0.911  -0.848  -0.755
 -0.693  -0.589  -0.499  -0.492  -0.456  -0.428  -0.399  -0.387
 -0.373  -0.309  -0.302  -0.295  -0.293
 -- Virtual --
  0.017   0.067   0.081   0.124   0.135   0.143   0.158   0.172
  0.193   0.215   0.360   0.390   0.419   0.432   0.445   0.457
  0.463   0.498   0.523   0.534   0.549   0.569   0.611   0.664
  0.677   0.688   0.750   0.792   0.829   0.840   0.853   0.868
  0.871   0.894   0.901   0.910   0.916   0.953   0.985   1.009
  1.059   1.120   1.146   1.192   1.348   1.396   1.445   1.562
  1.586   1.734   1.814   1.825   1.869   1.902   2.031   2.052
  2.075   2.082   2.096   2.168   2.239   2.286   2.348   2.377
  2.501   2.577   2.602   2.643   2.670   2.734   2.815   2.861
  2.888   3.188   3.244   3.328   3.402   3.431   3.467   4.163
  4.281   4.339   4.462   4.574
 --------------------------------------------------------------
 
          Ground-State Mulliken Net Atomic Charges

     Atom                 Charge (a.u.)    Spin (a.u.)
  --------------------------------------------------------
      1 Cl                   -0.083317       0.000000
      2 Cl                   -0.021033       0.000000
      3 C                    -0.175998       0.000000
      4 C                    -0.289317      -0.000000
      5 C                    -0.305878      -0.000000
      6 H                     0.155609       0.000000
      7 H                     0.154904       0.000000
      8 H                     0.168382       0.000000
      9 H                     0.149756      -0.000000
     10 H                     0.131975       0.000000
     11 H                     0.114918       0.000000
  --------------------------------------------------------
  Sum of atomic charges =    -0.000000
  Sum of spin   charges =     0.000000

 -----------------------------------------------------------------
                    Cartesian Multipole Moments
 -----------------------------------------------------------------
    Charge (ESU x 10^10)
                 0.0000
    Dipole Moment (Debye)
         X      -0.2377      Y      -2.0435      Z      -1.8742
       Tot       2.7830
    Quadrupole Moments (Debye-Ang)
        XX     -47.4515     XY       1.9761     YY     -45.1631
        XZ      -1.0999     YZ      -0.1811     ZZ     -42.8099
    Octopole Moments (Debye-Ang^2)
       XXX     -11.1108    XXY      -9.8157    XYY      -1.8080
       YYY     -22.9376    XXZ      -5.0614    XYZ      -0.1408
       YYZ      -4.3109    XZZ      -0.7823    YZZ      -7.4445
       ZZZ     -12.5051
    Hexadecapole Moments (Debye-Ang^3)
      XXXX    -539.6327   XXXY      32.6207   XXYY    -137.1798
      XYYY      24.5047   YYYY    -288.6091   XXXZ      -3.9951
      XXYZ       0.9140   XYYZ      -6.5892   YYYZ       2.5036
      XXZZ    -105.4576   XYZZ       9.7945   YYZZ     -71.0280
      XZZZ      -2.3539   YZZZ      -2.5331   ZZZZ    -134.3508
 -----------------------------------------------------------------
 Calculating analytic gradient of the SCF energy
 Gradient of SCF Energy
            1           2           3           4           5           6
    1  -0.0001750  -0.0486981   0.0063822   0.0313043  -0.0004064   0.0011959
    2  -0.0003163  -0.0066498   0.0016647   0.0039783  -0.0004777   0.0000417
    3  -0.0004195  -0.0651602   0.0076873   0.0462711  -0.0000758  -0.0010405
            7           8           9          10          11
    1   0.0051408   0.0050665   0.0002999  -0.0001002  -0.0000098
    2   0.0003094   0.0011710   0.0003253  -0.0000864   0.0000398
    3   0.0064905   0.0066075  -0.0003463  -0.0000705   0.0000565
 Max gradient component =       6.516E-02
 RMS gradient           =       1.745E-02
 Gradient time:  CPU 9.88 s  wall 0.86 s
 Geometry Optimization Parameters
   NAtoms,    NIC,     NZ,  NCons,   NDum,   NFix, NCnnct, MaxDiis
       11      68       0       1       0       0       0       0

 Cartesian Hessian Update
 Hessian Updated using BFGS Update


** CONSTRAINED OPTIMIZATION IN DELOCALIZED INTERNAL COORDINATES **
   Searching for a Minimum

   Optimization Cycle:   2

                       Coordinates (Angstroms)
     ATOM                X               Y               Z
      1  Cl       -1.2653691974    1.3776052574    0.2304445463
      2  Cl        1.8677553465    0.1056346138    0.5196513538
      3  C        -0.6052260854   -0.1778071922   -0.4688338035
      4  C         0.8729100911   -0.0257765445   -0.8050781853
      5  C        -0.9421881516   -1.3471427867    0.4445114073
      6  H        -1.1246254498   -0.2831782493   -1.4267739985
      7  H         1.2036972388   -0.9124341719   -1.3519166510
      8  H         1.0452188796    0.8607956537   -1.4147540177
      9  H        -0.4734600810   -1.2251165870    1.4226914192
     10  H        -2.0226930799   -1.4290486712    0.5782176249
     11  H        -0.5757195108   -2.2781313222   -0.0033616953
   Point Group: c1    Number of degrees of freedom:    27


   Energy is  -1038.331426514

              Constraints and their Current Values
                                        Value     Constraint
   Distance(Angs):        2   4             1.661895     0.900000
 Hessian Updated using BFGS Update
**WARNING** Constraint Gradient Reduced for constraint   1

   Using Lagrange Multiplier Algorithm


 25 Hessian modes will be used to form the next step
  Hessian Eigenvalues:
    -0.866387    0.108229    0.108230    0.175155    0.188699    0.194543
     0.200288    0.203166    0.211065    0.275792    0.384812    0.388540
     0.451918    0.538485    0.562675    0.576788    0.723328    0.726743
     0.820306    0.824133    0.829154    0.832265    0.833016    0.838270
     1.158358

 Minimum Search - Taking P-RFO Step
 Searching for Lamda that Maximizes Along the Constraint modes Only
 Value Taken    Lamda =   0.03375932
 Searching for Lamda that Minimizes Along All other modes
 Value Taken    Lamda =  -0.05666616
 Calculated Step too Large.  Step scaled by  0.994917
 Step Taken.  Stepsize is  0.300000

                             Maximum     Tolerance    Cnvgd?
         Gradient            0.300000       0.000300      NO
         Displacement        0.285541       0.001200      NO
         Energy change      0.010174       0.000001      NO


 New Cartesian Coordinates Obtained by Inverse Iteration

 Displacement from previous Coordinates is:  0.234702
 ----------------------------------------------------------------
             Standard Nuclear Orientation (Angstroms)
    I     Atom           X                Y                Z
 ----------------------------------------------------------------
    1      Cl     -1.2597790537     1.3782713513     0.2353842672
    2      Cl      1.8051091601     0.0988342855     0.4311968011
    3      C      -0.5916432727    -0.1762484945    -0.4598537614
    4      C       0.8995284387    -0.0219549724    -0.7720610287
    5      C      -0.9404105827    -1.3470671178     0.4472871171
    6      H      -1.1028429618    -0.2810855485    -1.4217967386
    7      H       1.2031474638    -0.9098630667    -1.3369113041
    8      H       1.0446546621     0.8598006706    -1.3996003672
    9      H      -0.4862547468    -1.2296544980     1.4330696331
   10      H      -2.0225706609    -1.4283995327     0.5661822088
   11      H      -0.5686384461    -2.2772330767     0.0019011727
 ----------------------------------------------------------------
 Nuclear Repulsion Energy =   294.1416105768 hartrees
 There are       29 alpha and       29 beta electrons

                       Distance Matrix (Angstroms)
             Cl(  1)   Cl(  2)   C (  3)   C (  4)   C (  5)   H (  6)
   Cl(  2)  3.326987
   C (  3)  1.829288  2.571782
   C (  4)  2.763727  1.510793  1.531298
   C (  5)  2.752157  3.103026  1.521631  2.574511
   H (  6)  2.350392  3.469021  1.094372  2.121037  2.157817
   H (  7)  3.711291  2.122742  2.128073  1.095272  2.823004  2.391685
   H (  8)  2.872699  2.123483  2.152671  1.091952  3.495961  2.431843
   H (  9)  2.972216  2.831780  2.168855  2.870807  1.091701  3.070867
   H ( 10)  2.927231  4.123324  2.160598  3.508225  1.091706  2.472709
   H ( 11)  3.727587  3.385952  2.151252  2.800145  1.096263  2.509362
             H (  7)   H (  8)   H (  9)   H ( 10)
   H (  8)  1.777853
   H (  9)  3.260236  3.838428
   H ( 10)  3.780992  4.302096  1.775179
   H ( 11)  2.607939  3.795774  1.775514  1.775627
 
 Applying Cartesian multipole field
    Component          Value
    ---------          -----
     (2,0,0)        1.00000E-11
     (0,2,0)        2.00000E-11
     (0,0,2)       -3.00000E-10
 Nucleus-field energy     =    -0.0000000121 hartrees
 Requested basis set is 6-31G(d,p)
 There are 40 shells and 113 basis functions
 A cutoff of  1.0D-14 yielded    795 shell pairs
 There are      6496 function pairs
 Smallest overlap matrix eigenvalue = 5.28E-03
 Guess from superposition of atomic densities
 Warning:  Energy on first SCF cycle will be non-variational
 SAD guess density has 58.000000 electrons

 -----------------------------------------------------------------------
  General SCF calculation program by
  Eric Jon Sundstrom, Paul Horn, Yuezhi Mao, Dmitri Zuev, Alec White,
  David Stuck, Shaama M.S., Shane Yost, Joonho Lee, David Small,
  Daniel Levine, Susi Lehtola, Hugh Burton, Evgeny Epifanovsky
 -----------------------------------------------------------------------
 Exchange:     0.2000 Hartree-Fock + 0.0800 Slater + 0.7200 B88
 Correlation:  0.1900 VWN1RPA + 0.8100 LYP
 Using SG-1 standard quadrature grid
 using 12 threads for integral computing
 -------------------------------------------------------
 OpenMP Integral computing Module                
 Release: version 1.0, May 2013, Q-Chem Inc. Pittsburgh 
 -------------------------------------------------------
 -------------------------------------------------------
 OpenMP BLAS3 based DFT computing Module                
 Release: version 1.0, May 2013, Q-Chem Inc. Pittsburgh 
 -------------------------------------------------------
 A unrestricted SCF calculation will be
 performed using DIIS
 SCF converges when DIIS error is below 1.0e-06
 Alpha HF Exchange    Energy =  -7.33923654396366
 Beta HF Exchange     Energy =  -7.33923654396366
 DFT Correlation      Energy =  -2.78170039011800
 DFT Exchange         Energy = -57.46198283727523
 One-Electron (alpha) Energy = -1005.06386898113999
 One-Electron (beta)  Energy = -1005.06386898113999
 Total Coulomb        Energy = 751.60731500601173
 ---------------------------------------
  Cycle       Energy         DIIS error
 ---------------------------------------
    1   -1039.3009687068      3.29e-02  
 Alpha HF Exchange    Energy =  -7.31357856927591
 Beta HF Exchange     Energy =  -7.31357856927591
 DFT Correlation      Energy =  -2.80513889002610
 DFT Exchange         Energy = -58.01714763217186
 One-Electron (alpha) Energy = -1008.54566267803875
 One-Electron (beta)  Energy = -1008.54566267803875
 Total Coulomb        Energy = 760.16622571108428
    2   -1038.2329327410      2.89e-03  
 Alpha HF Exchange    Energy =  -7.26547866498585
 Beta HF Exchange     Energy =  -7.26547866498585
 DFT Correlation      Energy =  -2.78435700129005
 DFT Exchange         Energy = -57.61305734175729
 One-Electron (alpha) Energy = -1005.09809147097565
 One-Electron (beta)  Energy = -1005.09809147097599
 Total Coulomb        Energy = 752.75329974590602
    3   -1038.2296443043      3.02e-03  
 Alpha HF Exchange    Energy =  -7.28655030535502
 Beta HF Exchange     Energy =  -7.28655030535501
 DFT Correlation      Energy =  -2.79462093337434
 DFT Exchange         Energy = -57.79088616167272
 One-Electron (alpha) Energy = -1006.79911241029492
 One-Electron (beta)  Energy = -1006.79911241029424
 Total Coulomb        Energy = 756.32636301600314
    4   -1038.2888589456      3.53e-04  
 Alpha HF Exchange    Energy =  -7.28775713983288
 Beta HF Exchange     Energy =  -7.28775713983288
 DFT Correlation      Energy =  -2.79449862093091
 DFT Exchange         Energy = -57.79904831151818
 One-Electron (alpha) Energy = -1006.80353233813855
 One-Electron (beta)  Energy = -1006.80353233813878
 Total Coulomb        Energy = 756.34496195105612
    5   -1038.2895533726      1.40e-04  
 Alpha HF Exchange    Energy =  -7.28757190524608
 Beta HF Exchange     Energy =  -7.28757190524608
 DFT Correlation      Energy =  -2.79457057704299
 DFT Exchange         Energy = -57.79809011809154
 One-Electron (alpha) Energy = -1006.80967782708444
 One-Electron (beta)  Energy = -1006.80967782708433
 Total Coulomb        Energy = 756.35587856592383
    6   -1038.2896710291      4.22e-05  
 Alpha HF Exchange    Energy =  -7.28745957201577
 Beta HF Exchange     Energy =  -7.28745957201578
 DFT Correlation      Energy =  -2.79451201396244
 DFT Exchange         Energy = -57.79704643042997
 One-Electron (alpha) Energy = -1006.79740829543755
 One-Electron (beta)  Energy = -1006.79740829543800
 Total Coulomb        Energy = 756.33000171872243
    7   -1038.2896818958      6.48e-06  
 Alpha HF Exchange    Energy =  -7.28749885271951
 Beta HF Exchange     Energy =  -7.28749885271951
 DFT Correlation      Energy =  -2.79452576775580
 DFT Exchange         Energy = -57.79736401930406
 One-Electron (alpha) Energy = -1006.80130912993570
 One-Electron (beta)  Energy = -1006.80130912993593
 Total Coulomb        Energy = 756.33821303330546
    8   -1038.2896821543      1.68e-06  
 Alpha HF Exchange    Energy =  -7.28749490166381
 Beta HF Exchange     Energy =  -7.28749490166381
 DFT Correlation      Energy =  -2.79452443821669
 DFT Exchange         Energy = -57.79733114611012
 One-Electron (alpha) Energy = -1006.80092179859150
 One-Electron (beta)  Energy = -1006.80092179859105
 Total Coulomb        Energy = 756.33739624879263
    9   -1038.2896821713      3.90e-07  Convergence criterion met
 ---------------------------------------
 SCF time:   CPU 23.96s  wall 2.00s 
<S^2> =         -0.000000000
 Alpha HF Exchange    Energy =  -7.28749490166381
 Beta HF Exchange     Energy =  -7.28749490166381
 DFT Correlation      Energy =  -2.79452443821669
 DFT Exchange         Energy = -57.79733114611012
 One-Electron (alpha) Energy = -1006.80092179859150
 One-Electron (beta)  Energy = -1006.80092179859105
 Total Coulomb        Energy = 756.33739624879263
 Nuclear repulsion Energy = 294.14161056476377
 SCF   energy in the final basis set =    -1038.2896821713
 Total energy in the final basis set =    -1038.2896821713
 
 --------------------------------------------------------------
 
                    Orbital Energies (a.u.)
 --------------------------------------------------------------
 
 Alpha MOs
 -- Occupied --
*******-101.532 -10.262 -10.242 -10.197  -9.464  -9.448  -7.227
 -7.217  -7.217  -7.212  -7.202  -7.202  -0.954  -0.852  -0.752
 -0.684  -0.586  -0.506  -0.504  -0.464  -0.437  -0.403  -0.389
 -0.372  -0.308  -0.298  -0.288  -0.287
 -- Virtual --
  0.021   0.072   0.117   0.121   0.136   0.145   0.160   0.172
  0.195   0.215   0.350   0.384   0.423   0.432   0.445   0.452
  0.465   0.504   0.526   0.539   0.555   0.573   0.635   0.667
  0.681   0.694   0.746   0.779   0.832   0.843   0.849   0.865
  0.869   0.891   0.904   0.911   0.922   0.950   0.989   1.024
  1.067   1.137   1.177   1.269   1.368   1.397   1.475   1.572
  1.607   1.740   1.822   1.838   1.876   1.921   2.032   2.056
  2.079   2.087   2.100   2.244   2.250   2.306   2.359   2.388
  2.517   2.583   2.603   2.659   2.689   2.744   2.814   2.863
  2.889   3.189   3.252   3.334   3.400   3.431   3.468   4.182
  4.302   4.338   4.477   4.587
 
 Beta MOs
 -- Occupied --
*******-101.532 -10.262 -10.242 -10.197  -9.464  -9.448  -7.227
 -7.217  -7.217  -7.212  -7.202  -7.202  -0.954  -0.852  -0.752
 -0.684  -0.586  -0.506  -0.504  -0.464  -0.437  -0.403  -0.389
 -0.372  -0.308  -0.298  -0.288  -0.287
 -- Virtual --
  0.021   0.072   0.117   0.121   0.136   0.145   0.160   0.172
  0.195   0.215   0.350   0.384   0.423   0.432   0.445   0.452
  0.465   0.504   0.526   0.539   0.555   0.573   0.635   0.667
  0.681   0.694   0.746   0.779   0.832   0.843   0.849   0.865
  0.869   0.891   0.904   0.911   0.922   0.950   0.989   1.024
  1.067   1.137   1.177   1.269   1.368   1.397   1.475   1.572
  1.607   1.740   1.822   1.838   1.876   1.921   2.032   2.056
  2.079   2.087   2.100   2.244   2.250   2.306   2.359   2.388
  2.517   2.583   2.603   2.659   2.689   2.744   2.814   2.863
  2.889   3.189   3.252   3.334   3.400   3.431   3.468   4.182
  4.302   4.338   4.477   4.587
 --------------------------------------------------------------
 
          Ground-State Mulliken Net Atomic Charges

     Atom                 Charge (a.u.)    Spin (a.u.)
  --------------------------------------------------------
      1 Cl                   -0.089946      -0.000000
      2 Cl                    0.027952       0.000000
      3 C                    -0.181539      -0.000000
      4 C                    -0.293734      -0.000000
      5 C                    -0.308545       0.000000
      6 H                     0.151973      -0.000000
      7 H                     0.143089       0.000000
      8 H                     0.157352       0.000000
      9 H                     0.146105      -0.000000
     10 H                     0.132668       0.000000
     11 H                     0.114625      -0.000000
  --------------------------------------------------------
  Sum of atomic charges =    -0.000000
  Sum of spin   charges =    -0.000000

 -----------------------------------------------------------------
                    Cartesian Multipole Moments
 -----------------------------------------------------------------
    Charge (ESU x 10^10)
                -0.0000
    Dipole Moment (Debye)
         X       0.0418      Y      -2.0302      Z      -1.6426
       Tot       2.6118
    Quadrupole Moments (Debye-Ang)
        XX     -46.8210     XY       2.0229     YY     -45.1077
        XZ      -0.9101     YZ      -0.2118     ZZ     -43.0391
    Octopole Moments (Debye-Ang^2)
       XXX      -7.5523    XXY      -9.7516    XYY      -0.8305
       YYY     -22.7833    XXZ      -4.1555    XYZ      -0.1471
       YYZ      -3.3954    XZZ      -0.2729    YZZ      -7.3725
       ZZZ      -9.5553
    Hexadecapole Moments (Debye-Ang^3)
      XXXX    -516.7807   XXXY      33.2137   XXYY    -133.5546
      XYYY      25.2578   YYYY    -289.1247   XXXZ       3.1272
      XXYZ       0.8815   XYYZ      -3.7413   YYYZ       2.7917
      XXZZ    -101.5895   XYZZ       9.9704   YYZZ     -70.1217
      XZZZ       5.3202   YZZZ      -2.1978   ZZZZ    -127.5909
 -----------------------------------------------------------------
 Calculating analytic gradient of the SCF energy
 Gradient of SCF Energy
            1           2           3           4           5           6
    1  -0.0002777  -0.1444096   0.0111619   0.1169314  -0.0008398   0.0012072
    2  -0.0005870  -0.0196044   0.0030406   0.0150792  -0.0008659  -0.0001254
    3  -0.0009395  -0.1934135   0.0118182   0.1606977  -0.0002656  -0.0011890
            7           8           9          10          11
    1   0.0081176   0.0078935   0.0003240  -0.0001180   0.0000094
    2   0.0006875   0.0019811   0.0003691  -0.0000563   0.0000814
    3   0.0119369   0.0120389  -0.0005994  -0.0001958   0.0001111
 Max gradient component =       1.934E-01
 RMS gradient           =       5.479E-02
 Gradient time:  CPU 9.92 s  wall 0.86 s
 Geometry Optimization Parameters
   NAtoms,    NIC,     NZ,  NCons,   NDum,   NFix, NCnnct, MaxDiis
       11      68       0       1       0       0       0       0

 Cartesian Hessian Update
 Hessian Updated using BFGS Update


** CONSTRAINED OPTIMIZATION IN DELOCALIZED INTERNAL COORDINATES **
   Searching for a Minimum

   Optimization Cycle:   3

                       Coordinates (Angstroms)
     ATOM                X               Y               Z
      1  Cl       -1.2597790537    1.3782713513    0.2353842672
      2  Cl        1.8051091601    0.0988342855    0.4311968011
      3  C        -0.5916432727   -0.1762484945   -0.4598537614
      4  C         0.8995284387   -0.0219549724   -0.7720610287
      5  C        -0.9404105827   -1.3470671178    0.4472871171
      6  H        -1.1028429618   -0.2810855485   -1.4217967386
      7  H         1.2031474638   -0.9098630667   -1.3369113041
      8  H         1.0446546621    0.8598006706   -1.3996003672
      9  H        -0.4862547468   -1.2296544980    1.4330696331
     10  H        -2.0225706609   -1.4283995327    0.5661822088
     11  H        -0.5686384461   -2.2772330767    0.0019011727
   Point Group: c1    Number of degrees of freedom:    27


   Energy is  -1038.289682171

              Constraints and their Current Values
                                        Value     Constraint
   Distance(Angs):        2   4             1.510793     0.900000
 Hessian Updated using BFGS Update
**WARNING** Constraint Gradient Reduced for constraint   1

   Using Lagrange Multiplier Algorithm


 26 Hessian modes will be used to form the next step
  Hessian Eigenvalues:
    -0.748956    0.108229    0.108230    0.175143    0.188704    0.194536
     0.200288    0.203165    0.209657    0.275719    0.384810    0.384815
     0.384971    0.451887    0.537982    0.562659    0.576781    0.720907
     0.726743    0.820305    0.824124    0.828758    0.832265    0.833014
     0.837890    1.358087

 Minimum Search - Taking P-RFO Step
 Searching for Lamda that Maximizes Along the Constraint modes Only
 Value Taken    Lamda =   0.09541203
 Searching for Lamda that Minimizes Along All other modes
 Value Taken    Lamda =  -0.02007921
 Calculated Step too Large.  Step scaled by  0.869311
 Step Taken.  Stepsize is  0.300000

                             Maximum     Tolerance    Cnvgd?
         Gradient            0.300000       0.000300      NO
         Displacement        0.237310       0.001200      NO
         Energy change      0.041744       0.000001      NO


 New Cartesian Coordinates Obtained by Inverse Iteration

 Displacement from previous Coordinates is:  0.200433
 ----------------------------------------------------------------
             Standard Nuclear Orientation (Angstroms)
    I     Atom           X                Y                Z
 ----------------------------------------------------------------
    1      Cl     -1.2553974414     1.3785515341     0.2387187912
    2      Cl      1.7748310978     0.0969560937     0.3675872587
    3      C      -0.5767004956    -0.1748305577    -0.4524537263
    4      C       0.9361993938    -0.0167493267    -0.7290373492
    5      C      -0.9391221822    -1.3466124599     0.4482519947
    6      H      -1.0762462669    -0.2790929133    -1.4197865457
    7      H       1.1800360387    -0.9049639199    -1.3321229731
    8      H       1.0235894440     0.8503464178    -1.3959240443
    9      H      -0.5045668513    -1.2336470305     1.4438489289
   10      H      -2.0229733267    -1.4286876360     0.5483445143
   11      H      -0.5593494101    -2.2758702016     0.0073711507
 ----------------------------------------------------------------
 Nuclear Repulsion Energy =   298.7526301045 hartrees
 There are       29 alpha and       29 beta electrons

                       Distance Matrix (Angstroms)
             Cl(  1)   Cl(  2)   C (  3)   C (  4)   C (  5)   H (  6)
   Cl(  2)  3.292625
   C (  3)  1.830668  2.505202
   C (  4)  2.772456  1.385214  1.546077
   C (  5)  2.751446  3.075051  1.521740  2.582901
   H (  6)  2.351706  3.385965  1.093686  2.143804  2.155915
   H (  7)  3.689624  2.060738  2.095957  1.100951  2.802788  2.343120
   H (  8)  2.853916  2.059595  2.121804  1.097374  3.475608  2.384431
   H (  9)  2.973158  2.850351  2.173076  2.877166  1.092160  3.072198
   H ( 10)  2.926710  4.096777  2.159968  3.518803  1.091553  2.468076
   H ( 11)  3.727305  3.347904  2.150839  2.807595  1.096414  2.508203
             H (  7)   H (  8)   H (  9)   H ( 10)
   H (  8)  1.763423
   H (  9)  3.263731  3.839609
   H ( 10)  3.750962  4.272671  1.773563
   H ( 11)  2.588260  3.774674  1.775584  1.775547
 
 Applying Cartesian multipole field
    Component          Value
    ---------          -----
     (2,0,0)        1.00000E-11
     (0,2,0)        2.00000E-11
     (0,0,2)       -3.00000E-10
 Nucleus-field energy     =    -0.0000000108 hartrees
 Requested basis set is 6-31G(d,p)
 There are 40 shells and 113 basis functions
 A cutoff of  1.0D-14 yielded    795 shell pairs
 There are      6496 function pairs
 Smallest overlap matrix eigenvalue = 5.04E-03
 Guess from superposition of atomic densities
 Warning:  Energy on first SCF cycle will be non-variational
 SAD guess density has 58.000000 electrons

 -----------------------------------------------------------------------
  General SCF calculation program by
  Eric Jon Sundstrom, Paul Horn, Yuezhi Mao, Dmitri Zuev, Alec White,
  David Stuck, Shaama M.S., Shane Yost, Joonho Lee, David Small,
  Daniel Levine, Susi Lehtola, Hugh Burton, Evgeny Epifanovsky
 -----------------------------------------------------------------------
 Exchange:     0.2000 Hartree-Fock + 0.0800 Slater + 0.7200 B88
 Correlation:  0.1900 VWN1RPA + 0.8100 LYP
 Using SG-1 standard quadrature grid
 using 12 threads for integral computing
 -------------------------------------------------------
 OpenMP Integral computing Module                
 Release: version 1.0, May 2013, Q-Chem Inc. Pittsburgh 
 -------------------------------------------------------
 -------------------------------------------------------
 OpenMP BLAS3 based DFT computing Module                
 Release: version 1.0, May 2013, Q-Chem Inc. Pittsburgh 
 -------------------------------------------------------
 A unrestricted SCF calculation will be
 performed using DIIS
 SCF converges when DIIS error is below 1.0e-06
 Alpha HF Exchange    Energy =  -7.35936119804312
 Beta HF Exchange     Energy =  -7.35936119804312
 DFT Correlation      Energy =  -2.78557288083319
 DFT Exchange         Energy = -57.50526626261102
 One-Electron (alpha) Energy = -1009.51559098413088
 One-Electron (beta)  Energy = -1009.51559098413088
 Total Coulomb        Energy = 755.75394427876404
 ---------------------------------------
  Cycle       Energy         DIIS error
 ---------------------------------------
    1   -1039.5341691353      3.61e-02  
 Alpha HF Exchange    Energy =  -7.32255653710827
 Beta HF Exchange     Energy =  -7.32255653710827
 DFT Correlation      Energy =  -2.81014026606436
 DFT Exchange         Energy = -58.09008630863266
 One-Electron (alpha) Energy = -1013.19096743289128
 One-Electron (beta)  Energy = -1013.19096743289106
 Total Coulomb        Energy = 765.02806500220504
    2   -1038.1465794188      3.11e-03  
 Alpha HF Exchange    Energy =  -7.27016185182143
 Beta HF Exchange     Energy =  -7.27016185182144
 DFT Correlation      Energy =  -2.78730710464618
 DFT Exchange         Energy = -57.64973499110009
 One-Electron (alpha) Energy = -1009.25646459223128
 One-Electron (beta)  Energy = -1009.25646459223151
 Total Coulomb        Energy = 756.59966717856616
    3   -1038.1379977116      3.36e-03  
 Alpha HF Exchange    Energy =  -7.29371928988852
 Beta HF Exchange     Energy =  -7.29371928988850
 DFT Correlation      Energy =  -2.79877381070990
 DFT Exchange         Energy = -57.84852450850371
 One-Electron (alpha) Energy = -1011.25867724169234
 One-Electron (beta)  Energy = -1011.25867724169166
 Total Coulomb        Energy = 760.78935324121790
    4   -1038.2101080475      3.70e-04  
 Alpha HF Exchange    Energy =  -7.29491199713773
 Beta HF Exchange     Energy =  -7.29491199713774
 DFT Correlation      Energy =  -2.79866638106293
 DFT Exchange         Energy = -57.85655973466196
 One-Electron (alpha) Energy = -1011.25112612555461
 One-Electron (beta)  Energy = -1011.25112612555529
 Total Coulomb        Energy = 760.78380476027485
    5   -1038.2108675071      1.48e-04  
 Alpha HF Exchange    Energy =  -7.29473233050448
 Beta HF Exchange     Energy =  -7.29473233050448
 DFT Correlation      Energy =  -2.79872968309463
 DFT Exchange         Energy = -57.85564857815645
 One-Electron (alpha) Energy = -1011.25805746431365
 One-Electron (beta)  Energy = -1011.25805746431331
 Total Coulomb        Energy = 760.79632926879140
    6   -1038.2109984884      4.27e-05  
 Alpha HF Exchange    Energy =  -7.29462124528202
 Beta HF Exchange     Energy =  -7.29462124528203
 DFT Correlation      Energy =  -2.79867062870536
 DFT Exchange         Energy = -57.85460931359354
 One-Electron (alpha) Energy = -1011.24644453826409
 One-Electron (beta)  Energy = -1011.24644453826522
 Total Coulomb        Energy = 760.77177200369613
    7   -1038.2110094120      8.30e-06  
 Alpha HF Exchange    Energy =  -7.29465429908218
 Beta HF Exchange     Energy =  -7.29465429908219
 DFT Correlation      Energy =  -2.79868363434611
 DFT Exchange         Energy = -57.85488137769618
 One-Electron (alpha) Energy = -1011.24966250617558
 One-Electron (beta)  Energy = -1011.24966250617615
 Total Coulomb        Energy = 760.77855868898257
    8   -1038.2110098399      1.76e-06  
 Alpha HF Exchange    Energy =  -7.29465416433781
 Beta HF Exchange     Energy =  -7.29465416433779
 DFT Correlation      Energy =  -2.79868330312782
 DFT Exchange         Energy = -57.85487850582123
 One-Electron (alpha) Energy = -1011.24967700433717
 One-Electron (beta)  Energy = -1011.24967700433615
 Total Coulomb        Energy = 760.77858419453264
    9   -1038.2110098581      4.52e-07  Convergence criterion met
 ---------------------------------------
 SCF time:   CPU 24.13s  wall 2.00s 
<S^2> =         -0.000000000
 Alpha HF Exchange    Energy =  -7.29465416433781
 Beta HF Exchange     Energy =  -7.29465416433779
 DFT Correlation      Energy =  -2.79868330312782
 DFT Exchange         Energy = -57.85487850582123
 One-Electron (alpha) Energy = -1011.24967700433717
 One-Electron (beta)  Energy = -1011.24967700433615
 Total Coulomb        Energy = 760.77858419453264
 Nuclear repulsion Energy = 298.75263009368592
 SCF   energy in the final basis set =    -1038.2110098581
 Total energy in the final basis set =    -1038.2110098581
 
 --------------------------------------------------------------
 
                    Orbital Energies (a.u.)
 --------------------------------------------------------------
 
 Alpha MOs
 -- Occupied --
*******-101.530 -10.258 -10.236 -10.196  -9.470  -9.446  -7.233
 -7.223  -7.222  -7.210  -7.200  -7.200  -1.000  -0.852  -0.751
 -0.678  -0.584  -0.519  -0.516  -0.475  -0.442  -0.406  -0.391
 -0.371  -0.307  -0.296  -0.279  -0.278
 -- Virtual --
  0.024   0.071   0.111   0.130   0.139   0.145   0.170   0.172
  0.199   0.214   0.340   0.381   0.429   0.433   0.439   0.451
  0.467   0.509   0.529   0.549   0.557   0.576   0.653   0.672
  0.688   0.696   0.742   0.775   0.829   0.842   0.848   0.863
  0.868   0.885   0.905   0.913   0.934   0.947   0.994   1.030
  1.076   1.145   1.181   1.351   1.385   1.439   1.489   1.582
  1.625   1.746   1.826   1.855   1.886   1.940   2.033   2.059
  2.081   2.097   2.103   2.241   2.298   2.334   2.376   2.400
  2.539   2.576   2.602   2.674   2.735   2.760   2.804   2.866
  2.888   3.187   3.246   3.334   3.399   3.430   3.468   4.192
  4.321   4.333   4.491   4.602
 
 Beta MOs
 -- Occupied --
*******-101.530 -10.258 -10.236 -10.196  -9.470  -9.446  -7.233
 -7.223  -7.222  -7.210  -7.200  -7.200  -1.000  -0.852  -0.751
 -0.678  -0.584  -0.519  -0.516  -0.475  -0.442  -0.406  -0.391
 -0.371  -0.307  -0.296  -0.279  -0.278
 -- Virtual --
  0.024   0.071   0.111   0.130   0.139   0.145   0.170   0.172
  0.199   0.214   0.340   0.381   0.429   0.433   0.439   0.451
  0.467   0.509   0.529   0.549   0.557   0.576   0.653   0.672
  0.688   0.696   0.742   0.775   0.829   0.842   0.848   0.863
  0.868   0.885   0.905   0.913   0.934   0.947   0.994   1.030
  1.076   1.145   1.181   1.351   1.385   1.439   1.489   1.582
  1.625   1.746   1.826   1.855   1.886   1.940   2.033   2.059
  2.081   2.097   2.103   2.241   2.298   2.334   2.376   2.400
  2.539   2.576   2.602   2.674   2.735   2.760   2.804   2.866
  2.888   3.187   3.246   3.334   3.399   3.430   3.468   4.192
  4.321   4.333   4.491   4.602
 --------------------------------------------------------------
 
          Ground-State Mulliken Net Atomic Charges

     Atom                 Charge (a.u.)    Spin (a.u.)
  --------------------------------------------------------
      1 Cl                   -0.097671       0.000000
      2 Cl                    0.071913       0.000000
      3 C                    -0.188989      -0.000000
      4 C                    -0.282354       0.000000
      5 C                    -0.310817      -0.000000
      6 H                     0.149577      -0.000000
      7 H                     0.126320      -0.000000
      8 H                     0.142042       0.000000
      9 H                     0.142404      -0.000000
     10 H                     0.133411      -0.000000
     11 H                     0.114164       0.000000
  --------------------------------------------------------
  Sum of atomic charges =    -0.000000
  Sum of spin   charges =    -0.000000

 -----------------------------------------------------------------
                    Cartesian Multipole Moments
 -----------------------------------------------------------------
    Charge (ESU x 10^10)
                 0.0000
    Dipole Moment (Debye)
         X       0.2818      Y      -2.0279      Z      -1.4396
       Tot       2.5029
    Quadrupole Moments (Debye-Ang)
        XX     -46.3113     XY       2.0847     YY     -45.1346
        XZ      -0.6827     YZ      -0.2371     ZZ     -43.2181
    Octopole Moments (Debye-Ang^2)
       XXX      -5.4670    XXY      -9.7564    XYY      -0.3518
       YYY     -22.8323    XXZ      -3.5213    XYZ      -0.1594
       YYZ      -2.7088    XZZ      -0.2512    YZZ      -7.3747
       ZZZ      -7.6795
    Hexadecapole Moments (Debye-Ang^3)
      XXXX    -504.0403   XXXY      33.4530   XXYY    -131.7709
      XYYY      25.5900   YYYY    -289.8460   XXXZ       7.7968
      XXYZ       0.8074   XYYZ      -1.6777   YYYZ       2.8736
      XXZZ     -99.7533   XYZZ      10.0429   YYZZ     -69.6912
      XZZZ      10.3343   YZZZ      -2.0376   ZZZZ    -122.9230
 -----------------------------------------------------------------
 Calculating analytic gradient of the SCF energy
 Gradient of SCF Energy
            1           2           3           4           5           6
    1  -0.0002203  -0.2908522   0.0133475   0.2647870  -0.0010020   0.0002127
    2  -0.0008198  -0.0398566   0.0038098   0.0349493  -0.0010590  -0.0003714
    3  -0.0014153  -0.3824801   0.0102589   0.3491891  -0.0003633  -0.0006499
            7           8           9          10          11
    1   0.0069812   0.0065961   0.0001315  -0.0000399   0.0000583
    2   0.0013404   0.0016618   0.0001372   0.0000945   0.0001138
    3   0.0132039   0.0130571  -0.0005714  -0.0003727   0.0001437
 Max gradient component =       3.825E-01
 RMS gradient           =       1.137E-01
 Gradient time:  CPU 10.00 s  wall 0.87 s
 Geometry Optimization Parameters
   NAtoms,    NIC,     NZ,  NCons,   NDum,   NFix, NCnnct, MaxDiis
       11      68       0       1       0       0       0       0

 Cartesian Hessian Update
 Hessian Updated using BFGS Update


** CONSTRAINED OPTIMIZATION IN DELOCALIZED INTERNAL COORDINATES **
   Searching for a Minimum

   Optimization Cycle:   4

                       Coordinates (Angstroms)
     ATOM                X               Y               Z
      1  Cl       -1.2553974414    1.3785515341    0.2387187912
      2  Cl        1.7748310978    0.0969560937    0.3675872587
      3  C        -0.5767004956   -0.1748305577   -0.4524537263
      4  C         0.9361993938   -0.0167493267   -0.7290373492
      5  C        -0.9391221822   -1.3466124599    0.4482519947
      6  H        -1.0762462669   -0.2790929133   -1.4197865457
      7  H         1.1800360387   -0.9049639199   -1.3321229731
      8  H         1.0235894440    0.8503464178   -1.3959240443
      9  H        -0.5045668513   -1.2336470305    1.4438489289
     10  H        -2.0229733267   -1.4286876360    0.5483445143
     11  H        -0.5593494101   -2.2758702016    0.0073711507
   Point Group: c1    Number of degrees of freedom:    27


   Energy is  -1038.211009858

              Constraints and their Current Values
                                        Value     Constraint
   Distance(Angs):        2   4             1.385214     0.900000
 Hessian Updated using BFGS Update
**WARNING** Constraint Gradient Reduced for constraint   1

   Using Lagrange Multiplier Algorithm


 27 Hessian modes will be used to form the next step
  Hessian Eigenvalues:
    -0.587899    0.108228    0.108229    0.175044    0.188679    0.194349
     0.200286    0.201982    0.203167    0.275692    0.377955    0.384812
     0.384813    0.384823    0.451883    0.537617    0.562597    0.576754
     0.716668    0.726743    0.820305    0.824105    0.827470    0.832265
     0.833009    0.837094    1.763460

 Minimum Search - Taking P-RFO Step
 Searching for Lamda that Maximizes Along the Constraint modes Only
 Value Taken    Lamda =   0.13607086


 ********************************************
 ** ERROR IN DETERMINING Lamda IN CONFormD **
 ********************************************


 ** Scaling Hessian by  2.514512 **


 27 Hessian modes will be used to form the next step
  Hessian Eigenvalues:
    -0.332874    0.272138    0.272143    0.439683    0.474039    0.484449
     0.492752    0.503628    0.510864    0.693135    0.933167    0.967615
     0.967616    0.967642    1.136237    1.350584    1.414465    1.450159
     1.785495    1.827405    2.062659    2.071799    2.074721    2.092740
     2.094593    2.102627    3.353198

 Minimum Search - Taking P-RFO Step
 Searching for Lamda that Maximizes Along the Constraint modes Only
 Value Taken    Lamda =   0.18953720
 Searching for Lamda that Minimizes Along All other modes
 Value Taken    Lamda =  -0.00850330
 Step Taken.  Stepsize is  0.287180

                             Maximum     Tolerance    Cnvgd?
         Gradient            0.300000       0.000300      NO
         Displacement        0.543834       0.001200      NO
         Energy change      0.078672       0.000001      NO


 New Cartesian Coordinates Obtained by Inverse Iteration

 Displacement from previous Coordinates is:  0.185841
 ----------------------------------------------------------------
             Standard Nuclear Orientation (Angstroms)
    I     Atom           X                Y                Z
 ----------------------------------------------------------------
    1      Cl     -1.2521684661     1.3780197153     0.2426293179
    2      Cl      1.7595224945     0.0961624355     0.3234351960
    3      C      -0.5634359200    -0.1737231419    -0.4475583388
    4      C       0.9733762727    -0.0116281540    -0.6850120167
    5      C      -0.9377627084    -1.3456852312     0.4480327619
    6      H      -1.0484270918    -0.2759399082    -1.4216497020
    7      H       1.1466069287    -0.8944527581    -1.3333962522
    8      H       0.9964210443     0.8317565730    -1.3981064484
    9      H      -0.5218548252    -1.2344559639     1.4523773768
   10      H      -2.0227598322    -1.4304379821     0.5311921931
   11      H      -0.5492178966    -2.2742155843     0.0128539123
 ----------------------------------------------------------------
 Nuclear Repulsion Energy =   302.5869682398 hartrees
 There are       29 alpha and       29 beta electrons

                       Distance Matrix (Angstroms)
             Cl(  1)   Cl(  2)   C (  3)   C (  4)   C (  5)   H (  6)
   Cl(  2)  3.274137
   C (  3)  1.832653  2.462398
   C (  4)  2.782928  1.283203  1.563474
   C (  5)  2.749475  3.061012  1.521742  2.591515
   H (  6)  2.355190  3.326915  1.092940  2.167991  2.156922
   H (  7)  3.660889  2.025358  2.056309  1.108959  2.778794  2.282218
   H (  8)  2.836648  2.021665  2.085110  1.104687  3.448268  2.325715
   H (  9)  2.970165  2.872236  2.176382  2.880878  1.092730  3.075071
   H ( 10)  2.926519  4.084034  2.160303  3.531148  1.091475  2.468964
   H ( 11)  3.726360  3.323467  2.150407  2.815069  1.096593  2.510003
             H (  7)   H (  8)   H (  9)   H ( 10)
   H (  8)  1.733938
   H (  9)  3.264950  3.834013
   H ( 10)  3.716027  4.237354  1.771922
   H ( 11)  2.567481  3.745247  1.775972  1.775376
 
 Applying Cartesian multipole field
    Component          Value
    ---------          -----
     (2,0,0)        1.00000E-11
     (0,2,0)        2.00000E-11
     (0,0,2)       -3.00000E-10
 Nucleus-field energy     =    -0.0000000099 hartrees
 Requested basis set is 6-31G(d,p)
 There are 40 shells and 113 basis functions
 A cutoff of  1.0D-14 yielded    795 shell pairs
 There are      6496 function pairs
 Smallest overlap matrix eigenvalue = 4.61E-03
 Guess from superposition of atomic densities
 Warning:  Energy on first SCF cycle will be non-variational
 SAD guess density has 58.000000 electrons

 -----------------------------------------------------------------------
  General SCF calculation program by
  Eric Jon Sundstrom, Paul Horn, Yuezhi Mao, Dmitri Zuev, Alec White,
  David Stuck, Shaama M.S., Shane Yost, Joonho Lee, David Small,
  Daniel Levine, Susi Lehtola, Hugh Burton, Evgeny Epifanovsky
 -----------------------------------------------------------------------
 Exchange:     0.2000 Hartree-Fock + 0.0800 Slater + 0.7200 B88
 Correlation:  0.1900 VWN1RPA + 0.8100 LYP
 Using SG-1 standard quadrature grid
 using 12 threads for integral computing
 -------------------------------------------------------
 OpenMP Integral computing Module                
 Release: version 1.0, May 2013, Q-Chem Inc. Pittsburgh 
 -------------------------------------------------------
 -------------------------------------------------------
 OpenMP BLAS3 based DFT computing Module                
 Release: version 1.0, May 2013, Q-Chem Inc. Pittsburgh 
 -------------------------------------------------------
 A unrestricted SCF calculation will be
 performed using DIIS
 SCF converges when DIIS error is below 1.0e-06
 Alpha HF Exchange    Energy =  -7.37776917341101
 Beta HF Exchange     Energy =  -7.37776917341101
 DFT Correlation      Energy =  -2.78882654258617
 DFT Exchange         Energy = -57.54634970444125
 One-Electron (alpha) Energy = -1013.13826785431809
 One-Electron (beta)  Energy = -1013.13826785431809
 Total Coulomb        Energy = 759.02774993256730
 ---------------------------------------
  Cycle       Energy         DIIS error
 ---------------------------------------
    1   -1039.7525321400      3.96e-02  
 Alpha HF Exchange    Energy =  -7.33132988804054
 Beta HF Exchange     Energy =  -7.33132988804054
 DFT Correlation      Energy =  -2.81463415517913
 DFT Exchange         Energy = -58.16543841391583
 One-Electron (alpha) Energy = -1017.03386904613853
 One-Electron (beta)  Energy = -1017.03386904613876
 Total Coulomb        Energy = 769.10572648000016
    2   -1038.0177757275      3.42e-03  
 Alpha HF Exchange    Energy =  -7.27399133947500
 Beta HF Exchange     Energy =  -7.27399133947499
 DFT Correlation      Energy =  -2.78954366329360
 DFT Exchange         Energy = -57.68269841193329
 One-Electron (alpha) Energy = -1012.54468192814056
 One-Electron (beta)  Energy = -1012.54468192813999
 Total Coulomb        Energy = 759.52107501500529
    3   -1038.0015453655      3.79e-03  
 Alpha HF Exchange    Energy =  -7.30037864256954
 Beta HF Exchange     Energy =  -7.30037864256954
 DFT Correlation      Energy =  -2.80234719454948
 DFT Exchange         Energy = -57.90566015110856
 One-Electron (alpha) Energy = -1014.89024302433143
 One-Electron (beta)  Energy = -1014.89024302433143
 Total Coulomb        Energy = 764.40988882400688
    4   -1038.0923936255      3.94e-04  
 Alpha HF Exchange    Energy =  -7.30159634778715
 Beta HF Exchange     Energy =  -7.30159634778715
 DFT Correlation      Energy =  -2.80226235252201
 DFT Exchange         Energy = -57.91387124525860
 One-Electron (alpha) Energy = -1014.87396324461690
 One-Electron (beta)  Energy = -1014.87396324461690
 Total Coulomb        Energy = 764.38703064216133
    5   -1038.0932539105      1.58e-04  
 Alpha HF Exchange    Energy =  -7.30138462900040
 Beta HF Exchange     Energy =  -7.30138462900039
 DFT Correlation      Energy =  -2.80230856352996
 DFT Exchange         Energy = -57.91272444695470
 One-Electron (alpha) Energy = -1014.87864159322919
 One-Electron (beta)  Energy = -1014.87864159322851
 Total Coulomb        Energy = 764.39471496168483
    6   -1038.0934022633      4.63e-05  
 Alpha HF Exchange    Energy =  -7.30127265810354
 Beta HF Exchange     Energy =  -7.30127265810354
 DFT Correlation      Energy =  -2.80224515591203
 DFT Exchange         Energy = -57.91165819380495
 One-Electron (alpha) Energy = -1014.86763376420947
 One-Electron (beta)  Energy = -1014.86763376420924
 Total Coulomb        Energy = 764.37133299540903
    7   -1038.0934149690      1.07e-05  
 Alpha HF Exchange    Energy =  -7.30129878568576
 Beta HF Exchange     Energy =  -7.30129878568576
 DFT Correlation      Energy =  -2.80225787574307
 DFT Exchange         Energy = -57.91188095651646
 One-Electron (alpha) Energy = -1014.87016709709962
 One-Electron (beta)  Energy = -1014.87016709709997
 Total Coulomb        Energy = 764.37668667498815
    8   -1038.0934156929      1.90e-06  
 Alpha HF Exchange    Energy =  -7.30130074578191
 Beta HF Exchange     Energy =  -7.30130074578191
 DFT Correlation      Energy =  -2.80225801349642
 DFT Exchange         Energy = -57.91189459748797
 One-Electron (alpha) Energy = -1014.87040989307775
 One-Electron (beta)  Energy = -1014.87040989307764
 Total Coulomb        Energy = 764.37718994465490
    9   -1038.0934157141      5.18e-07  Convergence criterion met
 ---------------------------------------
 SCF time:   CPU 24.90s  wall 2.00s 
<S^2> =          0.000000000
 Alpha HF Exchange    Energy =  -7.30130074578191
 Beta HF Exchange     Energy =  -7.30130074578191
 DFT Correlation      Energy =  -2.80225801349642
 DFT Exchange         Energy = -57.91189459748797
 One-Electron (alpha) Energy = -1014.87040989307775
 One-Electron (beta)  Energy = -1014.87040989307764
 Total Coulomb        Energy = 764.37718994465490
 Nuclear repulsion Energy = 302.58696822995518
 SCF   energy in the final basis set =    -1038.0934157141
[...]
     0.002053    0.002508    0.016172    0.033659    0.098361    0.118395
     0.137068    0.164852    0.194414    0.249098    0.268594    0.529044
     0.557533    0.629073    0.645429    0.903828    0.968925    1.012125
     1.085430    1.160664    1.396908    1.538071    1.978833    1.999350
     2.081267    2.091448

 Minimum Search - Taking Simple RFO Step
 Searching for Lamda that Minimizes Along All modes
 Value Taken    Lamda =   0.00000000
 Step Taken.  Stepsize is  0.004646

                             Maximum     Tolerance    Cnvgd?
         Gradient           0.000248      0.000300     YES
         Displacement       0.001697      0.001200      NO
         Energy change     -0.000002      0.000001      NO


 New Cartesian Coordinates Obtained by Inverse Iteration

 Displacement from previous Coordinates is:  0.006403
 ----------------------------------------------------------------
             Standard Nuclear Orientation (Angstroms)
    I     Atom           X                Y                Z
 ----------------------------------------------------------------
    1      Cl     -1.0647978183     1.2949828801     0.6557605491
    2      Cl      1.6458507346     0.9972554684    -0.2133203576
    3      C      -0.7811094812    -0.1555859942    -0.3833390032
    4      C       1.3787390133     0.2514340022    -0.6404055904
    5      C      -1.0848902386    -1.4549727163     0.3090194818
    6      H      -1.3370810874     0.0068538466    -1.3091447884
    7      H       1.4979986595    -0.8648928961    -0.3801964129
    8      H       1.1748406854     0.0357397419    -1.7513737557
    9      H      -0.4820602110    -1.5799902913     1.2171073021
   10      H      -2.1391815742    -1.5891193603     0.5941863781
   11      H      -0.8280086820    -2.2763046810    -0.3734958028
 ----------------------------------------------------------------
 Nuclear Repulsion Energy =   313.7830661874 hartrees
 There are       29 alpha and       29 beta electrons

                       Distance Matrix (Angstroms)
             Cl(  1)   Cl(  2)   C (  3)   C (  4)   C (  5)   H (  6)
   Cl(  2)  2.862090
   C (  3)  1.806753  2.692227
   C (  4)  2.956334  0.900000  2.212847
   C (  5)  2.771802  3.707183  1.503346  3.143676
   H (  6)  2.365220  3.328605  1.092066  2.807616  2.195220
   H (  7)  3.508019  1.875448  2.386935  1.152440  2.737614  3.108145
   H (  8)  3.520791  1.874025  2.394549  1.149934  3.402033  2.550716
   H (  9)  2.986664  3.635426  2.163281  3.204223  1.097113  3.103399
   H ( 10)  3.078334  4.654876  2.203391  4.157838  1.100384  2.610204
   H ( 11)  3.724182  4.106316  2.121260  3.366072  1.098363  2.519406
             H (  7)   H (  8)   H (  9)   H ( 10)
   H (  8)  1.672034
   H (  9)  2.642608  3.764012
   H ( 10)  3.834450  4.373164  1.770357
   H ( 11)  2.720742  3.354922  1.770467  1.768561
 
 Applying Cartesian multipole field
    Component          Value
    ---------          -----
     (2,0,0)        1.00000E-11
     (0,2,0)        2.00000E-11
     (0,0,2)       -3.00000E-10
 Nucleus-field energy     =    -0.0000000118 hartrees
 Requested basis set is 6-31G(d,p)
 There are 40 shells and 113 basis functions
 A cutoff of  1.0D-14 yielded    784 shell pairs
 There are      6438 function pairs
 Smallest overlap matrix eigenvalue = 1.11E-03
 Guess from superposition of atomic densities
 Warning:  Energy on first SCF cycle will be non-variational
 SAD guess density has 58.000000 electrons

 -----------------------------------------------------------------------
  General SCF calculation program by
  Eric Jon Sundstrom, Paul Horn, Yuezhi Mao, Dmitri Zuev, Alec White,
  David Stuck, Shaama M.S., Shane Yost, Joonho Lee, David Small,
  Daniel Levine, Susi Lehtola, Hugh Burton, Evgeny Epifanovsky
 -----------------------------------------------------------------------
 Exchange:     0.2000 Hartree-Fock + 0.0800 Slater + 0.7200 B88
 Correlation:  0.1900 VWN1RPA + 0.8100 LYP
 Using SG-1 standard quadrature grid
 using 12 threads for integral computing
 -------------------------------------------------------
 OpenMP Integral computing Module                
 Release: version 1.0, May 2013, Q-Chem Inc. Pittsburgh 
 -------------------------------------------------------
 -------------------------------------------------------
 OpenMP BLAS3 based DFT computing Module                
 Release: version 1.0, May 2013, Q-Chem Inc. Pittsburgh 
 -------------------------------------------------------
 A unrestricted SCF calculation will be
 performed using DIIS
 SCF converges when DIIS error is below 1.0e-06
 Alpha HF Exchange    Energy =  -7.43835735848813
 Beta HF Exchange     Energy =  -7.43835735848813
 DFT Correlation      Energy =  -2.79381961230644
 DFT Exchange         Energy = -57.71698753369501
 One-Electron (alpha) Energy = -1021.67797842936648
 One-Electron (beta)  Energy = -1021.67797842936648
 Total Coulomb        Energy = 764.75298328426595
 ---------------------------------------
  Cycle       Energy         DIIS error
 ---------------------------------------
    1   -1040.2074292618      6.13e-02  
 Alpha HF Exchange    Energy =  -7.38359098488005
 Beta HF Exchange     Energy =  -7.38359098488006
 DFT Correlation      Energy =  -2.83035047903213
 DFT Exchange         Energy = -58.63819234976626
 One-Electron (alpha) Energy = -1026.79273804263266
 One-Electron (beta)  Energy = -1026.79273804263312
 Total Coulomb        Energy = 779.87658032892625
    2   -1036.1615543793      6.59e-03  
 Alpha HF Exchange    Energy =  -7.28831231290638
 Beta HF Exchange     Energy =  -7.28831231290637
 DFT Correlation      Energy =  -2.79033224991173
 DFT Exchange         Energy = -57.84729459623463
 One-Electron (alpha) Energy = -1019.86243481335839
 One-Electron (beta)  Energy = -1019.86243481335794
 Total Coulomb        Energy = 765.20379514881529
    3   -1035.9522597742      8.34e-03  
 Alpha HF Exchange    Energy =  -7.33260193540254
 Beta HF Exchange     Energy =  -7.33260193540254
 DFT Correlation      Energy =  -2.81178243932068
 DFT Exchange         Energy = -58.21235483408901
 One-Electron (alpha) Energy = -1023.26387119704657
 One-Electron (beta)  Energy = -1023.26387119704668
 Total Coulomb        Energy = 772.07498220188006
    4   -1036.3590351608      2.56e-03  
 Alpha HF Exchange    Energy =  -7.33422619850611
 Beta HF Exchange     Energy =  -7.33422619850611
 DFT Correlation      Energy =  -2.81214047018547
 DFT Exchange         Energy = -58.23706078576563
 One-Electron (alpha) Energy = -1023.75206075030860
 One-Electron (beta)  Energy = -1023.75206075030849
 Total Coulomb        Energy = 773.03414457680969
    5   -1036.4045644011      6.60e-04  
 Alpha HF Exchange    Energy =  -7.33420448307137
 Beta HF Exchange     Energy =  -7.33420448307137
 DFT Correlation      Energy =  -2.81180617568050
 DFT Exchange         Energy = -58.23262962615873
 One-Electron (alpha) Energy = -1023.57607652111847
 One-Electron (beta)  Energy = -1023.57607652111881
 Total Coulomb        Energy = 772.67430503758260
    6   -1036.4076265970      2.19e-04  
 Alpha HF Exchange    Energy =  -7.33360017902798
 Beta HF Exchange     Energy =  -7.33360017902799
 DFT Correlation      Energy =  -2.81177561929072
 DFT Exchange         Energy = -58.22940449091967
 One-Electron (alpha) Energy = -1023.59134772260381
 One-Electron (beta)  Energy = -1023.59134772260393
 Total Coulomb        Energy = 772.69996995350959
    7   -1036.4080397843      4.00e-05  
 Alpha HF Exchange    Energy =  -7.33370839399831
 Beta HF Exchange     Energy =  -7.33370839399830
 DFT Correlation      Energy =  -2.81179527130439
 DFT Exchange         Energy = -58.23010311924493
 One-Electron (alpha) Energy = -1023.59524860191925
 One-Electron (beta)  Energy = -1023.59524860191857
 Total Coulomb        Energy = 772.70869506000440
    8   -1036.4080511467      7.01e-06  
 Alpha HF Exchange    Energy =  -7.33374853647590
 Beta HF Exchange     Energy =  -7.33374853647589
 DFT Correlation      Energy =  -2.81180958834278
 DFT Exchange         Energy = -58.23043165313145
 One-Electron (alpha) Energy = -1023.59881648099781
 One-Electron (beta)  Energy = -1023.59881648099736
 Total Coulomb        Energy = 772.71625362300290
    9   -1036.4080514778      1.70e-06  
 Alpha HF Exchange    Energy =  -7.33373934201744
 Beta HF Exchange     Energy =  -7.33373934201744
 DFT Correlation      Energy =  -2.81180720713915
 DFT Exchange         Energy = -58.23035446938613
 One-Electron (alpha) Energy = -1023.59766797706970
 One-Electron (beta)  Energy = -1023.59766797706982
 Total Coulomb        Energy = 772.71385864145032
   10   -1036.4080514976      5.43e-07  Convergence criterion met
 ---------------------------------------
 SCF time:   CPU 26.19s  wall 2.00s 
<S^2> =         -0.000000000
 Alpha HF Exchange    Energy =  -7.33373934201744
 Beta HF Exchange     Energy =  -7.33373934201744
 DFT Correlation      Energy =  -2.81180720713915
 DFT Exchange         Energy = -58.23035446938613
 One-Electron (alpha) Energy = -1023.59766797706970
 One-Electron (beta)  Energy = -1023.59766797706982
 Total Coulomb        Energy = 772.71385864145032
 Nuclear repulsion Energy = 313.78306617563123
 SCF   energy in the final basis set =    -1036.4080514976
 Total energy in the final basis set =    -1036.4080514976
 
 --------------------------------------------------------------
 
                    Orbital Energies (a.u.)
 --------------------------------------------------------------
 
 Alpha MOs
 -- Occupied --
*******-101.522 -10.371 -10.194 -10.172  -9.619  -9.438  -7.394
 -7.352  -7.349  -7.201  -7.194  -7.193  -1.146  -0.830  -0.716
 -0.680  -0.654  -0.612  -0.558  -0.511  -0.429  -0.400  -0.376
 -0.348  -0.307  -0.284  -0.228  -0.171
 -- Virtual --
 -0.004   0.045   0.060   0.098   0.145   0.160   0.163   0.184
  0.202   0.249   0.311   0.367   0.417   0.435   0.460   0.494
  0.501   0.510   0.546   0.577   0.597   0.624   0.638   0.644
  0.684   0.709   0.734   0.762   0.775   0.814   0.864   0.869
  0.877   0.892   0.913   0.939   0.951   0.984   1.039   1.042
  1.081   1.169   1.279   1.347   1.412   1.499   1.574   1.675
  1.773   1.846   1.906   1.922   2.014   2.057   2.089   2.098
  2.114   2.118   2.224   2.267   2.344   2.374   2.461   2.463
  2.576   2.611   2.639   2.677   2.760   2.772   2.861   2.872
  3.160   3.190   3.358   3.446   3.471   3.668   4.150   4.227
  4.325   4.381   4.579   5.769
 
 Beta MOs
 -- Occupied --
*******-101.522 -10.371 -10.194 -10.172  -9.619  -9.438  -7.394
 -7.352  -7.349  -7.201  -7.194  -7.193  -1.146  -0.830  -0.716
 -0.680  -0.654  -0.612  -0.558  -0.511  -0.429  -0.400  -0.376
 -0.348  -0.307  -0.284  -0.228  -0.171
 -- Virtual --
 -0.004   0.045   0.060   0.098   0.145   0.160   0.163   0.184
  0.202   0.249   0.311   0.367   0.417   0.435   0.460   0.494
  0.501   0.510   0.546   0.577   0.597   0.624   0.638   0.644
  0.684   0.709   0.734   0.762   0.775   0.814   0.864   0.869
  0.877   0.892   0.913   0.939   0.951   0.984   1.039   1.042
  1.081   1.169   1.279   1.347   1.412   1.499   1.574   1.675
  1.773   1.846   1.906   1.922   2.014   2.057   2.089   2.098
  2.114   2.118   2.224   2.267   2.344   2.374   2.461   2.463
  2.576   2.611   2.639   2.677   2.760   2.772   2.861   2.872
  3.160   3.190   3.358   3.446   3.471   3.668   4.150   4.227
  4.325   4.381   4.579   5.769
 --------------------------------------------------------------
 
          Ground-State Mulliken Net Atomic Charges

     Atom                 Charge (a.u.)    Spin (a.u.)
  --------------------------------------------------------
      1 Cl                   -0.126931       0.000000
      2 Cl                    0.724100      -0.000000
      3 C                    -0.343127      -0.000000
      4 C                    -0.518645       0.000000
      5 C                    -0.287931       0.000000
      6 H                     0.117041       0.000000
      7 H                     0.059808       0.000000
      8 H                     0.062809       0.000000
      9 H                     0.100539      -0.000000
     10 H                     0.108672       0.000000
     11 H                     0.103665      -0.000000
  --------------------------------------------------------
  Sum of atomic charges =    -0.000000
  Sum of spin   charges =    -0.000000

 -----------------------------------------------------------------
                    Cartesian Multipole Moments
 -----------------------------------------------------------------
    Charge (ESU x 10^10)
                -0.0000
    Dipole Moment (Debye)
         X       2.7545      Y      -0.7076      Z      -1.1387
       Tot       3.0634
    Quadrupole Moments (Debye-Ang)
        XX     -40.9386     XY       2.7585     YY     -45.1732
        XZ       0.0070     YZ      -1.4175     ZZ     -43.8125
    Octopole Moments (Debye-Ang^2)
       XXX       8.5138    XXY     -16.0631    XYY       1.4673
       YYY     -49.1540    XXZ      -4.2489    XYZ      -0.7535
       YYZ      -1.8130    XZZ       0.6859    YZZ     -15.3645
       ZZZ      -4.2948
    Hexadecapole Moments (Debye-Ang^3)
      XXXX    -458.2384   XXXY     -39.3268   XXYY    -142.3560
      XYYY     -44.9598   YYYY    -366.2635   XXXZ      52.4181
      XXYZ      -7.7397   XYYZ      18.1360   YYYZ      -8.6536
      XXZZ     -99.4351   XYZZ     -14.6376   YYZZ     -80.5138
      XZZZ      57.7216   YZZZ     -15.1651   ZZZZ    -134.9933
 -----------------------------------------------------------------
 Calculating analytic gradient of the SCF energy
 Gradient of SCF Energy
            1           2           3           4           5           6
    1  -0.0000586  -1.4983790   0.0000808   1.4984431  -0.0001086   0.0000079
    2   0.0001259  -4.1835428  -0.0003826   4.1835784   0.0001753   0.0001105
    3   0.0000376  -2.3958681   0.0000514   2.3957337   0.0000201  -0.0000510
            7           8           9          10          11
    1  -0.0000490   0.0000228  -0.0000006   0.0000139   0.0000274
    2  -0.0001121   0.0000784   0.0000364   0.0000177  -0.0000850
    3  -0.0000411   0.0001236  -0.0000285   0.0000325  -0.0000104
 Max gradient component =       4.184E+00
 RMS gradient           =       1.243E+00
 Gradient time:  CPU 9.83 s  wall 0.85 s
 Geometry Optimization Parameters
   NAtoms,    NIC,     NZ,  NCons,   NDum,   NFix, NCnnct, MaxDiis
       11      68       0       1       0       0       0       0

 Cartesian Hessian Update
 Hessian Updated using BFGS Update
**WARNING** Hereditary positive definiteness endangered


** CONSTRAINED OPTIMIZATION IN DELOCALIZED INTERNAL COORDINATES **
   Searching for a Minimum

   Optimization Cycle:  64

                       Coordinates (Angstroms)
     ATOM                X               Y               Z
      1  Cl       -1.0647978183    1.2949828801    0.6557605491
      2  Cl        1.6458507346    0.9972554684   -0.2133203576
      3  C        -0.7811094812   -0.1555859942   -0.3833390032
      4  C         1.3787390133    0.2514340022   -0.6404055904
      5  C        -1.0848902386   -1.4549727163    0.3090194818
      6  H        -1.3370810874    0.0068538466   -1.3091447884
      7  H         1.4979986595   -0.8648928961   -0.3801964129
      8  H         1.1748406854    0.0357397419   -1.7513737557
      9  H        -0.4820602110   -1.5799902913    1.2171073021
     10  H        -2.1391815742   -1.5891193603    0.5941863781
     11  H        -0.8280086820   -2.2763046810   -0.3734958028
   Point Group: c1    Number of degrees of freedom:    27


   Energy is  -1036.408051498

              Constraints and their Current Values
                                        Value     Constraint
   Distance(Angs):        2   4             0.900000     0.900000
 Hessian Updated using BFGS Update

 26 Hessian modes will be used to form the next step
  Hessian Eigenvalues:
     0.002029    0.002503    0.015961    0.033671    0.101871    0.118399
     0.130347    0.164345    0.196787    0.239765    0.265218    0.513718
     0.543494    0.574707    0.639420    0.884569    0.961377    0.980717
     1.031864    1.156613    1.391307    1.529680    1.979918    1.991168
     2.081193    2.091439

 Minimum Search - Taking Simple RFO Step
 Searching for Lamda that Minimizes Along All modes
 Value Taken    Lamda =   0.00000000
 Step Taken.  Stepsize is  0.002429

                             Maximum     Tolerance    Cnvgd?
         Gradient           0.000191      0.000300     YES
         Displacement       0.001364      0.001200      NO
         Energy change     -0.000000      0.000001     YES


                       Distance Matrix (Angstroms)
             Cl(  1)   Cl(  2)   C (  3)   C (  4)   C (  5)   H (  6)
   Cl(  2)  2.862090
   C (  3)  1.806753  2.692227
   C (  4)  2.956334  0.900000  2.212847
   C (  5)  2.771802  3.707183  1.503346  3.143676
   H (  6)  2.365220  3.328605  1.092066  2.807616  2.195220
   H (  7)  3.508019  1.875448  2.386935  1.152440  2.737614  3.108145
   H (  8)  3.520791  1.874025  2.394549  1.149934  3.402033  2.550716
   H (  9)  2.986664  3.635426  2.163281  3.204223  1.097113  3.103399
   H ( 10)  3.078334  4.654876  2.203391  4.157838  1.100384  2.610204
   H ( 11)  3.724182  4.106316  2.121260  3.366072  1.098363  2.519406
             H (  7)   H (  8)   H (  9)   H ( 10)
   H (  8)  1.672034
   H (  9)  2.642608  3.764012
   H ( 10)  3.834450  4.373164  1.770357
   H ( 11)  2.720742  3.354922  1.770467  1.768561
 
 Final energy is   -1036.40805149762     


 ******************************
 **  OPTIMIZATION CONVERGED  **
 ******************************

                       Coordinates (Angstroms)
     ATOM                X               Y               Z
      1  Cl       -1.0647978183    1.2949828801    0.6557605491
      2  Cl        1.6458507346    0.9972554684   -0.2133203576
      3  C        -0.7811094812   -0.1555859942   -0.3833390032
      4  C         1.3787390133    0.2514340022   -0.6404055904
      5  C        -1.0848902386   -1.4549727163    0.3090194818
      6  H        -1.3370810874    0.0068538466   -1.3091447884
      7  H         1.4979986595   -0.8648928961   -0.3801964129
      8  H         1.1748406854    0.0357397419   -1.7513737557
      9  H        -0.4820602110   -1.5799902913    1.2171073021
     10  H        -2.1391815742   -1.5891193603    0.5941863781
     11  H        -0.8280086820   -2.2763046810   -0.3734958028

Z-matrix Print:
$molecule
0 1
Cl
C  1 0.900000
H  2 1.149934 1 131.799214
H  2 1.152440 1 131.671835 3 153.406865 0
C  2 2.212847 1 112.766739 3 -103.682348 0
H  5 1.092066 2 111.781265 1 109.550187 0
C  5 1.503346 2 114.186750 1 -118.327970 0
H  7 1.097113 5 111.632795 2 47.741288 0
H  7 1.098363 5 108.233366 2 -70.366686 0
H  7 1.100384 5 114.728956 2 170.130694 0
Cl 5 1.806753 2 94.151428 1 -0.337698 0
$end

PES scan, value:    0.9000 energy: -1036.4080514976
------- Summary of potential scan: ------ 
    0.9000     -1036.4080514976
----------------------------------------- 
Archival summary:
1\1\hpc0332\JobtypUnspecified\ProcedureUnspecified\6-31G**\l236\knomura\MonMar1123:25:382019MonMar1123:25:382019\0\\#,JobtypUnspecified,ProcedureUnspecified,6-31G**,\\0,1\Cl\C,1,0.9\H,2,1.14993,1,131.799\H,2,1.15244,1,131.672,3,153.407,0\C,2,2.21285,1,112.767,3,-103.682,0\H,5,1.09207,2,111.781,1,109.55,0\C,5,1.50335,2,114.187,1,-118.328,0\H,7,1.09711,5,111.633,2,47.7413,0\H,7,1.09836,5,108.233,2,-70.3667,0\H,7,1.10038,5,114.729,2,170.131,0\Cl,5,1.80675,2,94.1514,1,-0.337698,0\\\@

 Total job time:  226.87s(wall), 2583.48s(cpu) 
 Mon Mar 11 23:25:38 2019

        *************************************************************
        *                                                           *
        *  Thank you very much for using Q-Chem.  Have a nice day.  *
        *                                                           *
        *************************************************************


