
Running Job 1 of 1 ruruma/CH3CHClCH2Cl_afterGeo_edge_singlet.xyz.data/inputs/bond_singlet_1.7.in
qchem ruruma/CH3CHClCH2Cl_afterGeo_edge_singlet.xyz.data/inputs/bond_singlet_1.7.in_20463.0 /staging/scratch/2858534/qchem20463/ 1
/usr/usc/qchem/5.1.1/exe/qcprog.exe_s ruruma/CH3CHClCH2Cl_afterGeo_edge_singlet.xyz.data/inputs/bond_singlet_1.7.in_20463.0 /staging/scratch/2858534/qchem20463/
Check license passed

                  Welcome to Q-Chem
     A Quantum Leap Into The Future Of Chemistry


 Q-Chem 5.1, Q-Chem, Inc., Pleasanton, CA (2018)

 Yihan Shao,  Zhengting Gan,  E. Epifanovsky,  A. T. B. Gilbert,  M. Wormit,  
 J. Kussmann,  A. W. Lange,  A. Behn,  Jia Deng,  Xintian Feng,  D. Ghosh,  
 M. Goldey,  P. R. Horn,  L. D. Jacobson,  I. Kaliman,  T. Kus,  A. Landau,  
 Jie Liu,  E. I. Proynov,  R. M. Richard,  R. P. Steele,  E. J. Sundstrom,  
 H. L. Woodcock III,  P. M. Zimmerman,  D. Zuev,  B. Albrecht,  E. Alguire,  
 S. A. Baeppler,  D. Barton,  Z. Benda,  Y. A. Bernard,  E. J. Berquist,  
 K. B. Bravaya,  H. Burton,  D. Casanova,  Chun-Min Chang,  Yunqing Chen,  
 A. Chien,  K. D. Closser,  M. P. Coons,  S. Coriani,  S. Dasgupta,  
 A. L. Dempwolff,  M. Diedenhofen,  Hainam Do,  R. G. Edgar,  Po-Tung Fang,  
 S. Faraji,  S. Fatehi,  Qingguo Feng,  K. D. Fenk,  J. Fosso-Tande,  
 Qinghui Ge,  A. Ghysels,  G. Gidofalvi,  J. Gomes,  J. Gonthier,  A. Gunina,  
 D. Hait,  M. W. D. Hanson-Heine,  P. H. P. Harbach,  A. W. Hauser,  
 J. E. Herr,  E. G. Hohenstein,  Z. C. Holden,  Kerwin Hui,  B. C. Huynh,  
 T.-C. Jagau,  Hyunjun Ji,  B. Kaduk,  K. Khistyaev,  Jaehoon Kim,  
 P. Klunzinger,  K. Koh,  D. Kosenkov,  L. Koulias,  T. Kowalczyk,  
 C. M. Krauter,  A. Kunitsa,  Ka Un Lao,  A. Laurent,  K. V. Lawler,  
 Joonho Lee,  D. Lefrancois,  S. Lehtola,  D. S. Levine,  Yi-Pei Li,  
 You-Sheng Lin,  Fenglai Liu,  E. Livshits,  A. Luenser,  P. Manohar,  
 E. Mansoor,  S. F. Manzer,  Shan-Ping Mao,  Yuezhi Mao,  N. Mardirossian,  
 A. V. Marenich,  T. Markovich,  L. A. Martinez-Martinez,  S. A. Maurer,  
 N. J. Mayhall,  S. C. McKenzie,  J.-M. Mewes,  A. F. Morrison,  
 J. W. Mullinax,  K. Nanda,  T. S. Nguyen-Beck,  R. Olivares-Amaya,  
 J. A. Parkhill,  T. M. Perrine,  F. Plasser,  P. Pokhilko,  S. Prager,  
 A. Prociuk,  E. Ramos,  D. R. Rehn,  F. Rob,  M. Schneider,  N. Sergueev,  
 S. M. Sharada,  S. Sharma,  D. W. Small,  T. Stauch,  T. Stein,  
 Yu-Chuan Su,  A. J. W. Thom,  A. Tkatchenko,  T. Tsuchimochi,  N. M. Tubman,  
 L. Vogt,  M. L. Vidal,  O. Vydrov,  M. A. Watson,  J. Wenzel,  
 M. de Wergifosse,  T. A. Wesolowski,  A. White,  J. Witte,  A. Yamada,  
 Jun Yang,  K. Yao,  S. Yeganeh,  S. R. Yost,  Zhi-Qiang You,  A. Zech,  
 Igor Ying Zhang,  Xing Zhang,  Yan Zhao,  Ying Zhu,  B. R. Brooks,  
 G. K. L. Chan,  C. J. Cramer,  M. S. Gordon,  W. J. Hehre,  A. Klamt,  
 M. W. Schmidt,  C. D. Sherrill,  D. G. Truhlar,  A. Aspuru-Guzik,  R. Baer,  
 A. T. Bell,  N. A. Besley,  Jeng-Da Chai,  A. E. DePrince, III,  
 R. A. DiStasio Jr.,  A. Dreuw,  B. D. Dunietz,  T. R. Furlani,  
 Chao-Ping Hsu,  Yousung Jung,  Jing Kong,  D. S. Lambrecht,  WanZhen Liang,  
 C. Ochsenfeld,  V. A. Rassolov,  L. V. Slipchenko,  J. E. Subotnik,  
 T. Van Voorhis,  J. M. Herbert,  A. I. Krylov,  P. M. W. Gill,  M. Head-Gordon

 Contributors to earlier versions of Q-Chem not listed above: 
 R. D. Adamson,  B. Austin,  J. Baker,  G. J. O. Beran,  K. Brandhorst,  
 S. T. Brown,  E. F. C. Byrd,  A. K. Chakraborty,  C.-L. Cheng,  
 Siu Hung Chien,  D. M. Chipman,  D. L. Crittenden,  H. Dachsel,  
 R. J. Doerksen,  A. D. Dutoi,  L. Fusti-Molnar,  W. A. Goddard III,  
 A. Golubeva-Zadorozhnaya,  S. R. Gwaltney,  G. Hawkins,  A. Heyden,  
 S. Hirata,  G. Kedziora,  F. J. Keil,  C. Kelley,  Jihan Kim,  R. A. King,  
 R. Z. Khaliullin,  P. P. Korambath,  W. Kurlancheek,  A. M. Lee,  M. S. Lee,  
 S. V. Levchenko,  Ching Yeh Lin,  D. Liotard,  R. C. Lochan,  I. Lotan,  
 P. E. Maslen,  N. Nair,  D. P. O'Neill,  D. Neuhauser,  E. Neuscamman,  
 C. M. Oana,  R. Olson,  B. Peters,  R. Peverati,  P. A. Pieniazek,  
 Y. M. Rhee,  J. Ritchie,  M. A. Rohrdanz,  E. Rosta,  N. J. Russ,  
 H. F. Schaefer III,  N. E. Schultz,  N. Shenvi,  A. C. Simmonett,  A. Sodt,  
 D. Stuck,  K. S. Thanthiriwatte,  V. Vanovschi,  Tao Wang,  A. Warshel,  
 C. F. Williams,  Q. Wu,  X. Xu,  W. Zhang

 Please cite Q-Chem as follows:
 Y. Shao et al., Mol. Phys. 113, 184-215 (2015)
 DOI: 10.1080/00268976.2014.952696

 Q-Chem 5.1.1 for Intel X86 EM64T Linux

 Parts of Q-Chem use Armadillo 8.300.2 (Tropical Shenanigans).
 http://arma.sourceforge.net/

 Q-Chem begins on Mon Mar 11 23:13:08 2019  

Host: 
0

     Scratch files written to /staging/scratch/2858534/qchem20463//
 Aug318 |scratch|qcdevops|jenkins|workspace|build_RNUM 6013   
Processing $rem in /usr/usc/qchem/5.1.1/config/preferences.
 MEM_TOTAL  2000 
Input Ideriv = 2
Curr. Ideriv = -1
Max.  Ideriv = 2

Checking the input file for inconsistencies... 	...done.

--------------------------------------------------------------
User input:
--------------------------------------------------------------

$comment
potential surface scanner
$end

$rem
JOBTYPE  PES_SCAN
UNRESTRICTED TRUE
SYM_IGNORE  TRUE
GEOM_OPT_MAX_CYCLES 400
SCF_MAX_CYCLES 400
METHOD   B3LYP
BASIS   6-31G**
PDB_PRINT 2
SCF_CONVERGENCE 6
THRESH 14
SCF_PRINT 1
$end
$molecule
0 1
Cl -1.271337 1.376813 0.223864
Cl 1.954052 0.118637 0.611689
C -0.615377 -0.179542 -0.477229
C 0.860334 -0.027482 -0.823928
C -0.945393 -1.347408 0.440549
H -1.141317 -0.286818 -1.431387
H 1.187714 -0.914977 -1.371435
H 1.028018 0.858113 -1.436294
H -0.469897 -1.223340 1.415209
H -2.024892 -1.429544 0.581904
H -0.581605 -2.279052 -0.008144
$end
$scan
stre 2 4 1.700000 1.701000 0.100000
$end
--------------------------------------------------------------
 ----------------------------------------------------------------
             Standard Nuclear Orientation (Angstroms)
    I     Atom           X                Y                Z
 ----------------------------------------------------------------
    1      Cl     -1.2713370000     1.3768130000     0.2238640000
    2      Cl      1.9540520000     0.1186370000     0.6116890000
    3      C      -0.6153770000    -0.1795420000    -0.4772290000
    4      C       0.8603340000    -0.0274820000    -0.8239280000
    5      C      -0.9453930000    -1.3474080000     0.4405490000
    6      H      -1.1413170000    -0.2868180000    -1.4313870000
    7      H       1.1877140000    -0.9149770000    -1.3714350000
    8      H       1.0280180000     0.8581130000    -1.4362940000
    9      H      -0.4698970000    -1.2233400000     1.4152090000
   10      H      -2.0248920000    -1.4295440000     0.5819040000
   11      H      -0.5816050000    -2.2790520000    -0.0081440000
 ----------------------------------------------------------------
 Nuclear Repulsion Energy =   282.3913884263 hartrees
 There are       29 alpha and       29 beta electrons
 Requested basis set is 6-31G(d,p)
 There are 40 shells and 113 basis functions

 Total QAlloc Memory Limit   2000 MB
 Mega-Array Size       188 MB
 MEM_STATIC part       192 MB
A total of 1 constraints
  
            1
    1   1.0100000
    2   2.0100000
    3   4.0100000
    4   1.7000000
    5   1.7010000
    6   0.1000000
    7   0.0000000
    8   0.0000000
    9   0.0000000
   10   0.0000000

                       Distance Matrix (Angstroms)
             Cl(  1)   Cl(  2)   C (  3)   C (  4)   C (  5)   H (  6)
   Cl(  2)  3.483755
   C (  3)  1.828676  2.806531
   C (  4)  2.759336  1.810681  1.523498
   C (  5)  2.752194  3.253515  1.521558  2.569388
   H (  6)  2.350410  3.730933  1.094778  2.107811  2.160412
   H (  7)  3.720781  2.363982  2.142803  1.092973  2.832036  2.412999
   H (  8)  2.883090  2.366136  2.167321  1.089674  3.504456  2.452938
   H (  9)  2.970253  2.884801  2.166103  2.865890  1.091536  3.070991
   H ( 10)  2.927743  4.269631  2.161250  3.502381  1.091808  2.477876
   H ( 11)  3.727587  3.544385  2.151540  2.795400  1.096188  2.511552
             H (  7)   H (  8)   H (  9)   H ( 10)
   H (  8)  1.781448
   H (  9)  3.257015  3.835005
   H ( 10)  3.794885  4.315873  1.776211
   H ( 11)  2.617203  3.804248  1.775652  1.775640
 
 A cutoff of  1.0D-14 yielded    790 shell pairs
 There are      6463 function pairs
 
 -------------------------------------------------------
 OpenMP Integral Computing Module                       
 Release: version 1.0, May 2013, Q-Chem Inc. Pittsburgh 
 -------------------------------------------------------
 Integral Job Info:
 Integral job number is                      11
 Integral operator is                         1
 short-range coefficients                     0
 long-range coefficients              100000000
 Omega coefficients                           0
 if combine SR and LR in K                    0
 Integral screening is                        0
 Integral computing path is                   2
 max size of driver memory is            800000
 size of driver memory is                593474
 size of scratch memory is             15267112
 max col of scratch BK array               1296
 max len of scratch array in speh3          155
 max len of scratch index in speh4           18
 max int batch size is                      520
 min int batch size is                       52
 fixed nKL is                                52
 max L of basis functions is                  2
 order of int derivative is                   0
 number of shells is                         40
 number of basis is                         113
 number of cartesian basis is               113
 number of contracted shell pairs           790
 number of primitive shell pairs           3285
 maxK2 (contraction) of shell pair           36
 max number of K2 of shell pair               1
 max number of CS2 of shell pair             60
 max number of PS2 of shell pair            336
 mem total for path MDJ                  520332
 -------------------------------------------------------
 Smallest overlap matrix eigenvalue = 5.58E-03

 Scale SEOQF with 1.000000e-01/1.000000e-01/1.000000e+00

 Standard Electronic Orientation quadrupole field applied
 Nucleus-field energy     =    -0.0000000158 hartrees
 Guess from superposition of atomic densities
 Warning:  Energy on first SCF cycle will be non-variational
 SAD guess density has 58.000000 electrons

 -----------------------------------------------------------------------
  General SCF calculation program by
  Eric Jon Sundstrom, Paul Horn, Yuezhi Mao, Dmitri Zuev, Alec White,
  David Stuck, Shaama M.S., Shane Yost, Joonho Lee, David Small,
  Daniel Levine, Susi Lehtola, Hugh Burton, Evgeny Epifanovsky
 -----------------------------------------------------------------------
 Exchange:     0.2000 Hartree-Fock + 0.0800 Slater + 0.7200 B88
 Correlation:  0.1900 VWN1RPA + 0.8100 LYP
 Using SG-1 standard quadrature grid
 using 12 threads for integral computing
 -------------------------------------------------------
 OpenMP Integral computing Module                
 Release: version 1.0, May 2013, Q-Chem Inc. Pittsburgh 
 -------------------------------------------------------
 -------------------------------------------------------
 OpenMP BLAS3 based DFT computing Module                
 Release: version 1.0, May 2013, Q-Chem Inc. Pittsburgh 
 -------------------------------------------------------
 A unrestricted SCF calculation will be
 performed using DIIS
 SCF converges when DIIS error is below 1.0e-06
 Alpha HF Exchange    Energy =  -7.30129902704037
 Beta HF Exchange     Energy =  -7.30129902704037
 DFT Correlation      Energy =  -2.77270974655088
 DFT Exchange         Energy = -57.38471945758086
 One-Electron (alpha) Energy = -993.48098318073494
 One-Electron (beta)  Energy = -993.48098318073494
 Total Coulomb        Energy = 740.42944441561110
 ---------------------------------------
  Cycle       Energy         DIIS error
 ---------------------------------------
    1   -1038.9011607936      2.85e-02  
 Alpha HF Exchange    Energy =  -7.29748282855918
 Beta HF Exchange     Energy =  -7.29748282855918
 DFT Correlation      Energy =  -2.79467677365200
 DFT Exchange         Energy = -57.89853378426720
 One-Electron (alpha) Energy = -996.72973630784747
 One-Electron (beta)  Energy = -996.72973630784736
 Total Coulomb        Energy = 748.06405196353808
    2   -1038.2922084567      2.68e-03  
 Alpha HF Exchange    Energy =  -7.25384690324246
 Beta HF Exchange     Energy =  -7.25384690324247
 DFT Correlation      Energy =  -2.77659031678375
 DFT Exchange         Energy = -57.53315020757702
 One-Electron (alpha) Energy = -993.83373748141071
 One-Electron (beta)  Energy = -993.83373748141116
 Total Coulomb        Energy = 741.79931972522695
    3   -1038.2942011580      2.67e-03  
 Alpha HF Exchange    Energy =  -7.27232483018712
 Beta HF Exchange     Energy =  -7.27232483018713
 DFT Correlation      Energy =  -2.78518099125493
 DFT Exchange         Energy = -57.68821642653636
 One-Electron (alpha) Energy = -995.17523655060813
 One-Electron (beta)  Energy = -995.17523655060893
 Total Coulomb        Energy = 744.63612071340754
    4   -1038.3410110555      2.94e-04  
 Alpha HF Exchange    Energy =  -7.27377553681026
 Beta HF Exchange     Energy =  -7.27377553681026
 DFT Correlation      Energy =  -2.78518713236962
 DFT Exchange         Energy = -57.69852901922974
 One-Electron (alpha) Energy = -995.22705127886888
 One-Electron (beta)  Energy = -995.22705127886888
 Total Coulomb        Energy = 744.75248384952579
    5   -1038.3414975230      1.22e-04  
 Alpha HF Exchange    Energy =  -7.27340328578547
 Beta HF Exchange     Energy =  -7.27340328578548
 DFT Correlation      Energy =  -2.78523026600751
 DFT Exchange         Energy = -57.69613815957982
 One-Electron (alpha) Energy = -995.21556249664627
 One-Electron (beta)  Energy = -995.21556249664661
 Total Coulomb        Energy = 744.72632521458183
    6   -1038.3415863654      4.76e-05  
 Alpha HF Exchange    Energy =  -7.27331308674870
 Beta HF Exchange     Energy =  -7.27331308674869
 DFT Correlation      Energy =  -2.78516221689389
 DFT Exchange         Energy = -57.69520892239398
 One-Electron (alpha) Energy = -995.20429516820889
 One-Electron (beta)  Energy = -995.20429516820866
 Total Coulomb        Energy = 744.70259846908345
    7   -1038.3416007696      5.65e-06  
 Alpha HF Exchange    Energy =  -7.27336027340681
 Beta HF Exchange     Energy =  -7.27336027340681
 DFT Correlation      Energy =  -2.78517973623670
 DFT Exchange         Energy = -57.69559382113655
 One-Electron (alpha) Energy = -995.20918035677494
 One-Electron (beta)  Energy = -995.20918035677437
 Total Coulomb        Energy = 744.71286544093152
    8   -1038.3416009663      1.49e-06  
 Alpha HF Exchange    Energy =  -7.27335053706767
 Beta HF Exchange     Energy =  -7.27335053706767
 DFT Correlation      Energy =  -2.78517649927360
 DFT Exchange         Energy = -57.69551433730119
 One-Electron (alpha) Energy = -995.20817167372093
 One-Electron (beta)  Energy = -995.20817167372070
 Total Coulomb        Energy = 744.71074586646898
    9   -1038.3416009812      3.04e-07  Convergence criterion met
 ---------------------------------------
 SCF time:   CPU 24.32s  wall 2.00s 
<S^2> =         -0.000000000
 Alpha HF Exchange    Energy =  -7.27335053706767
 Beta HF Exchange     Energy =  -7.27335053706767
 DFT Correlation      Energy =  -2.78517649927360
 DFT Exchange         Energy = -57.69551433730119
 One-Electron (alpha) Energy = -995.20817167372093
 One-Electron (beta)  Energy = -995.20817167372070
 Total Coulomb        Energy = 744.71074586646898
 Nuclear repulsion Energy = 282.39138841047981
 SCF   energy in the final basis set =    -1038.3416009812
 Total energy in the final basis set =    -1038.3416009812
 
 --------------------------------------------------------------
 
                    Orbital Energies (a.u.)
 --------------------------------------------------------------
 
 Alpha MOs
 -- Occupied --
*******-101.535 -10.272 -10.264 -10.199  -9.456  -9.452  -7.221
 -7.216  -7.211  -7.210  -7.206  -7.206  -0.887  -0.836  -0.758
 -0.701  -0.592  -0.496  -0.486  -0.452  -0.418  -0.395  -0.386
 -0.373  -0.309  -0.304  -0.299  -0.296
 -- Virtual --
  0.007   0.030   0.073   0.125   0.134   0.141   0.159   0.171
  0.190   0.214   0.364   0.393   0.420   0.431   0.446   0.457
  0.463   0.498   0.521   0.533   0.547   0.569   0.600   0.660
  0.675   0.683   0.746   0.806   0.822   0.839   0.856   0.868
  0.874   0.893   0.899   0.910   0.920   0.952   0.973   0.994
  1.048   1.078   1.100   1.183   1.330   1.395   1.420   1.554
  1.577   1.729   1.801   1.819   1.862   1.884   2.029   2.048
  2.053   2.074   2.087   2.108   2.227   2.278   2.336   2.371
  2.490   2.567   2.596   2.637   2.663   2.728   2.808   2.859
  2.886   3.186   3.234   3.320   3.400   3.430   3.465   4.151
  4.269   4.330   4.443   4.565
 
 Beta MOs
 -- Occupied --
*******-101.535 -10.272 -10.264 -10.199  -9.456  -9.452  -7.221
 -7.216  -7.211  -7.210  -7.206  -7.206  -0.887  -0.836  -0.758
 -0.701  -0.592  -0.496  -0.486  -0.452  -0.418  -0.395  -0.386
 -0.373  -0.309  -0.304  -0.299  -0.296
 -- Virtual --
  0.007   0.030   0.073   0.125   0.134   0.141   0.159   0.171
  0.190   0.214   0.364   0.393   0.420   0.431   0.446   0.457
  0.463   0.498   0.521   0.533   0.547   0.569   0.600   0.660
  0.675   0.683   0.746   0.806   0.822   0.839   0.856   0.868
  0.874   0.893   0.899   0.910   0.920   0.952   0.973   0.994
  1.048   1.078   1.100   1.183   1.330   1.395   1.420   1.554
  1.577   1.729   1.801   1.819   1.862   1.884   2.029   2.048
  2.053   2.074   2.087   2.108   2.227   2.278   2.336   2.371
  2.490   2.567   2.596   2.637   2.663   2.728   2.808   2.859
  2.886   3.186   3.234   3.320   3.400   3.430   3.465   4.151
  4.269   4.330   4.443   4.565
 --------------------------------------------------------------
 
          Ground-State Mulliken Net Atomic Charges

     Atom                 Charge (a.u.)    Spin (a.u.)
  --------------------------------------------------------
      1 Cl                   -0.078184       0.000000
      2 Cl                   -0.070809       0.000000
      3 C                    -0.174412      -0.000000
      4 C                    -0.266803      -0.000000
      5 C                    -0.303750      -0.000000
      6 H                     0.160006       0.000000
      7 H                     0.160448       0.000000
      8 H                     0.173712       0.000000
      9 H                     0.153032       0.000000
     10 H                     0.131614       0.000000
     11 H                     0.115146       0.000000
  --------------------------------------------------------
  Sum of atomic charges =    -0.000000
  Sum of spin   charges =     0.000000

 -----------------------------------------------------------------
                    Cartesian Multipole Moments
 -----------------------------------------------------------------
    Charge (ESU x 10^10)
                -0.0000
    Dipole Moment (Debye)
         X      -0.5442      Y      -2.0706      Z      -2.1131
       Tot       3.0081
    Quadrupole Moments (Debye-Ang)
        XX     -48.1439     XY       1.9339     YY     -45.2388
        XZ      -1.2733     YZ      -0.1517     ZZ     -42.5934
    Octopole Moments (Debye-Ang^2)
       XXX     -15.8519    XXY      -9.9904    XYY      -3.1457
       YYY     -23.3576    XXZ      -6.0945    XYZ      -0.1409
       YYZ      -5.2742    XZZ      -1.7494    YZZ      -7.6126
       ZZZ     -15.8070
    Hexadecapole Moments (Debye-Ang^3)
      XXXX    -570.7431   XXXY      31.4149   XXYY    -142.2750
      XYYY      23.1019   YYYY    -288.3984   XXXZ     -12.4566
      XXYZ       0.9299   XYYZ      -9.8061   YYYZ       2.0335
      XXZZ    -110.9791   XYZZ       9.4561   YYZZ     -72.2259
      XZZZ     -11.4310   YZZZ      -3.0120   ZZZZ    -142.0758
 -----------------------------------------------------------------
 Calculating analytic gradient of the SCF energy
 Gradient of SCF Energy
            1           2           3           4           5           6
    1   0.0000065   0.0000242  -0.0000508  -0.0000025  -0.0000068   0.0000138
    2  -0.0000082  -0.0000024   0.0000307  -0.0000084  -0.0000423   0.0000026
    3  -0.0000040   0.0000487  -0.0000141  -0.0000963   0.0000216  -0.0000177
            7           8           9          10          11
    1  -0.0000082  -0.0000199   0.0000196   0.0000219   0.0000021
    2   0.0000014   0.0000062   0.0000127   0.0000117  -0.0000039
    3   0.0000316   0.0000243   0.0000059  -0.0000120   0.0000119
 Max gradient component =       9.625E-05
 RMS gradient           =       2.615E-05
 Gradient time:  CPU 9.75 s  wall 0.86 s
 Geometry Optimization Parameters
   NAtoms,    NIC,     NZ,  NCons,   NDum,   NFix, NCnnct, MaxDiis
       11      68       0       1       0       0       0       0


** CONSTRAINED OPTIMIZATION IN DELOCALIZED INTERNAL COORDINATES **
   Searching for a Minimum

   Optimization Cycle:   1

                       Coordinates (Angstroms)
     ATOM                X               Y               Z
      1  Cl       -1.2713370000    1.3768130000    0.2238640000
      2  Cl        1.9540520000    0.1186370000    0.6116890000
      3  C        -0.6153770000   -0.1795420000   -0.4772290000
      4  C         0.8603340000   -0.0274820000   -0.8239280000
      5  C        -0.9453930000   -1.3474080000    0.4405490000
      6  H        -1.1413170000   -0.2868180000   -1.4313870000
      7  H         1.1877140000   -0.9149770000   -1.3714350000
      8  H         1.0280180000    0.8581130000   -1.4362940000
      9  H        -0.4698970000   -1.2233400000    1.4152090000
     10  H        -2.0248920000   -1.4295440000    0.5819040000
     11  H        -0.5816050000   -2.2790520000   -0.0081440000
   Point Group: c1    Number of degrees of freedom:    27


   Energy is  -1038.341600981

              Constraints and their Current Values
                                        Value     Constraint
   Distance(Angs):        2   4             1.810681     1.700000

 Attempting to Generate Delocalized Internal Coordinates

   Using Lagrange Multiplier Algorithm


 28 Hessian modes will be used to form the next step
  Hessian Eigenvalues:
    -0.881500    0.045000    0.045000    0.072805    0.078457    0.080867
     0.083277    0.084473    0.086057    0.114626    0.160000    0.160000
     0.160000    0.160000    0.160000    0.187889    0.223737    0.233948
     0.239819    0.300322    0.302170    0.341072    0.342663    0.344714
     0.346045    0.346357    0.348504    1.134430

 Minimum Search - Taking P-RFO Step
 Searching for Lamda that Maximizes Along the Constraint modes Only
 Value Taken    Lamda =   0.02708239
 Searching for Lamda that Minimizes Along All other modes
 Value Taken    Lamda =  -0.01662827
 Step Taken.  Stepsize is  0.204329

                             Maximum     Tolerance    Cnvgd?
         Gradient            0.209157       0.000300      NO
         Displacement        0.204328       0.001200      NO
         Energy change     *********       0.000001      NO


 New Cartesian Coordinates Obtained by Inverse Iteration

 Displacement from previous Coordinates is:  0.188023
 ----------------------------------------------------------------
             Standard Nuclear Orientation (Angstroms)
    I     Atom           X                Y                Z
 ----------------------------------------------------------------
    1      Cl     -1.2669800083     1.3773875961     0.2286724359
    2      Cl      1.8913984414     0.1093335066     0.5447856657
    3      C      -0.6079337491    -0.1782991125    -0.4710601960
    4      C       0.8695315343    -0.0262145872    -0.8102456238
    5      C      -0.9431173780    -1.3472092548     0.4434467085
    6      H      -1.1291813770    -0.2842486585    -1.4279247315
    7      H       1.1994121447    -0.9130855165    -1.3573171221
    8      H       1.0405656672     0.8600374246    -1.4207638773
    9      H      -0.4726243393    -1.2247600539     1.4207129705
   10      H      -2.0233781211    -1.4291948822     0.5792196013
   11      H      -0.5773928150    -2.2783464617    -0.0047278310
 ----------------------------------------------------------------
 Nuclear Repulsion Energy =   286.6336396760 hartrees
 There are       29 alpha and       29 beta electrons

                       Distance Matrix (Angstroms)
             Cl(  1)   Cl(  2)   C (  3)   C (  4)   C (  5)   H (  6)
   Cl(  2)  3.418076
   C (  3)  1.828696  2.713178
   C (  4)  2.759372  1.702555  1.523509
   C (  5)  2.752171  3.188458  1.521520  2.569527
   H (  6)  2.350391  3.629104  1.094767  2.107834  2.160217
   H (  7)  3.720849  2.267638  2.142863  1.093000  2.832251  2.413041
   H (  8)  2.883237  2.269550  2.167402  1.089692  3.504599  2.453007
   H (  9)  2.970376  2.852307  2.166147  2.866194  1.091516  3.070890
   H ( 10)  2.927785  4.206392  2.161322  3.502555  1.091842  2.477724
   H ( 11)  3.727519  3.478205  2.151418  2.795451  1.096189  2.511252
             H (  7)   H (  8)   H (  9)   H ( 10)
   H (  8)  1.781354
   H (  9)  3.257345  3.835377
   H ( 10)  3.795118  4.316048  1.776159
   H ( 11)  2.617340  3.804261  1.775641  1.775648
 
 Applying Cartesian multipole field
    Component          Value
    ---------          -----
     (2,0,0)        1.00000E-11
     (0,2,0)        2.00000E-11
     (0,0,2)       -3.00000E-10
 Nucleus-field energy     =    -0.0000000144 hartrees
 Requested basis set is 6-31G(d,p)
 There are 40 shells and 113 basis functions
 A cutoff of  1.0D-14 yielded    792 shell pairs
 There are      6476 function pairs
 Smallest overlap matrix eigenvalue = 5.49E-03
 Guess from superposition of atomic densities
 Warning:  Energy on first SCF cycle will be non-variational
 SAD guess density has 58.000000 electrons

 -----------------------------------------------------------------------
  General SCF calculation program by
  Eric Jon Sundstrom, Paul Horn, Yuezhi Mao, Dmitri Zuev, Alec White,
  David Stuck, Shaama M.S., Shane Yost, Joonho Lee, David Small,
  Daniel Levine, Susi Lehtola, Hugh Burton, Evgeny Epifanovsky
 -----------------------------------------------------------------------
 Exchange:     0.2000 Hartree-Fock + 0.0800 Slater + 0.7200 B88
 Correlation:  0.1900 VWN1RPA + 0.8100 LYP
 Using SG-1 standard quadrature grid
 using 12 threads for integral computing
 -------------------------------------------------------
 OpenMP Integral computing Module                
 Release: version 1.0, May 2013, Q-Chem Inc. Pittsburgh 
 -------------------------------------------------------
 -------------------------------------------------------
 OpenMP BLAS3 based DFT computing Module                
 Release: version 1.0, May 2013, Q-Chem Inc. Pittsburgh 
 -------------------------------------------------------
 A unrestricted SCF calculation will be
 performed using DIIS
 SCF converges when DIIS error is below 1.0e-06
 Alpha HF Exchange    Energy =  -7.31307554449475
 Beta HF Exchange     Energy =  -7.31307554449475
 DFT Correlation      Energy =  -2.77581726221742
 DFT Exchange         Energy = -57.40822686231891
 One-Electron (alpha) Energy = -997.68459320991963
 One-Electron (beta)  Energy = -997.68459320991963
 Total Coulomb        Energy = 744.52621224729876
 ---------------------------------------
  Cycle       Energy         DIIS error
 ---------------------------------------
    1   -1039.0195297244      2.96e-02  
 Alpha HF Exchange    Energy =  -7.30242847626024
 Beta HF Exchange     Energy =  -7.30242847626025
 DFT Correlation      Energy =  -2.79815201185386
 DFT Exchange         Energy = -57.93331441264982
 One-Electron (alpha) Energy = -1000.98730725726898
 One-Electron (beta)  Energy = -1000.98730725726955
 Total Coulomb        Energy = 752.39173137800890
    2   -1038.2855668519      2.73e-03  
 Alpha HF Exchange    Energy =  -7.25801048842854
 Beta HF Exchange     Energy =  -7.25801048842854
 DFT Correlation      Energy =  -2.77936949048812
 DFT Exchange         Energy = -57.56042911732195
 One-Electron (alpha) Energy = -997.97301493784664
 One-Electron (beta)  Energy = -997.97301493784687
 Total Coulomb        Energy = 745.88195978104920
    3   -1038.2862500177      2.75e-03  
 Alpha HF Exchange    Energy =  -7.27691826396003
 Beta HF Exchange     Energy =  -7.27691826396003
 DFT Correlation      Energy =  -2.78842322113652
 DFT Exchange         Energy = -57.71983710123365
 One-Electron (alpha) Energy = -999.39631007593880
 One-Electron (beta)  Energy = -999.39631007593891
 Total Coulomb        Energy = 748.88519594274885
    4   -1038.3358813978      3.22e-04  
 Alpha HF Exchange    Energy =  -7.27827469853394
 Beta HF Exchange     Energy =  -7.27827469853394
 DFT Correlation      Energy =  -2.78835358116732
 DFT Exchange         Energy = -57.72924202089285
 One-Electron (alpha) Energy = -999.42924095153421
 One-Electron (beta)  Energy = -999.42924095153398
 Total Coulomb        Energy = 748.96252151103363
    5   -1038.3364657295      1.32e-04  
 Alpha HF Exchange    Energy =  -7.27799909486158
 Beta HF Exchange     Energy =  -7.27799909486160
 DFT Correlation      Energy =  -2.78841831733408
 DFT Exchange         Energy = -57.72760471106520
 One-Electron (alpha) Energy = -999.42694711474758
 One-Electron (beta)  Energy = -999.42694711474849
 Total Coulomb        Energy = 748.95570580032529
    6   -1038.3365699856      4.47e-05  
 Alpha HF Exchange    Energy =  -7.27788816335642
 Beta HF Exchange     Energy =  -7.27788816335643
 DFT Correlation      Energy =  -2.78835317602520
 DFT Exchange         Energy = -57.72654649425994
 One-Electron (alpha) Energy = -999.41433204810744
 One-Electron (beta)  Energy = -999.41433204810744
 Total Coulomb        Energy = 748.92911800248032
    7   -1038.3365824291      5.44e-06  
 Alpha HF Exchange    Energy =  -7.27793484583167
 Beta HF Exchange     Energy =  -7.27793484583166
 DFT Correlation      Energy =  -2.78836937004255
 DFT Exchange         Energy = -57.72692283425757
 One-Electron (alpha) Energy = -999.41907336826546
 One-Electron (beta)  Energy = -999.41907336826534
 Total Coulomb        Energy = 748.93908635786988
    8   -1038.3365826130      1.47e-06  
 Alpha HF Exchange    Energy =  -7.27792536865846
 Beta HF Exchange     Energy =  -7.27792536865847
 DFT Correlation      Energy =  -2.78836639980196
 DFT Exchange         Energy = -57.72684624952336
 One-Electron (alpha) Energy = -999.41810706875685
 One-Electron (beta)  Energy = -999.41810706875708
 Total Coulomb        Energy = 748.93705523535004
    9   -1038.3365826272      2.72e-07  Convergence criterion met
 ---------------------------------------
 SCF time:   CPU 24.08s  wall 2.00s 
<S^2> =         -0.000000000
 Alpha HF Exchange    Energy =  -7.27792536865846
 Beta HF Exchange     Energy =  -7.27792536865847
 DFT Correlation      Energy =  -2.78836639980196
 DFT Exchange         Energy = -57.72684624952336
 One-Electron (alpha) Energy = -999.41810706875685
 One-Electron (beta)  Energy = -999.41810706875708
 Total Coulomb        Energy = 748.93705523535004
 Nuclear repulsion Energy = 286.63363966164798
 SCF   energy in the final basis set =    -1038.3365826272
 Total energy in the final basis set =    -1038.3365826272
 
 --------------------------------------------------------------
 
                    Orbital Energies (a.u.)
 --------------------------------------------------------------
 
 Alpha MOs
 -- Occupied --
*******-101.534 -10.268 -10.255 -10.198  -9.459  -9.450  -7.223
 -7.214  -7.213  -7.213  -7.205  -7.204  -0.902  -0.846  -0.756
 -0.695  -0.590  -0.498  -0.490  -0.455  -0.425  -0.398  -0.387
 -0.373  -0.309  -0.303  -0.296  -0.294
 -- Virtual --
  0.015   0.059   0.076   0.124   0.135   0.143   0.158   0.172
  0.192   0.215   0.361   0.391   0.419   0.432   0.445   0.458
  0.463   0.498   0.522   0.534   0.548   0.568   0.607   0.663
  0.677   0.686   0.749   0.797   0.828   0.840   0.854   0.868
  0.871   0.894   0.900   0.910   0.916   0.953   0.983   1.004
  1.056   1.113   1.129   1.187   1.343   1.396   1.436   1.560
  1.583   1.732   1.811   1.823   1.868   1.896   2.031   2.051
  2.074   2.079   2.094   2.146   2.236   2.283   2.344   2.375
  2.498   2.573   2.600   2.641   2.668   2.732   2.813   2.860
  2.888   3.188   3.242   3.326   3.402   3.431   3.467   4.158
  4.276   4.337   4.457   4.571
 
 Beta MOs
 -- Occupied --
*******-101.534 -10.268 -10.255 -10.198  -9.459  -9.450  -7.223
 -7.214  -7.213  -7.213  -7.205  -7.204  -0.902  -0.846  -0.756
 -0.695  -0.590  -0.498  -0.490  -0.455  -0.425  -0.398  -0.387
 -0.373  -0.309  -0.303  -0.296  -0.294
 -- Virtual --
  0.015   0.059   0.076   0.124   0.135   0.143   0.158   0.172
  0.192   0.215   0.361   0.391   0.419   0.432   0.445   0.458
  0.463   0.498   0.522   0.534   0.548   0.568   0.607   0.663
  0.677   0.686   0.749   0.797   0.828   0.840   0.854   0.868
  0.871   0.894   0.900   0.910   0.916   0.953   0.983   1.004
  1.056   1.113   1.129   1.187   1.343   1.396   1.436   1.560
  1.583   1.732   1.811   1.823   1.868   1.896   2.031   2.051
  2.074   2.079   2.094   2.146   2.236   2.283   2.344   2.375
  2.498   2.573   2.600   2.641   2.668   2.732   2.813   2.860
  2.888   3.188   3.242   3.326   3.402   3.431   3.467   4.158
  4.276   4.337   4.457   4.571
 --------------------------------------------------------------
 
          Ground-State Mulliken Net Atomic Charges

     Atom                 Charge (a.u.)    Spin (a.u.)
  --------------------------------------------------------
      1 Cl                   -0.081982       0.000000
      2 Cl                   -0.033975      -0.000000
      3 C                    -0.175201      -0.000000
      4 C                    -0.284614      -0.000000
      5 C                    -0.305191      -0.000000
      6 H                     0.156762       0.000000
      7 H                     0.156704       0.000000
      8 H                     0.170129      -0.000000
      9 H                     0.150580       0.000000
     10 H                     0.131834       0.000000
     11 H                     0.114953      -0.000000
  --------------------------------------------------------
  Sum of atomic charges =    -0.000000
  Sum of spin   charges =    -0.000000

 -----------------------------------------------------------------
                    Cartesian Multipole Moments
 -----------------------------------------------------------------
    Charge (ESU x 10^10)
                -0.0000
    Dipole Moment (Debye)
         X      -0.3170      Y      -2.0506      Z      -1.9360
       Tot       2.8379
    Quadrupole Moments (Debye-Ang)
        XX     -47.6346     XY       1.9662     YY     -45.1885
        XZ      -1.1370     YZ      -0.1721     ZZ     -42.7470
    Octopole Moments (Debye-Ang^2)
       XXX     -12.3782    XXY      -9.8623    XYY      -2.1733
       YYY     -23.0571    XXZ      -5.3166    XYZ      -0.1387
       YYZ      -4.5734    XZZ      -1.0363    YZZ      -7.4916
       ZZZ     -13.3995
    Hexadecapole Moments (Debye-Ang^3)
      XXXX    -547.9542   XXXY      32.2968   XXYY    -138.5602
      XYYY      24.1193   YYYY    -288.5676   XXXZ      -6.1663
      XXYZ       0.9238   XYYZ      -7.4375   YYYZ       2.3839
      XXZZ    -106.9119   XYZZ       9.7012   YYZZ     -71.3252
      XZZZ      -4.7500   YZZZ      -2.6569   ZZZZ    -136.3094
 -----------------------------------------------------------------
 Calculating analytic gradient of the SCF energy
 Gradient of SCF Energy
            1           2           3           4           5           6
    1  -0.0001216  -0.0320298   0.0044745   0.0197425  -0.0002835   0.0008530
    2  -0.0002393  -0.0043473   0.0011956   0.0024634  -0.0003408   0.0000184
    3  -0.0003094  -0.0426102   0.0054874   0.0293900  -0.0000524  -0.0007724
            7           8           9          10          11
    1   0.0036418   0.0035886   0.0002144  -0.0000760  -0.0000039
    2   0.0001442   0.0009036   0.0002332  -0.0000622   0.0000312
    3   0.0045177   0.0046067  -0.0002484  -0.0000470   0.0000381
 Max gradient component =       4.261E-02
 RMS gradient           =       1.134E-02
 Gradient time:  CPU 9.78 s  wall 0.85 s
 Geometry Optimization Parameters
   NAtoms,    NIC,     NZ,  NCons,   NDum,   NFix, NCnnct, MaxDiis
       11      68       0       1       0       0       0       0

 Cartesian Hessian Update
 Hessian Updated using BFGS Update


** CONSTRAINED OPTIMIZATION IN DELOCALIZED INTERNAL COORDINATES **
   Searching for a Minimum

   Optimization Cycle:   2

                       Coordinates (Angstroms)
     ATOM                X               Y               Z
      1  Cl       -1.2669800083    1.3773875961    0.2286724359
      2  Cl        1.8913984414    0.1093335066    0.5447856657
      3  C        -0.6079337491   -0.1782991125   -0.4710601960
      4  C         0.8695315343   -0.0262145872   -0.8102456238
      5  C        -0.9431173780   -1.3472092548    0.4434467085
      6  H        -1.1291813770   -0.2842486585   -1.4279247315
      7  H         1.1994121447   -0.9130855165   -1.3573171221
      8  H         1.0405656672    0.8600374246   -1.4207638773
      9  H        -0.4726243393   -1.2247600539    1.4207129705
     10  H        -2.0233781211   -1.4291948822    0.5792196013
     11  H        -0.5773928150   -2.2783464617   -0.0047278310
   Point Group: c1    Number of degrees of freedom:    27


   Energy is  -1038.336582627

              Constraints and their Current Values
                                        Value     Constraint
   Distance(Angs):        2   4             1.702555     1.700000
 Hessian Updated using BFGS Update

   Using Lagrange Multiplier Algorithm


 25 Hessian modes will be used to form the next step
  Hessian Eigenvalues:
    -0.878799    0.045000    0.045001    0.072854    0.078460    0.080910
     0.083277    0.084474    0.090306    0.114751    0.160000    0.164292
     0.187927    0.224255    0.233966    0.239826    0.301781    0.302173
     0.341073    0.342668    0.344849    0.346046    0.346358    0.348653
     1.141347

 Minimum Search - Taking P-RFO Step
 Searching for Lamda that Maximizes Along the Constraint modes Only
 Value Taken    Lamda =   0.00003450
 Searching for Lamda that Minimizes Along All other modes
 Value Taken    Lamda =  -0.00095897
 Step Taken.  Stepsize is  0.090450

                             Maximum     Tolerance    Cnvgd?
         Gradient            0.006827       0.000300      NO
         Displacement        0.069435       0.001200      NO
         Energy change      0.005018       0.000001      NO


 New Cartesian Coordinates Obtained by Inverse Iteration

 Displacement from previous Coordinates is:  0.078231
 ----------------------------------------------------------------
             Standard Nuclear Orientation (Angstroms)
    I     Atom           X                Y                Z
 ----------------------------------------------------------------
    1      Cl     -1.2671922825     1.3769700232     0.2274343643
    2      Cl      1.9131864335     0.1150378265     0.5484626415
    3      C      -0.6043493151    -0.1785433088    -0.4705739572
    4      C       0.8827574223    -0.0240781362    -0.7964801176
    5      C      -0.9444273968    -1.3473578488     0.4423846983
    6      H      -1.1241533335    -0.2856009929    -1.4276641094
    7      H       1.1837663601    -0.9117715479    -1.3622128129
    8      H       1.0239139930     0.8553888485    -1.4273704460
    9      H      -0.4815425427    -1.2272057132     1.4237291925
   10      H      -2.0254629528    -1.4290229678     0.5711451627
   11      H      -0.5761963855    -2.2784161826    -0.0040566162
 ----------------------------------------------------------------
 Nuclear Repulsion Energy =   285.9684218913 hartrees
 There are       29 alpha and       29 beta electrons

                       Distance Matrix (Angstroms)
             Cl(  1)   Cl(  2)   C (  3)   C (  4)   C (  5)   H (  6)
   Cl(  2)  3.436618
   C (  3)  1.829262  2.731778
   C (  4)  2.762901  1.700002  1.530216
   C (  5)  2.751789  3.211824  1.521602  2.573803
   H (  6)  2.350309  3.645685  1.094385  2.120018  2.157942
   H (  7)  3.711134  2.288465  2.128380  1.094833  2.824096  2.392251
   H (  8)  2.873951  2.289725  2.153071  1.091517  3.496061  2.432293
   H (  9)  2.971548  2.881395  2.168677  2.870219  1.091667  3.070832
   H ( 10)  2.926894  4.230555  2.160658  3.507423  1.091735  2.472855
   H ( 11)  3.727320  3.497274  2.151255  2.799736  1.096254  2.509627
             H (  7)   H (  8)   H (  9)   H ( 10)
   H (  8)  1.775572
   H (  9)  3.261016  3.838277
   H ( 10)  3.782139  4.302476  1.775196
   H ( 11)  2.609554  3.795643  1.775549  1.775584
 
 Applying Cartesian multipole field
    Component          Value
    ---------          -----
     (2,0,0)        1.00000E-11
     (0,2,0)        2.00000E-11
     (0,0,2)       -3.00000E-10
 Nucleus-field energy     =    -0.0000000143 hartrees
 Requested basis set is 6-31G(d,p)
 There are 40 shells and 113 basis functions
 A cutoff of  1.0D-14 yielded    792 shell pairs
 There are      6476 function pairs
 Smallest overlap matrix eigenvalue = 5.51E-03
 Guess from superposition of atomic densities
 Warning:  Energy on first SCF cycle will be non-variational
 SAD guess density has 58.000000 electrons

 -----------------------------------------------------------------------
  General SCF calculation program by
  Eric Jon Sundstrom, Paul Horn, Yuezhi Mao, Dmitri Zuev, Alec White,
  David Stuck, Shaama M.S., Shane Yost, Joonho Lee, David Small,
  Daniel Levine, Susi Lehtola, Hugh Burton, Evgeny Epifanovsky
 -----------------------------------------------------------------------
 Exchange:     0.2000 Hartree-Fock + 0.0800 Slater + 0.7200 B88
 Correlation:  0.1900 VWN1RPA + 0.8100 LYP
 Using SG-1 standard quadrature grid
 using 12 threads for integral computing
 -------------------------------------------------------
 OpenMP Integral computing Module                
 Release: version 1.0, May 2013, Q-Chem Inc. Pittsburgh 
 -------------------------------------------------------
 -------------------------------------------------------
 OpenMP BLAS3 based DFT computing Module                
 Release: version 1.0, May 2013, Q-Chem Inc. Pittsburgh 
 -------------------------------------------------------
 A unrestricted SCF calculation will be
 performed using DIIS
 SCF converges when DIIS error is below 1.0e-06
 Alpha HF Exchange    Energy =  -7.31210607140928
 Beta HF Exchange     Energy =  -7.31210607140928
 DFT Correlation      Energy =  -2.77550079144139
 DFT Exchange         Energy = -57.40642206520614
 One-Electron (alpha) Energy = -997.02292391899744
 One-Electron (beta)  Energy = -997.02292391899744
 Total Coulomb        Energy = 743.87181548464048
 ---------------------------------------
  Cycle       Energy         DIIS error
 ---------------------------------------
    1   -1039.0117454758      2.95e-02  
 Alpha HF Exchange    Energy =  -7.30188254757926
 Beta HF Exchange     Energy =  -7.30188254757927
 DFT Correlation      Energy =  -2.79779302991508
 DFT Exchange         Energy = -57.92940319437150
 One-Electron (alpha) Energy = -1000.30977957212258
 One-Electron (beta)  Energy = -1000.30977957212292
 Total Coulomb        Energy = 751.69626361171095
    2   -1038.2858349750      2.73e-03  
 Alpha HF Exchange    Energy =  -7.25759425378610
 Beta HF Exchange     Energy =  -7.25759425378609
 DFT Correlation      Energy =  -2.77902965869390
 DFT Exchange         Energy = -57.55756084074771
 One-Electron (alpha) Energy = -997.30808458939498
 One-Electron (beta)  Energy = -997.30808458939430
 Total Coulomb        Energy = 745.21310822519672
    3   -1038.2864180836      2.76e-03  
 Alpha HF Exchange    Energy =  -7.27645780281719
 Beta HF Exchange     Energy =  -7.27645780281719
 DFT Correlation      Energy =  -2.78807836329890
 DFT Exchange         Energy = -57.71663404485033
 One-Electron (alpha) Energy = -998.72683993308010
 One-Electron (beta)  Energy = -998.72683993308033
 Total Coulomb        Energy = 748.20665146856129
    4   -1038.3362345344      3.21e-04  
 Alpha HF Exchange    Energy =  -7.27780990363279
 Beta HF Exchange     Energy =  -7.27780990363279
 DFT Correlation      Energy =  -2.78801064459994
 DFT Exchange         Energy = -57.72600719985002
 One-Electron (alpha) Energy = -998.75956757303902
 One-Electron (beta)  Energy = -998.75956757303925
 Total Coulomb        Energy = 748.28353779821907
    5   -1038.3368131225      1.31e-04  
 Alpha HF Exchange    Energy =  -7.27753073177538
 Beta HF Exchange     Energy =  -7.27753073177538
 DFT Correlation      Energy =  -2.78807350213931
 DFT Exchange         Energy = -57.72434058372937
 One-Electron (alpha) Energy = -998.75689339581538
 One-Electron (beta)  Energy = -998.75689339581561
 Total Coulomb        Energy = 748.27592451851092
    6   -1038.3369159455      4.47e-05  
 Alpha HF Exchange    Energy =  -7.27742260174762
 Beta HF Exchange     Energy =  -7.27742260174762
 DFT Correlation      Energy =  -2.78800904332091
 DFT Exchange         Energy = -57.72330316674282
 One-Electron (alpha) Energy = -998.74454960295577
 One-Electron (beta)  Energy = -998.74454960295611
 Total Coulomb        Energy = 748.24990634911944
    7   -1038.3369283933      5.53e-06  
 Alpha HF Exchange    Energy =  -7.27746838113628
 Beta HF Exchange     Energy =  -7.27746838113628
 DFT Correlation      Energy =  -2.78802502212674
 DFT Exchange         Energy = -57.72367271000677
 One-Electron (alpha) Energy = -998.74920117936779
 One-Electron (beta)  Energy = -998.74920117936779
 Total Coulomb        Energy = 748.25968639326527
    8   -1038.3369285829      1.52e-06  
 Alpha HF Exchange    Energy =  -7.27745959130370
 Beta HF Exchange     Energy =  -7.27745959130370
 DFT Correlation      Energy =  -2.78802226419648
 DFT Exchange         Energy = -57.72360161819782
 One-Electron (alpha) Energy = -998.74830157712381
 One-Electron (beta)  Energy = -998.74830157712370
 Total Coulomb        Energy = 748.25779574456521
    9   -1038.3369285977      3.18e-07  Convergence criterion met
 ---------------------------------------
 SCF time:   CPU 23.91s  wall 2.00s 
<S^2> =         -0.000000000
 Alpha HF Exchange    Energy =  -7.27745959130370
 Beta HF Exchange     Energy =  -7.27745959130370
 DFT Correlation      Energy =  -2.78802226419648
 DFT Exchange         Energy = -57.72360161819782
 One-Electron (alpha) Energy = -998.74830157712381
 One-Electron (beta)  Energy = -998.74830157712370
 Total Coulomb        Energy = 748.25779574456521
 Nuclear repulsion Energy = 285.96842187702521
 SCF   energy in the final basis set =    -1038.3369285977
 Total energy in the final basis set =    -1038.3369285977
 
 --------------------------------------------------------------
 
                    Orbital Energies (a.u.)
 --------------------------------------------------------------
 
 Alpha MOs
 -- Occupied --
*******-101.533 -10.268 -10.256 -10.198  -9.461  -9.450  -7.225
 -7.215  -7.215  -7.214  -7.204  -7.204  -0.901  -0.846  -0.755
 -0.695  -0.589  -0.497  -0.488  -0.454  -0.427  -0.397  -0.387
 -0.373  -0.310  -0.303  -0.296  -0.294
 -- Virtual --
  0.016   0.058   0.075   0.123   0.135   0.144   0.159   0.172
  0.191   0.214   0.360   0.389   0.419   0.431   0.445   0.456
  0.463   0.498   0.523   0.533   0.550   0.568   0.610   0.661
  0.675   0.684   0.749   0.797   0.827   0.841   0.854   0.869
  0.871   0.893   0.899   0.911   0.917   0.951   0.984   1.003
  1.055   1.109   1.126   1.185   1.343   1.395   1.429   1.561
  1.584   1.733   1.814   1.821   1.872   1.891   2.031   2.051
  2.074   2.080   2.094   2.140   2.228   2.285   2.338   2.375
  2.505   2.566   2.595   2.646   2.673   2.732   2.803   2.861
  2.887   3.187   3.241   3.324   3.402   3.430   3.466   4.153
  4.274   4.337   4.458   4.570
 
 Beta MOs
 -- Occupied --
*******-101.533 -10.268 -10.256 -10.198  -9.461  -9.450  -7.225
 -7.215  -7.215  -7.214  -7.204  -7.204  -0.901  -0.846  -0.755
 -0.695  -0.589  -0.497  -0.488  -0.454  -0.427  -0.397  -0.387
 -0.373  -0.310  -0.303  -0.296  -0.294
 -- Virtual --
  0.016   0.058   0.075   0.123   0.135   0.144   0.159   0.172
  0.191   0.214   0.360   0.389   0.419   0.431   0.445   0.456
  0.463   0.498   0.523   0.533   0.550   0.568   0.610   0.661
  0.675   0.684   0.749   0.797   0.827   0.841   0.854   0.869
  0.871   0.893   0.899   0.911   0.917   0.951   0.984   1.003
  1.055   1.109   1.126   1.185   1.343   1.395   1.429   1.561
  1.584   1.733   1.814   1.821   1.872   1.891   2.031   2.051
  2.074   2.080   2.094   2.140   2.228   2.285   2.338   2.375
  2.505   2.566   2.595   2.646   2.673   2.732   2.803   2.861
  2.887   3.187   3.241   3.324   3.402   3.430   3.466   4.153
  4.274   4.337   4.458   4.570
 --------------------------------------------------------------
 
          Ground-State Mulliken Net Atomic Charges

     Atom                 Charge (a.u.)    Spin (a.u.)
  --------------------------------------------------------
      1 Cl                   -0.083927      -0.000000
      2 Cl                   -0.026945       0.000000
      3 C                    -0.176098      -0.000000
      4 C                    -0.283420      -0.000000
      5 C                    -0.304782      -0.000000
      6 H                     0.156888       0.000000
      7 H                     0.154195       0.000000
      8 H                     0.168110       0.000000
      9 H                     0.149614      -0.000000
     10 H                     0.131679      -0.000000
     11 H                     0.114684       0.000000
  --------------------------------------------------------
  Sum of atomic charges =    -0.000000
  Sum of spin   charges =    -0.000000

 -----------------------------------------------------------------
                    Cartesian Multipole Moments
 -----------------------------------------------------------------
    Charge (ESU x 10^10)
                 0.0000
    Dipole Moment (Debye)
         X      -0.2968      Y      -2.0589      Z      -1.9071
       Tot       2.8221
    Quadrupole Moments (Debye-Ang)
        XX     -47.6422     XY       1.9830     YY     -45.2542
        XZ      -1.0147     YZ      -0.1624     ZZ     -42.7251
    Octopole Moments (Debye-Ang^2)
       XXX     -13.1870    XXY      -9.9299    XYY      -2.4970
       YYY     -23.2931    XXZ      -5.1657    XYZ      -0.1256
       YYZ      -4.6195    XZZ      -1.3620    YZZ      -7.5704
       ZZZ     -13.6732
    Hexadecapole Moments (Debye-Ang^3)
      XXXX    -554.0809   XXXY      31.8506   XXYY    -139.8396
      XYYY      23.5686   YYYY    -288.8988   XXXZ      -6.1849
      XXYZ       0.9623   XYYZ      -7.5379   YYYZ       2.3016
      XXZZ    -107.9720   XYZZ       9.5513   YYZZ     -71.3095
      XZZZ      -5.3842   YZZZ      -2.7201   ZZZZ    -135.8025
 -----------------------------------------------------------------
 Calculating analytic gradient of the SCF energy
 Gradient of SCF Energy
            1           2           3           4           5           6
    1   0.0001053  -0.0301380   0.0016428   0.0275081  -0.0001226  -0.0003155
    2  -0.0003318  -0.0040947   0.0008873   0.0034879  -0.0002750  -0.0002168
    3  -0.0004320  -0.0399053   0.0014062   0.0356268  -0.0001139  -0.0002017
            7           8           9          10          11
    1   0.0006387   0.0005653   0.0000269   0.0000585   0.0000305
    2  -0.0003442   0.0007588   0.0000064   0.0000946   0.0000276
    3   0.0019009   0.0019331  -0.0001253  -0.0001191   0.0000302
 Max gradient component =       3.991E-02
 RMS gradient           =       1.177E-02
 Gradient time:  CPU 9.78 s  wall 0.86 s
 Geometry Optimization Parameters
   NAtoms,    NIC,     NZ,  NCons,   NDum,   NFix, NCnnct, MaxDiis
       11      68       0       1       0       0       0       0

 Cartesian Hessian Update
 Hessian Updated using BFGS Update


** CONSTRAINED OPTIMIZATION IN DELOCALIZED INTERNAL COORDINATES **
   Searching for a Minimum

   Optimization Cycle:   3

                       Coordinates (Angstroms)
     ATOM                X               Y               Z
      1  Cl       -1.2671922825    1.3769700232    0.2274343643
      2  Cl        1.9131864335    0.1150378265    0.5484626415
      3  C        -0.6043493151   -0.1785433088   -0.4705739572
      4  C         0.8827574223   -0.0240781362   -0.7964801176
      5  C        -0.9444273968   -1.3473578488    0.4423846983
      6  H        -1.1241533335   -0.2856009929   -1.4276641094
      7  H         1.1837663601   -0.9117715479   -1.3622128129
      8  H         1.0239139930    0.8553888485   -1.4273704460
      9  H        -0.4815425427   -1.2272057132    1.4237291925
     10  H        -2.0254629528   -1.4290229678    0.5711451627
     11  H        -0.5761963855   -2.2784161826   -0.0040566162
   Point Group: c1    Number of degrees of freedom:    27


   Energy is  -1038.336928598

              Constraints and their Current Values
                                        Value     Constraint
   Distance(Angs):        2   4             1.700002     1.700000
 Hessian Updated using BFGS Update

   Using Lagrange Multiplier Algorithm


 26 Hessian modes will be used to form the next step
  Hessian Eigenvalues:
    -0.877225    0.044955    0.045001    0.064515    0.073227    0.078665
     0.081047    0.083277    0.084482    0.115783    0.159631    0.160000
     0.167619    0.189296    0.231004    0.234140    0.240511    0.295457
     0.302190    0.341071    0.342600    0.344078    0.346083    0.346355
     0.348126    1.143684

 Minimum Search - Taking P-RFO Step
 Searching for Lamda that Maximizes Along the Constraint modes Only
 Value Taken    Lamda =   0.00000000
 Searching for Lamda that Minimizes Along All other modes
 Value Taken    Lamda =  -0.00012743
 Step Taken.  Stepsize is  0.043011

                             Maximum     Tolerance    Cnvgd?
         Gradient            0.002140       0.000300      NO
         Displacement        0.033419       0.001200      NO
         Energy change     -0.000346       0.000001      NO


 New Cartesian Coordinates Obtained by Inverse Iteration

 Displacement from previous Coordinates is:  0.031160
 ----------------------------------------------------------------
             Standard Nuclear Orientation (Angstroms)
    I     Atom           X                Y                Z
 ----------------------------------------------------------------
    1      Cl     -1.2686518159     1.3763255557     0.2303032963
    2      Cl      1.9165153852     0.1156531135     0.5534565006
    3      C      -0.6041005948    -0.1788223919    -0.4706677894
    4      C       0.8871181480    -0.0234334943    -0.7922762349
    5      C      -0.9452857910    -1.3472239136     0.4427453708
    6      H      -1.1199941292    -0.2839979069    -1.4292547919
    7      H       1.1801453392    -0.9081969724    -1.3688276479
    8      H       1.0210865843     0.8504231555    -1.4340124364
    9      H      -0.4844249318    -1.2263029876     1.4251805853
   10      H      -2.0264466651    -1.4306592126     0.5706651153
   11      H      -0.5756615289    -2.2783649454    -0.0025139677
 ----------------------------------------------------------------
 Nuclear Repulsion Energy =   285.7225971649 hartrees
 There are       29 alpha and       29 beta electrons

                       Distance Matrix (Angstroms)
             Cl(  1)   Cl(  2)   C (  3)   C (  4)   C (  5)   H (  6)
   Cl(  2)  3.440787
   C (  3)  1.830703  2.736613
   C (  4)  2.766286  1.700000  1.533399
   C (  5)  2.750894  3.215925  1.521806  2.575928
   H (  6)  2.352213  3.648459  1.093662  2.121824  2.159944
   H (  7)  3.711182  2.299062  2.126549  1.095939  2.827012  2.384097
   H (  8)  2.879136  2.300372  2.151421  1.092428  3.495496  2.423048
   H (  9)  2.969246  2.885353  2.169281  2.871435  1.091876  3.072408
   H ( 10)  2.927330  4.235366  2.162068  3.510948  1.091895  2.477129
   H ( 11)  3.727090  3.500196  2.151292  2.801458  1.096313  2.511849
             H (  7)   H (  8)   H (  9)   H ( 10)
   H (  8)  1.767001
   H (  9)  3.267792  3.841138
   H ( 10)  3.783759  4.302270  1.774765
   H ( 11)  2.612859  3.793166  1.775801  1.775364
 
 Applying Cartesian multipole field
    Component          Value
    ---------          -----
     (2,0,0)        1.00000E-11
     (0,2,0)        2.00000E-11
     (0,0,2)       -3.00000E-10
 Nucleus-field energy     =    -0.0000000144 hartrees
 Requested basis set is 6-31G(d,p)
 There are 40 shells and 113 basis functions
 A cutoff of  1.0D-14 yielded    792 shell pairs
 There are      6476 function pairs
 Smallest overlap matrix eigenvalue = 5.53E-03
 Guess from superposition of atomic densities
 Warning:  Energy on first SCF cycle will be non-variational
 SAD guess density has 58.000000 electrons

 -----------------------------------------------------------------------
  General SCF calculation program by
  Eric Jon Sundstrom, Paul Horn, Yuezhi Mao, Dmitri Zuev, Alec White,
  David Stuck, Shaama M.S., Shane Yost, Joonho Lee, David Small,
  Daniel Levine, Susi Lehtola, Hugh Burton, Evgeny Epifanovsky
 -----------------------------------------------------------------------
 Exchange:     0.2000 Hartree-Fock + 0.0800 Slater + 0.7200 B88
 Correlation:  0.1900 VWN1RPA + 0.8100 LYP
 Using SG-1 standard quadrature grid
 using 12 threads for integral computing
 -------------------------------------------------------
 OpenMP Integral computing Module                
 Release: version 1.0, May 2013, Q-Chem Inc. Pittsburgh 
 -------------------------------------------------------
 -------------------------------------------------------
 OpenMP BLAS3 based DFT computing Module                
 Release: version 1.0, May 2013, Q-Chem Inc. Pittsburgh 
 -------------------------------------------------------
 A unrestricted SCF calculation will be
 performed using DIIS
 SCF converges when DIIS error is below 1.0e-06
 Alpha HF Exchange    Energy =  -7.31140460632595
 Beta HF Exchange     Energy =  -7.31140460632595
 DFT Correlation      Energy =  -2.77530997582704
 DFT Exchange         Energy = -57.40506765462651
 One-Electron (alpha) Energy = -996.77970101177959
 One-Electron (beta)  Energy = -996.77970101177959
 Total Coulomb        Energy = 743.63442655645247
 ---------------------------------------
  Cycle       Energy         DIIS error
 ---------------------------------------
    1   -1039.0055651597      2.95e-02  
 Alpha HF Exchange    Energy =  -7.30151312967069
 Beta HF Exchange     Energy =  -7.30151312967070
 DFT Correlation      Energy =  -2.79757379500161
 DFT Exchange         Energy = -57.92675650148505
 One-Electron (alpha) Energy = -1000.05990283539666
 One-Electron (beta)  Energy = -1000.05990283539722
 Total Coulomb        Energy = 751.43860281443654
    2   -1038.2859622616      2.73e-03  
 Alpha HF Exchange    Energy =  -7.25731053243027
 Beta HF Exchange     Energy =  -7.25731053243027
 DFT Correlation      Energy =  -2.77884382174539
 DFT Exchange         Energy = -57.55565543859802
 One-Electron (alpha) Energy = -997.06552566705591
 One-Electron (beta)  Energy = -997.06552566705591
 Total Coulomb        Energy = 744.97103262078872
    3   -1038.2865418880      2.76e-03  
 Alpha HF Exchange    Energy =  -7.27614626434557
 Beta HF Exchange     Energy =  -7.27614626434557
 DFT Correlation      Energy =  -2.78787763600938
 DFT Exchange         Energy = -57.71447987086660
 One-Electron (alpha) Energy = -998.48161689277299
 One-Electron (beta)  Energy = -998.48161689277367
 Total Coulomb        Energy = 747.95897857356192
    4   -1038.3363080970      3.19e-04  
 Alpha HF Exchange    Energy =  -7.27749138872201
 Beta HF Exchange     Energy =  -7.27749138872201
 DFT Correlation      Energy =  -2.78780983953454
 DFT Exchange         Energy = -57.72380229336137
 One-Electron (alpha) Energy = -998.51401640501024
 One-Electron (beta)  Energy = -998.51401640501012
 Total Coulomb        Energy = 748.03515053045226
    5   -1038.3368800394      1.30e-04  
 Alpha HF Exchange    Energy =  -7.27721033883694
 Beta HF Exchange     Energy =  -7.27721033883694
 DFT Correlation      Energy =  -2.78787222625743
 DFT Exchange         Energy = -57.72212157174260
 One-Electron (alpha) Energy = -998.51113105985075
 One-Electron (beta)  Energy = -998.51113105985098
 Total Coulomb        Energy = 748.02709752740077
    6   -1038.3369819174      4.48e-05  
 Alpha HF Exchange    Energy =  -7.27710400845325
 Beta HF Exchange     Energy =  -7.27710400845326
 DFT Correlation      Energy =  -2.78780800406791
 DFT Exchange         Energy = -57.72109688014591
 One-Electron (alpha) Energy = -998.49894358321183
 One-Electron (beta)  Energy = -998.49894358321217
 Total Coulomb        Energy = 748.00140851114998
    7   -1038.3369944059      5.57e-06  
 Alpha HF Exchange    Energy =  -7.27714932420727
 Beta HF Exchange     Energy =  -7.27714932420727
 DFT Correlation      Energy =  -2.78782388927394
 DFT Exchange         Energy = -57.72146294977195
 One-Electron (alpha) Energy = -998.50355553559393
 One-Electron (beta)  Energy = -998.50355553559370
 Total Coulomb        Energy = 748.01110481070077
    8   -1038.3369945974      1.55e-06  
 Alpha HF Exchange    Energy =  -7.27714078325494
 Beta HF Exchange     Energy =  -7.27714078325495
 DFT Correlation      Energy =  -2.78782120547641
 DFT Exchange         Energy = -57.72139383903735
 One-Electron (alpha) Energy = -998.50267911200228
 One-Electron (beta)  Energy = -998.50267911200251
 Total Coulomb        Energy = 748.00926307189911
    9   -1038.3369946126      3.36e-07  Convergence criterion met
 ---------------------------------------
 SCF time:   CPU 23.45s  wall 2.00s 
<S^2> =          0.000000000
 Alpha HF Exchange    Energy =  -7.27714078325494
 Beta HF Exchange     Energy =  -7.27714078325495
 DFT Correlation      Energy =  -2.78782120547641
 DFT Exchange         Energy = -57.72139383903735
 One-Electron (alpha) Energy = -998.50267911200228
 One-Electron (beta)  Energy = -998.50267911200251
 Total Coulomb        Energy = 748.00926307189911
 Nuclear repulsion Energy = 285.72259715054344
 SCF   energy in the final basis set =    -1038.3369946126
 Total energy in the final basis set =    -1038.3369946126
 
 --------------------------------------------------------------
 
                    Orbital Energies (a.u.)
 --------------------------------------------------------------
 
 Alpha MOs
 -- Occupied --
*******-101.533 -10.268 -10.256 -10.198  -9.462  -9.450  -7.225
 -7.215  -7.215  -7.213  -7.204  -7.204  -0.901  -0.846  -0.755
 -0.696  -0.589  -0.497  -0.487  -0.454  -0.428  -0.397  -0.386
 -0.373  -0.310  -0.303  -0.295  -0.295
 -- Virtual --
  0.016   0.058   0.076   0.123   0.135   0.145   0.158   0.172
  0.191   0.213   0.359   0.388   0.419   0.431   0.445   0.455
  0.464   0.499   0.523   0.532   0.550   0.568   0.610   0.661
  0.674   0.683   0.749   0.797   0.827   0.842   0.854   0.869
  0.871   0.892   0.899   0.911   0.917   0.950   0.985   1.003
  1.054   1.107   1.125   1.185   1.342   1.394   1.426   1.560
  1.584   1.733   1.814   1.820   1.872   1.890   2.031   2.052
  2.074   2.082   2.096   2.136   2.223   2.285   2.335   2.375
  2.508   2.564   2.594   2.647   2.674   2.730   2.800   2.860
  2.886   3.186   3.240   3.324   3.402   3.430   3.465   4.152
  4.274   4.337   4.458   4.570
 
 Beta MOs
 -- Occupied --
*******-101.533 -10.268 -10.256 -10.198  -9.462  -9.450  -7.225
 -7.215  -7.215  -7.213  -7.204  -7.204  -0.901  -0.846  -0.755
 -0.696  -0.589  -0.497  -0.487  -0.454  -0.428  -0.397  -0.386
 -0.373  -0.310  -0.303  -0.295  -0.295
 -- Virtual --
  0.016   0.058   0.076   0.123   0.135   0.145   0.158   0.172
  0.191   0.213   0.359   0.388   0.419   0.431   0.445   0.455
  0.464   0.499   0.523   0.532   0.550   0.568   0.610   0.661
  0.674   0.683   0.749   0.797   0.827   0.842   0.854   0.869
  0.871   0.892   0.899   0.911   0.917   0.950   0.985   1.003
  1.054   1.107   1.125   1.185   1.342   1.394   1.426   1.560
  1.584   1.733   1.814   1.820   1.872   1.890   2.031   2.052
  2.074   2.082   2.096   2.136   2.223   2.285   2.335   2.375
  2.508   2.564   2.594   2.647   2.674   2.730   2.800   2.860
  2.886   3.186   3.240   3.324   3.402   3.430   3.465   4.152
  4.274   4.337   4.458   4.570
 --------------------------------------------------------------
 
          Ground-State Mulliken Net Atomic Charges

     Atom                 Charge (a.u.)    Spin (a.u.)
  --------------------------------------------------------
      1 Cl                   -0.084891      -0.000000
      2 Cl                   -0.024641       0.000000
      3 C                    -0.175872       0.000000
      4 C                    -0.283131      -0.000000
      5 C                    -0.304548      -0.000000
      6 H                     0.156807      -0.000000
      7 H                     0.153290      -0.000000
      8 H                     0.167275       0.000000
      9 H                     0.149460       0.000000
     10 H                     0.131659       0.000000
     11 H                     0.114593       0.000000
  --------------------------------------------------------
  Sum of atomic charges =    -0.000000
  Sum of spin   charges =     0.000000

 -----------------------------------------------------------------
                    Cartesian Multipole Moments
 -----------------------------------------------------------------
    Charge (ESU x 10^10)
                 0.0000
    Dipole Moment (Debye)
         X      -0.2816      Y      -2.0615      Z      -1.9057
       Tot       2.8215
    Quadrupole Moments (Debye-Ang)
        XX     -47.6421     XY       1.9956     YY     -45.2965
        XZ      -0.9886     YZ      -0.1644     ZZ     -42.6837
    Octopole Moments (Debye-Ang^2)
       XXX     -13.2090    XXY      -9.9352    XYY      -2.5547
       YYY     -23.3184    XXZ      -5.2130    XYZ      -0.1144
       YYZ      -4.6929    XZZ      -1.3632    YZZ      -7.5728
       ZZZ     -14.0606
    Hexadecapole Moments (Debye-Ang^3)
      XXXX    -555.4316   XXXY      31.8657   XXYY    -140.1126
      XYYY      23.5747   YYYY    -288.9041   XXXZ      -6.2586
      XXYZ       0.9064   XYYZ      -7.5664   YYYZ       2.1447
      XXZZ    -108.2346   XYZZ       9.5398   YYZZ     -71.3744
      XZZZ      -5.5835   YZZZ      -2.8710   ZZZZ    -136.0621
 -----------------------------------------------------------------
 Calculating analytic gradient of the SCF energy
 Gradient of SCF Energy
            1           2           3           4           5           6
    1  -0.0000174  -0.0293332   0.0000677   0.0297970  -0.0000625  -0.0000438
    2  -0.0000570  -0.0039739   0.0003560   0.0038992  -0.0001086  -0.0001329
    3  -0.0000934  -0.0382002  -0.0000238   0.0377808   0.0000475   0.0000512
            7           8           9          10          11
    1  -0.0001953  -0.0002147  -0.0000076  -0.0000014   0.0000111
    2  -0.0000832   0.0001376  -0.0000417  -0.0000195   0.0000239
    3   0.0001735   0.0002289   0.0000521  -0.0000079  -0.0000087
 Max gradient component =       3.820E-02
 RMS gradient           =       1.189E-02
 Gradient time:  CPU 9.79 s  wall 0.85 s
 Geometry Optimization Parameters
   NAtoms,    NIC,     NZ,  NCons,   NDum,   NFix, NCnnct, MaxDiis
       11      68       0       1       0       0       0       0

 Cartesian Hessian Update
 Hessian Updated using BFGS Update


** CONSTRAINED OPTIMIZATION IN DELOCALIZED INTERNAL COORDINATES **
   Searching for a Minimum

   Optimization Cycle:   4

                       Coordinates (Angstroms)
     ATOM                X               Y               Z
      1  Cl       -1.2686518159    1.3763255557    0.2303032963
      2  Cl        1.9165153852    0.1156531135    0.5534565006
      3  C        -0.6041005948   -0.1788223919   -0.4706677894
      4  C         0.8871181480   -0.0234334943   -0.7922762349
      5  C        -0.9452857910   -1.3472239136    0.4427453708
      6  H        -1.1199941292   -0.2839979069   -1.4292547919
      7  H         1.1801453392   -0.9081969724   -1.3688276479
      8  H         1.0210865843    0.8504231555   -1.4340124364
      9  H        -0.4844249318   -1.2263029876    1.4251805853
     10  H        -2.0264466651   -1.4306592126    0.5706651153
     11  H        -0.5756615289   -2.2783649454   -0.0025139677
   Point Group: c1    Number of degrees of freedom:    27


   Energy is  -1038.336994613

              Constraints and their Current Values
                                        Value     Constraint
   Distance(Angs):        2   4             1.700000     1.700000
 Hessian Updated using BFGS Update

 25 Hessian modes will be used to form the next step
  Hessian Eigenvalues:
     0.044443    0.045001    0.058953    0.073702    0.078708    0.081068
     0.083300    0.084495    0.115653    0.159913    0.160000    0.160225
     0.176484    0.189225    0.231399    0.234154    0.239974    0.296928
     0.303156    0.341062    0.342516    0.343742    0.346085    0.346438
     0.347999

 Minimum Search - Taking Simple RFO Step
 Searching for Lamda that Minimizes Along All modes
 Value Taken    Lamda =  -0.00000303
 Step Taken.  Stepsize is  0.005594

                             Maximum     Tolerance    Cnvgd?
         Gradient           0.000338      0.000300      NO
         Displacement       0.002969      0.001200      NO
         Energy change     -0.000066      0.000001      NO


 New Cartesian Coordinates Obtained by Inverse Iteration

 Displacement from previous Coordinates is:  0.005045
 ----------------------------------------------------------------
             Standard Nuclear Orientation (Angstroms)
    I     Atom           X                Y                Z
 ----------------------------------------------------------------
    1      Cl     -1.2688906656     1.3758974024     0.2312536146
    2      Cl      1.9167522408     0.1160983745     0.5534176881
    3      C      -0.6046025047    -0.1791701206    -0.4706660588
    4      C       0.8866993194    -0.0234794674    -0.7917623582
    5      C      -0.9455289878    -1.3473195603     0.4426492177
    6      H      -1.1200407461    -0.2834940468    -1.4295996433
    7      H       1.1810194032    -0.9074393452    -1.3691704704
    8      H       1.0218970376     0.8494161089    -1.4347377802
    9      H      -0.4844021336    -1.2257207644     1.4248123757
   10      H      -2.0266561098    -1.4307080145     0.5708496716
   11      H      -0.5759468534    -2.2786805666    -0.0022482568
 ----------------------------------------------------------------
 Nuclear Repulsion Energy =   285.7143081361 hartrees
 There are       29 alpha and       29 beta electrons

                       Distance Matrix (Angstroms)
             Cl(  1)   Cl(  2)   C (  3)   C (  4)   C (  5)   H (  6)
   Cl(  2)  3.440814
   C (  3)  1.830903  2.737364
   C (  4)  2.766114  1.700000  1.533403
   C (  5)  2.750484  3.216600  1.521496  2.575536
   H (  6)  2.352482  3.648855  1.093670  2.121662  2.160439
   H (  7)  3.711744  2.298973  2.127471  1.096088  2.828143  2.384919
   H (  8)  2.881045  2.300279  2.152423  1.092539  3.495854  2.423099
   H (  9)  2.967899  2.885368  2.168537  2.870280  1.091819  3.072376
   H ( 10)  2.926870  4.235963  2.161791  3.510647  1.091890  2.477872
   H ( 11)  3.727014  3.501040  2.151321  2.801535  1.096338  2.512795
             H (  7)   H (  8)   H (  9)   H ( 10)
   H (  8)  1.765265
   H (  9)  3.268222  3.840854
   H ( 10)  3.785059  4.302909  1.774773
   H ( 11)  2.614519  3.793431  1.775840  1.775403
 
 Applying Cartesian multipole field
    Component          Value
    ---------          -----
     (2,0,0)        1.00000E-11
     (0,2,0)        2.00000E-11
     (0,0,2)       -3.00000E-10
 Nucleus-field energy     =    -0.0000000144 hartrees
 Requested basis set is 6-31G(d,p)
 There are 40 shells and 113 basis functions
 A cutoff of  1.0D-14 yielded    792 shell pairs
 There are      6476 function pairs
 Smallest overlap matrix eigenvalue = 5.53E-03
 Guess from superposition of atomic densities
 Warning:  Energy on first SCF cycle will be non-variational
 SAD guess density has 58.000000 electrons

 -----------------------------------------------------------------------
  General SCF calculation program by
  Eric Jon Sundstrom, Paul Horn, Yuezhi Mao, Dmitri Zuev, Alec White,
  David Stuck, Shaama M.S., Shane Yost, Joonho Lee, David Small,
  Daniel Levine, Susi Lehtola, Hugh Burton, Evgeny Epifanovsky
 -----------------------------------------------------------------------
 Exchange:     0.2000 Hartree-Fock + 0.0800 Slater + 0.7200 B88
 Correlation:  0.1900 VWN1RPA + 0.8100 LYP
 Using SG-1 standard quadrature grid
 using 12 threads for integral computing
 -------------------------------------------------------
 OpenMP Integral computing Module                
 Release: version 1.0, May 2013, Q-Chem Inc. Pittsburgh 
 -------------------------------------------------------
 -------------------------------------------------------
 OpenMP BLAS3 based DFT computing Module                
 Release: version 1.0, May 2013, Q-Chem Inc. Pittsburgh 
 -------------------------------------------------------
 A unrestricted SCF calculation will be
 performed using DIIS
 SCF converges when DIIS error is below 1.0e-06
 Alpha HF Exchange    Energy =  -7.31139868827600
 Beta HF Exchange     Energy =  -7.31139868827600
 DFT Correlation      Energy =  -2.77530536035880
 DFT Exchange         Energy = -57.40505637635820
 One-Electron (alpha) Energy = -996.77145541386437
 One-Electron (beta)  Energy = -996.77145541386437
 Total Coulomb        Energy = 743.62620972690183
 ---------------------------------------
  Cycle       Energy         DIIS error
 ---------------------------------------
    1   -1039.0055520924      2.95e-02  
 Alpha HF Exchange    Energy =  -7.30150717330918
 Beta HF Exchange     Energy =  -7.30150717330918
 DFT Correlation      Energy =  -2.79757005847395
 DFT Exchange         Energy = -57.92671746165684
 One-Electron (alpha) Energy = -1000.05182089158222
 One-Electron (beta)  Energy = -1000.05182089158200
 Total Coulomb        Energy = 751.43067373821327
    2   -1038.2859617900      2.73e-03  
 Alpha HF Exchange    Energy =  -7.25730070148149
 Beta HF Exchange     Energy =  -7.25730070148149
 DFT Correlation      Energy =  -2.77883866477937
 DFT Exchange         Energy = -57.55559283185840
 One-Electron (alpha) Energy = -997.05682707012954
 One-Electron (beta)  Energy = -997.05682707012920
 Total Coulomb        Energy = 744.96183519579665
    3   -1038.2865437223      2.76e-03  
 Alpha HF Exchange    Energy =  -7.27614097831677
 Beta HF Exchange     Energy =  -7.27614097831676
 DFT Correlation      Energy =  -2.78787442956380
 DFT Exchange         Energy = -57.71445196334773
 One-Electron (alpha) Energy = -998.47356203505115
 One-Electron (beta)  Energy = -998.47356203505046
 Total Coulomb        Energy = 747.95111461913984
    4   -1038.3363096788      3.19e-04  
 Alpha HF Exchange    Energy =  -7.27748411648207
 Beta HF Exchange     Energy =  -7.27748411648207
 DFT Correlation      Energy =  -2.78780552453783
 DFT Exchange         Energy = -57.72375645859752
 One-Electron (alpha) Energy = -998.50570694636463
 One-Electron (beta)  Energy = -998.50570694636485
 Total Coulomb        Energy = 748.02675435707249
    5   -1038.3368816300      1.30e-04  
 Alpha HF Exchange    Energy =  -7.27720370184364
 Beta HF Exchange     Energy =  -7.27720370184364
 DFT Correlation      Energy =  -2.78786827215553
 DFT Exchange         Energy = -57.72208158758131
 One-Electron (alpha) Energy = -998.50289034661841
 One-Electron (beta)  Energy = -998.50289034661830
 Total Coulomb        Energy = 748.01884603746794
    6   -1038.3369837975      4.47e-05  
 Alpha HF Exchange    Energy =  -7.27709726681640
 Beta HF Exchange     Energy =  -7.27709726681640
 DFT Correlation      Energy =  -2.78780404518125
 DFT Exchange         Energy = -57.72105611454889
 One-Electron (alpha) Energy = -998.49070449264764
 One-Electron (beta)  Energy = -998.49070449264741
 Total Coulomb        Energy = 747.99315928864291
    7   -1038.3369962683      5.57e-06  
 Alpha HF Exchange    Energy =  -7.27714253528427
 Beta HF Exchange     Energy =  -7.27714253528427
 DFT Correlation      Energy =  -2.78781991318813
 DFT Exchange         Energy = -57.72142179740726
 One-Electron (alpha) Energy = -998.49531066566533
 One-Electron (beta)  Energy = -998.49531066566578
 Total Coulomb        Energy = 748.00284353114205
    8   -1038.3369964596      1.55e-06  
 Alpha HF Exchange    Energy =  -7.27713400678166
 Beta HF Exchange     Energy =  -7.27713400678165
 DFT Correlation      Energy =  -2.78781723323676
 DFT Exchange         Energy = -57.72135278639941
 One-Electron (alpha) Energy = -998.49443554773575
 One-Electron (beta)  Energy = -998.49443554773495
 Total Coulomb        Energy = 748.00100453211803
    9   -1038.3369964748      3.37e-07  Convergence criterion met
 ---------------------------------------
 SCF time:   CPU 24.13s  wall 2.00s 
<S^2> =         -0.000000000
 Alpha HF Exchange    Energy =  -7.27713400678166
 Beta HF Exchange     Energy =  -7.27713400678165
 DFT Correlation      Energy =  -2.78781723323676
 DFT Exchange         Energy = -57.72135278639941
 One-Electron (alpha) Energy = -998.49443554773575
 One-Electron (beta)  Energy = -998.49443554773495
 Total Coulomb        Energy = 748.00100453211803
 Nuclear repulsion Energy = 285.71430812174179
 SCF   energy in the final basis set =    -1038.3369964748
 Total energy in the final basis set =    -1038.3369964748
 
 --------------------------------------------------------------
 
                    Orbital Energies (a.u.)
 --------------------------------------------------------------
 
 Alpha MOs
 -- Occupied --
*******-101.533 -10.268 -10.256 -10.198  -9.462  -9.450  -7.225
 -7.215  -7.215  -7.213  -7.204  -7.204  -0.901  -0.846  -0.755
 -0.696  -0.589  -0.497  -0.487  -0.454  -0.428  -0.397  -0.386
 -0.373  -0.310  -0.303  -0.296  -0.295
 -- Virtual --
  0.016   0.058   0.076   0.123   0.135   0.145   0.158   0.172
  0.191   0.213   0.359   0.388   0.419   0.431   0.445   0.455
  0.464   0.498   0.523   0.532   0.550   0.568   0.611   0.661
  0.674   0.683   0.749   0.797   0.827   0.842   0.854   0.869
  0.871   0.892   0.899   0.911   0.918   0.950   0.985   1.003
  1.054   1.106   1.125   1.185   1.342   1.394   1.426   1.560
  1.584   1.733   1.814   1.820   1.872   1.890   2.031   2.051
  2.074   2.083   2.096   2.136   2.223   2.285   2.335   2.375
  2.509   2.565   2.594   2.647   2.674   2.730   2.801   2.860
  2.886   3.186   3.240   3.324   3.403   3.430   3.465   4.152
  4.274   4.337   4.458   4.570
 
 Beta MOs
 -- Occupied --
*******-101.533 -10.268 -10.256 -10.198  -9.462  -9.450  -7.225
 -7.215  -7.215  -7.213  -7.204  -7.204  -0.901  -0.846  -0.755
 -0.696  -0.589  -0.497  -0.487  -0.454  -0.428  -0.397  -0.386
 -0.373  -0.310  -0.303  -0.296  -0.295
 -- Virtual --
  0.016   0.058   0.076   0.123   0.135   0.145   0.158   0.172
  0.191   0.213   0.359   0.388   0.419   0.431   0.445   0.455
  0.464   0.498   0.523   0.532   0.550   0.568   0.611   0.661
  0.674   0.683   0.749   0.797   0.827   0.842   0.854   0.869
  0.871   0.892   0.899   0.911   0.918   0.950   0.985   1.003
  1.054   1.106   1.125   1.185   1.342   1.394   1.426   1.560
  1.584   1.733   1.814   1.820   1.872   1.890   2.031   2.051
  2.074   2.083   2.096   2.136   2.223   2.285   2.335   2.375
  2.509   2.565   2.594   2.647   2.674   2.730   2.801   2.860
[...]
     11  H        -0.5759468534   -2.2786805666   -0.0022482568
   Point Group: c1    Number of degrees of freedom:    27


   Energy is  -1038.336996475

              Constraints and their Current Values
                                        Value     Constraint
   Distance(Angs):        2   4             1.700000     1.700000
 Hessian Updated using BFGS Update

 26 Hessian modes will be used to form the next step
  Hessian Eigenvalues:
     0.036336    0.045001    0.059839    0.073615    0.078681    0.081064
     0.083180    0.084374    0.113342    0.158623    0.159992    0.160000
     0.160418    0.163842    0.188947    0.233882    0.234490    0.239553
     0.295917    0.311332    0.341198    0.342302    0.343561    0.346085
     0.346916    0.347965

 Minimum Search - Taking Simple RFO Step
 Searching for Lamda that Minimizes Along All modes
 Value Taken    Lamda =   0.00000000
 Step Taken.  Stepsize is  0.003242

                             Maximum     Tolerance    Cnvgd?
         Gradient           0.000088      0.000300     YES
         Displacement       0.001454      0.001200      NO
         Energy change     -0.000002      0.000001      NO


 New Cartesian Coordinates Obtained by Inverse Iteration

 Displacement from previous Coordinates is:  0.003247
 ----------------------------------------------------------------
             Standard Nuclear Orientation (Angstroms)
    I     Atom           X                Y                Z
 ----------------------------------------------------------------
    1      Cl     -1.2685729596     1.3757892348     0.2317835530
    2      Cl      1.9161335028     0.1166541712     0.5536848306
    3      C      -0.6046826674    -0.1793086925    -0.4707976865
    4      C       0.8863410101    -0.0235609431    -0.7916283284
    5      C      -0.9454951668    -1.3474008523     0.4424920744
    6      H      -1.1199926117    -0.2829141623    -1.4298717930
    7      H       1.1812775947    -0.9074952050    -1.3688719053
    8      H       1.0220246446     0.8488323094    -1.4352504353
    9      H      -0.4840494697    -1.2256360433     1.4244830022
   10      H      -2.0265798709    -1.4306964350     0.5711057722
   11      H      -0.5761040062    -2.2788633820    -0.0023310839
 ----------------------------------------------------------------
 Nuclear Repulsion Energy =   285.7394665050 hartrees
 There are       29 alpha and       29 beta electrons

                       Distance Matrix (Angstroms)
             Cl(  1)   Cl(  2)   C (  3)   C (  4)   C (  5)   H (  6)
   Cl(  2)  3.439680
   C (  3)  1.831038  2.737092
   C (  4)  2.765720  1.700000  1.533082
   C (  5)  2.750371  3.216324  1.521411  2.575117
   H (  6)  2.352546  3.648591  1.093664  2.121319  2.160863
   H (  7)  3.711772  2.298939  2.127545  1.096147  2.828024  2.385302
   H (  8)  2.881583  2.300300  2.152538  1.092579  3.495782  2.422626
   H (  9)  2.967393  2.884599  2.168281  2.869513  1.091817  3.072538
   H ( 10)  2.926786  4.235515  2.161788  3.510297  1.091890  2.478551
   H ( 11)  3.727038  3.501272  2.151373  2.801450  1.096330  2.513464
             H (  7)   H (  8)   H (  9)   H ( 10)
   H (  8)  1.764782
   H (  9)  3.267623  3.840541
   H ( 10)  3.785182  4.302988  1.774740
   H ( 11)  2.614665  3.793383  1.775827  1.775415
 
 Applying Cartesian multipole field
    Component          Value
    ---------          -----
     (2,0,0)        1.00000E-11
     (0,2,0)        2.00000E-11
     (0,0,2)       -3.00000E-10
 Nucleus-field energy     =    -0.0000000144 hartrees
 Requested basis set is 6-31G(d,p)
 There are 40 shells and 113 basis functions
 A cutoff of  1.0D-14 yielded    792 shell pairs
 There are      6476 function pairs
 Smallest overlap matrix eigenvalue = 5.53E-03
 Guess from superposition of atomic densities
 Warning:  Energy on first SCF cycle will be non-variational
 SAD guess density has 58.000000 electrons

 -----------------------------------------------------------------------
  General SCF calculation program by
  Eric Jon Sundstrom, Paul Horn, Yuezhi Mao, Dmitri Zuev, Alec White,
  David Stuck, Shaama M.S., Shane Yost, Joonho Lee, David Small,
  Daniel Levine, Susi Lehtola, Hugh Burton, Evgeny Epifanovsky
 -----------------------------------------------------------------------
 Exchange:     0.2000 Hartree-Fock + 0.0800 Slater + 0.7200 B88
 Correlation:  0.1900 VWN1RPA + 0.8100 LYP
 Using SG-1 standard quadrature grid
 using 12 threads for integral computing
 -------------------------------------------------------
 OpenMP Integral computing Module                
 Release: version 1.0, May 2013, Q-Chem Inc. Pittsburgh 
 -------------------------------------------------------
 -------------------------------------------------------
 OpenMP BLAS3 based DFT computing Module                
 Release: version 1.0, May 2013, Q-Chem Inc. Pittsburgh 
 -------------------------------------------------------
 A unrestricted SCF calculation will be
 performed using DIIS
 SCF converges when DIIS error is below 1.0e-06
 Alpha HF Exchange    Energy =  -7.31143126849666
 Beta HF Exchange     Energy =  -7.31143126849666
 DFT Correlation      Energy =  -2.77531532129501
 DFT Exchange         Energy = -57.40511501535589
 One-Electron (alpha) Energy = -996.79653058210283
 One-Electron (beta)  Energy = -996.79653058210283
 Total Coulomb        Energy = 743.65104144157681
 ---------------------------------------
  Cycle       Energy         DIIS error
 ---------------------------------------
    1   -1039.0058461056      2.95e-02  
 Alpha HF Exchange    Energy =  -7.30151988899841
 Beta HF Exchange     Energy =  -7.30151988899841
 DFT Correlation      Energy =  -2.79758143588183
 DFT Exchange         Energy = -57.92680997641026
 One-Electron (alpha) Energy = -1000.07743641793650
 One-Electron (beta)  Energy = -1000.07743641793650
 Total Coulomb        Energy = 751.45687924768015
    2   -1038.2859582879      2.73e-03  
 Alpha HF Exchange    Energy =  -7.25730750690388
 Beta HF Exchange     Energy =  -7.25730750690387
 DFT Correlation      Energy =  -2.77884740055586
 DFT Exchange         Energy = -57.55563792795292
 One-Electron (alpha) Energy = -997.08153634728058
 One-Electron (beta)  Energy = -997.08153634727978
 Total Coulomb        Energy = 744.98616600582659
    3   -1038.2865405404      2.76e-03  
 Alpha HF Exchange    Energy =  -7.27615209859024
 Beta HF Exchange     Energy =  -7.27615209859024
 DFT Correlation      Energy =  -2.78788540331050
 DFT Exchange         Energy = -57.71453343204055
 One-Electron (alpha) Energy = -998.49893081593859
 One-Electron (beta)  Energy = -998.49893081593871
 Total Coulomb        Energy = 747.97680884767055
    4   -1038.3363093261      3.19e-04  
 Alpha HF Exchange    Energy =  -7.27749420258053
 Beta HF Exchange     Energy =  -7.27749420258054
 DFT Correlation      Energy =  -2.78781575239775
 DFT Exchange         Energy = -57.72382809136756
 One-Electron (alpha) Energy = -998.53092193945815
 One-Electron (beta)  Energy = -998.53092193945861
 Total Coulomb        Energy = 748.05212787092819
    5   -1038.3368817663      1.30e-04  
 Alpha HF Exchange    Energy =  -7.27721417749038
 Beta HF Exchange     Energy =  -7.27721417749039
 DFT Correlation      Energy =  -2.78787870177137
 DFT Exchange         Energy = -57.72215671697948
 One-Electron (alpha) Energy = -998.52814580985330
 One-Electron (beta)  Energy = -998.52814580985353
 Total Coulomb        Energy = 748.04430476721939
    6   -1038.3369841356      4.47e-05  
 Alpha HF Exchange    Energy =  -7.27710768457470
 Beta HF Exchange     Energy =  -7.27710768457470
 DFT Correlation      Energy =  -2.78781448760844
 DFT Exchange         Energy = -57.72113087788373
 One-Electron (alpha) Energy = -998.51596052845525
 One-Electron (beta)  Energy = -998.51596052845548
 Total Coulomb        Energy = 748.01861870147945
    7   -1038.3369965994      5.56e-06  
 Alpha HF Exchange    Energy =  -7.27715293539938
 Beta HF Exchange     Energy =  -7.27715293539939
 DFT Correlation      Energy =  -2.78783034587615
 DFT Exchange         Energy = -57.72149640276297
 One-Electron (alpha) Energy = -998.52056477281928
 One-Electron (beta)  Energy = -998.52056477281985
 Total Coulomb        Energy = 748.02829888385997
    8   -1038.3369967906      1.55e-06  
 Alpha HF Exchange    Energy =  -7.27714440086210
 Beta HF Exchange     Energy =  -7.27714440086211
 DFT Correlation      Energy =  -2.78782766430710
 DFT Exchange         Energy = -57.72142734425944
 One-Electron (alpha) Energy = -998.51968906482170
 One-Electron (beta)  Energy = -998.51968906482273
 Total Coulomb        Energy = 748.02645864351985
    9   -1038.3369968058      3.37e-07  Convergence criterion met
 ---------------------------------------
 SCF time:   CPU 23.90s  wall 2.00s 
<S^2> =         -0.000000000
 Alpha HF Exchange    Energy =  -7.27714440086210
 Beta HF Exchange     Energy =  -7.27714440086211
 DFT Correlation      Energy =  -2.78782766430710
 DFT Exchange         Energy = -57.72142734425944
 One-Electron (alpha) Energy = -998.51968906482170
 One-Electron (beta)  Energy = -998.51968906482273
 Total Coulomb        Energy = 748.02645864351985
 Nuclear repulsion Energy = 285.73946649062424
 SCF   energy in the final basis set =    -1038.3369968058
 Total energy in the final basis set =    -1038.3369968058
 
 --------------------------------------------------------------
 
                    Orbital Energies (a.u.)
 --------------------------------------------------------------
 
 Alpha MOs
 -- Occupied --
*******-101.533 -10.268 -10.256 -10.198  -9.462  -9.449  -7.225
 -7.215  -7.215  -7.213  -7.204  -7.204  -0.901  -0.846  -0.755
 -0.696  -0.589  -0.497  -0.487  -0.454  -0.428  -0.397  -0.386
 -0.373  -0.310  -0.303  -0.296  -0.295
 -- Virtual --
  0.016   0.058   0.076   0.123   0.135   0.145   0.158   0.172
  0.191   0.213   0.359   0.388   0.419   0.431   0.445   0.456
  0.464   0.498   0.524   0.532   0.550   0.568   0.611   0.661
  0.674   0.683   0.749   0.797   0.827   0.842   0.854   0.869
  0.871   0.892   0.899   0.911   0.918   0.950   0.985   1.003
  1.054   1.106   1.125   1.185   1.342   1.394   1.427   1.560
  1.584   1.733   1.814   1.820   1.872   1.890   2.031   2.051
  2.074   2.083   2.096   2.136   2.223   2.285   2.335   2.375
  2.509   2.565   2.595   2.647   2.674   2.729   2.801   2.860
  2.886   3.186   3.239   3.324   3.403   3.431   3.465   4.152
  4.274   4.337   4.458   4.570
 
 Beta MOs
 -- Occupied --
*******-101.533 -10.268 -10.256 -10.198  -9.462  -9.449  -7.225
 -7.215  -7.215  -7.213  -7.204  -7.204  -0.901  -0.846  -0.755
 -0.696  -0.589  -0.497  -0.487  -0.454  -0.428  -0.397  -0.386
 -0.373  -0.310  -0.303  -0.296  -0.295
 -- Virtual --
  0.016   0.058   0.076   0.123   0.135   0.145   0.158   0.172
  0.191   0.213   0.359   0.388   0.419   0.431   0.445   0.456
  0.464   0.498   0.524   0.532   0.550   0.568   0.611   0.661
  0.674   0.683   0.749   0.797   0.827   0.842   0.854   0.869
  0.871   0.892   0.899   0.911   0.918   0.950   0.985   1.003
  1.054   1.106   1.125   1.185   1.342   1.394   1.427   1.560
  1.584   1.733   1.814   1.820   1.872   1.890   2.031   2.051
  2.074   2.083   2.096   2.136   2.223   2.285   2.335   2.375
  2.509   2.565   2.595   2.647   2.674   2.729   2.801   2.860
  2.886   3.186   3.239   3.324   3.403   3.431   3.465   4.152
  4.274   4.337   4.458   4.570
 --------------------------------------------------------------
 
          Ground-State Mulliken Net Atomic Charges

     Atom                 Charge (a.u.)    Spin (a.u.)
  --------------------------------------------------------
      1 Cl                   -0.085020      -0.000000
      2 Cl                   -0.024614       0.000000
      3 C                    -0.175661       0.000000
      4 C                    -0.283298      -0.000000
      5 C                    -0.304513      -0.000000
      6 H                     0.156839       0.000000
      7 H                     0.153243       0.000000
      8 H                     0.167190      -0.000000
      9 H                     0.149509       0.000000
     10 H                     0.131686      -0.000000
     11 H                     0.114639       0.000000
  --------------------------------------------------------
  Sum of atomic charges =    -0.000000
  Sum of spin   charges =    -0.000000

 -----------------------------------------------------------------
                    Cartesian Multipole Moments
 -----------------------------------------------------------------
    Charge (ESU x 10^10)
                -0.0000
    Dipole Moment (Debye)
         X      -0.2809      Y      -2.0628      Z      -1.9080
       Tot       2.8239
    Quadrupole Moments (Debye-Ang)
        XX     -47.6372     XY       1.9956     YY     -45.3014
        XZ      -0.9893     YZ      -0.1663     ZZ     -42.6794
    Octopole Moments (Debye-Ang^2)
       XXX     -13.1600    XXY      -9.9403    XYY      -2.5485
       YYY     -23.3337    XXZ      -5.2439    XYZ      -0.1112
       YYZ      -4.7056    XZZ      -1.3492    YZZ      -7.5681
       ZZZ     -14.1427
    Hexadecapole Moments (Debye-Ang^3)
      XXXX    -555.2838   XXXY      31.7706   XXYY    -140.0880
      XYYY      23.4788   YYYY    -288.8190   XXXZ      -6.2230
      XXYZ       0.8720   XYYZ      -7.5474   YYYZ       2.0453
      XXZZ    -108.2062   XYZZ       9.5034   YYZZ     -71.3731
      XZZZ      -5.5527   YZZZ      -2.9722   ZZZZ    -136.0911
 -----------------------------------------------------------------
 Calculating analytic gradient of the SCF energy
 Gradient of SCF Energy
            1           2           3           4           5           6
    1   0.0000083  -0.0292751  -0.0000568   0.0292598   0.0000256   0.0000223
    2  -0.0000161  -0.0039952   0.0000424   0.0039644   0.0000180  -0.0000508
    3  -0.0000301  -0.0382246   0.0000296   0.0382628   0.0000206  -0.0000118
            7           8           9          10          11
    1   0.0000024   0.0000104  -0.0000047   0.0000003   0.0000074
    2   0.0000309   0.0000124   0.0000050  -0.0000082  -0.0000028
    3  -0.0000457   0.0000099  -0.0000008  -0.0000135   0.0000036
 Max gradient component =       3.826E-02
 RMS gradient           =       1.190E-02
 Gradient time:  CPU 9.75 s  wall 0.85 s
 Geometry Optimization Parameters
   NAtoms,    NIC,     NZ,  NCons,   NDum,   NFix, NCnnct, MaxDiis
       11      68       0       1       0       0       0       0

 Cartesian Hessian Update
 Hessian Updated using BFGS Update


** CONSTRAINED OPTIMIZATION IN DELOCALIZED INTERNAL COORDINATES **
   Searching for a Minimum

   Optimization Cycle:   6

                       Coordinates (Angstroms)
     ATOM                X               Y               Z
      1  Cl       -1.2685729596    1.3757892348    0.2317835530
      2  Cl        1.9161335028    0.1166541712    0.5536848306
      3  C        -0.6046826674   -0.1793086925   -0.4707976865
      4  C         0.8863410101   -0.0235609431   -0.7916283284
      5  C        -0.9454951668   -1.3474008523    0.4424920744
      6  H        -1.1199926117   -0.2829141623   -1.4298717930
      7  H         1.1812775947   -0.9074952050   -1.3688719053
      8  H         1.0220246446    0.8488323094   -1.4352504353
      9  H        -0.4840494697   -1.2256360433    1.4244830022
     10  H        -2.0265798709   -1.4306964350    0.5711057722
     11  H        -0.5761040062   -2.2788633820   -0.0023310839
   Point Group: c1    Number of degrees of freedom:    27


   Energy is  -1038.336996806

              Constraints and their Current Values
                                        Value     Constraint
   Distance(Angs):        2   4             1.700000     1.700000
 Hessian Updated using BFGS Update

 26 Hessian modes will be used to form the next step
  Hessian Eigenvalues:
     0.020290    0.045000    0.064512    0.071903    0.079587    0.080972
     0.083237    0.084343    0.118594    0.159615    0.159998    0.160052
     0.160380    0.185323    0.188776    0.234221    0.236278    0.240444
     0.305094    0.320260    0.341184    0.342687    0.344078    0.346088
     0.346876    0.348224

 Minimum Search - Taking Simple RFO Step
 Searching for Lamda that Minimizes Along All modes
 Value Taken    Lamda =   0.00000000
 Step Taken.  Stepsize is  0.002958

                             Maximum     Tolerance    Cnvgd?
         Gradient           0.000043      0.000300     YES
         Displacement       0.001628      0.001200      NO
         Energy change     -0.000000      0.000001     YES


                       Distance Matrix (Angstroms)
             Cl(  1)   Cl(  2)   C (  3)   C (  4)   C (  5)   H (  6)
   Cl(  2)  3.439680
   C (  3)  1.831038  2.737092
   C (  4)  2.765720  1.700000  1.533082
   C (  5)  2.750371  3.216324  1.521411  2.575117
   H (  6)  2.352546  3.648591  1.093664  2.121319  2.160863
   H (  7)  3.711772  2.298939  2.127545  1.096147  2.828024  2.385302
   H (  8)  2.881583  2.300300  2.152538  1.092579  3.495782  2.422626
   H (  9)  2.967393  2.884599  2.168281  2.869513  1.091817  3.072538
   H ( 10)  2.926786  4.235515  2.161788  3.510297  1.091890  2.478551
   H ( 11)  3.727038  3.501272  2.151373  2.801450  1.096330  2.513464
             H (  7)   H (  8)   H (  9)   H ( 10)
   H (  8)  1.764782
   H (  9)  3.267623  3.840541
   H ( 10)  3.785182  4.302988  1.774740
   H ( 11)  2.614665  3.793383  1.775827  1.775415
 
 Final energy is   -1038.33699680579     


 ******************************
 **  OPTIMIZATION CONVERGED  **
 ******************************

                       Coordinates (Angstroms)
     ATOM                X               Y               Z
      1  Cl       -1.2685729596    1.3757892348    0.2317835530
      2  Cl        1.9161335028    0.1166541712    0.5536848306
      3  C        -0.6046826674   -0.1793086925   -0.4707976865
      4  C         0.8863410101   -0.0235609431   -0.7916283284
      5  C        -0.9454951668   -1.3474008523    0.4424920744
      6  H        -1.1199926117   -0.2829141623   -1.4298717930
      7  H         1.1812775947   -0.9074952050   -1.3688719053
      8  H         1.0220246446    0.8488323094   -1.4352504353
      9  H        -0.4840494697   -1.2256360433    1.4244830022
     10  H        -2.0265798709   -1.4306964350    0.5711057722
     11  H        -0.5761040062   -2.2788633820   -0.0023310839

Z-matrix Print:
$molecule
0 1
Cl
C  1 1.831038
H  2 1.093664 1 104.247131
C  2 1.521411 1 109.907859 3 -118.292101 0
H  4 1.091817 2 111.076032 1 -62.210620 0
H  4 1.091890 2 110.552906 1 58.581328 0
H  4 1.096330 2 109.467541 1 177.996401 0
C  2 1.533082 1 110.282342 3 113.992105 0
H  8 1.092579 2 108.976244 1 -54.125872 0
H  8 1.096147 2 106.855961 1 -169.971596 0
Cl 8 1.700000 2 115.588941 1 68.955765 0
$end

PES scan, value:    1.7000 energy: -1038.3369968058
------- Summary of potential scan: ------ 
    1.7000     -1038.3369968058
----------------------------------------- 
Archival summary:
1\1\hpc0332\JobtypUnspecified\ProcedureUnspecified\6-31G**\l236\knomura\MonMar1123:13:282019MonMar1123:13:282019\0\\#,JobtypUnspecified,ProcedureUnspecified,6-31G**,\\0,1\Cl\C,1,1.83104\H,2,1.09366,1,104.247\C,2,1.52141,1,109.908,3,-118.292,0\H,4,1.09182,2,111.076,1,-62.2106,0\H,4,1.09189,2,110.553,1,58.5813,0\H,4,1.09633,2,109.468,1,177.996,0\C,2,1.53308,1,110.282,3,113.992,0\H,8,1.09258,2,108.976,1,-54.1259,0\H,8,1.09615,2,106.856,1,-169.972,0\Cl,8,1.7,2,115.589,1,68.9558,0\\\@

 Total job time:  20.18s(wall), 230.58s(cpu) 
 Mon Mar 11 23:13:28 2019

        *************************************************************
        *                                                           *
        *  Thank you very much for using Q-Chem.  Have a nice day.  *
        *                                                           *
        *************************************************************


