
Running Job 1 of 1 ruruma/CH3CHClCH2Cl_afterGeo_edge_singlet.xyz.data/inputs/bond_triplet_3.7.in
qchem ruruma/CH3CHClCH2Cl_afterGeo_edge_singlet.xyz.data/inputs/bond_triplet_3.7.in_23676.0 /staging/scratch/2858534/qchem23676/ 1
/usr/usc/qchem/5.1.1/exe/qcprog.exe_s ruruma/CH3CHClCH2Cl_afterGeo_edge_singlet.xyz.data/inputs/bond_triplet_3.7.in_23676.0 /staging/scratch/2858534/qchem23676/
Check license passed

                  Welcome to Q-Chem
     A Quantum Leap Into The Future Of Chemistry


 Q-Chem 5.1, Q-Chem, Inc., Pleasanton, CA (2018)

 Yihan Shao,  Zhengting Gan,  E. Epifanovsky,  A. T. B. Gilbert,  M. Wormit,  
 J. Kussmann,  A. W. Lange,  A. Behn,  Jia Deng,  Xintian Feng,  D. Ghosh,  
 M. Goldey,  P. R. Horn,  L. D. Jacobson,  I. Kaliman,  T. Kus,  A. Landau,  
 Jie Liu,  E. I. Proynov,  R. M. Richard,  R. P. Steele,  E. J. Sundstrom,  
 H. L. Woodcock III,  P. M. Zimmerman,  D. Zuev,  B. Albrecht,  E. Alguire,  
 S. A. Baeppler,  D. Barton,  Z. Benda,  Y. A. Bernard,  E. J. Berquist,  
 K. B. Bravaya,  H. Burton,  D. Casanova,  Chun-Min Chang,  Yunqing Chen,  
 A. Chien,  K. D. Closser,  M. P. Coons,  S. Coriani,  S. Dasgupta,  
 A. L. Dempwolff,  M. Diedenhofen,  Hainam Do,  R. G. Edgar,  Po-Tung Fang,  
 S. Faraji,  S. Fatehi,  Qingguo Feng,  K. D. Fenk,  J. Fosso-Tande,  
 Qinghui Ge,  A. Ghysels,  G. Gidofalvi,  J. Gomes,  J. Gonthier,  A. Gunina,  
 D. Hait,  M. W. D. Hanson-Heine,  P. H. P. Harbach,  A. W. Hauser,  
 J. E. Herr,  E. G. Hohenstein,  Z. C. Holden,  Kerwin Hui,  B. C. Huynh,  
 T.-C. Jagau,  Hyunjun Ji,  B. Kaduk,  K. Khistyaev,  Jaehoon Kim,  
 P. Klunzinger,  K. Koh,  D. Kosenkov,  L. Koulias,  T. Kowalczyk,  
 C. M. Krauter,  A. Kunitsa,  Ka Un Lao,  A. Laurent,  K. V. Lawler,  
 Joonho Lee,  D. Lefrancois,  S. Lehtola,  D. S. Levine,  Yi-Pei Li,  
 You-Sheng Lin,  Fenglai Liu,  E. Livshits,  A. Luenser,  P. Manohar,  
 E. Mansoor,  S. F. Manzer,  Shan-Ping Mao,  Yuezhi Mao,  N. Mardirossian,  
 A. V. Marenich,  T. Markovich,  L. A. Martinez-Martinez,  S. A. Maurer,  
 N. J. Mayhall,  S. C. McKenzie,  J.-M. Mewes,  A. F. Morrison,  
 J. W. Mullinax,  K. Nanda,  T. S. Nguyen-Beck,  R. Olivares-Amaya,  
 J. A. Parkhill,  T. M. Perrine,  F. Plasser,  P. Pokhilko,  S. Prager,  
 A. Prociuk,  E. Ramos,  D. R. Rehn,  F. Rob,  M. Schneider,  N. Sergueev,  
 S. M. Sharada,  S. Sharma,  D. W. Small,  T. Stauch,  T. Stein,  
 Yu-Chuan Su,  A. J. W. Thom,  A. Tkatchenko,  T. Tsuchimochi,  N. M. Tubman,  
 L. Vogt,  M. L. Vidal,  O. Vydrov,  M. A. Watson,  J. Wenzel,  
 M. de Wergifosse,  T. A. Wesolowski,  A. White,  J. Witte,  A. Yamada,  
 Jun Yang,  K. Yao,  S. Yeganeh,  S. R. Yost,  Zhi-Qiang You,  A. Zech,  
 Igor Ying Zhang,  Xing Zhang,  Yan Zhao,  Ying Zhu,  B. R. Brooks,  
 G. K. L. Chan,  C. J. Cramer,  M. S. Gordon,  W. J. Hehre,  A. Klamt,  
 M. W. Schmidt,  C. D. Sherrill,  D. G. Truhlar,  A. Aspuru-Guzik,  R. Baer,  
 A. T. Bell,  N. A. Besley,  Jeng-Da Chai,  A. E. DePrince, III,  
 R. A. DiStasio Jr.,  A. Dreuw,  B. D. Dunietz,  T. R. Furlani,  
 Chao-Ping Hsu,  Yousung Jung,  Jing Kong,  D. S. Lambrecht,  WanZhen Liang,  
 C. Ochsenfeld,  V. A. Rassolov,  L. V. Slipchenko,  J. E. Subotnik,  
 T. Van Voorhis,  J. M. Herbert,  A. I. Krylov,  P. M. W. Gill,  M. Head-Gordon

 Contributors to earlier versions of Q-Chem not listed above: 
 R. D. Adamson,  B. Austin,  J. Baker,  G. J. O. Beran,  K. Brandhorst,  
 S. T. Brown,  E. F. C. Byrd,  A. K. Chakraborty,  C.-L. Cheng,  
 Siu Hung Chien,  D. M. Chipman,  D. L. Crittenden,  H. Dachsel,  
 R. J. Doerksen,  A. D. Dutoi,  L. Fusti-Molnar,  W. A. Goddard III,  
 A. Golubeva-Zadorozhnaya,  S. R. Gwaltney,  G. Hawkins,  A. Heyden,  
 S. Hirata,  G. Kedziora,  F. J. Keil,  C. Kelley,  Jihan Kim,  R. A. King,  
 R. Z. Khaliullin,  P. P. Korambath,  W. Kurlancheek,  A. M. Lee,  M. S. Lee,  
 S. V. Levchenko,  Ching Yeh Lin,  D. Liotard,  R. C. Lochan,  I. Lotan,  
 P. E. Maslen,  N. Nair,  D. P. O'Neill,  D. Neuhauser,  E. Neuscamman,  
 C. M. Oana,  R. Olson,  B. Peters,  R. Peverati,  P. A. Pieniazek,  
 Y. M. Rhee,  J. Ritchie,  M. A. Rohrdanz,  E. Rosta,  N. J. Russ,  
 H. F. Schaefer III,  N. E. Schultz,  N. Shenvi,  A. C. Simmonett,  A. Sodt,  
 D. Stuck,  K. S. Thanthiriwatte,  V. Vanovschi,  Tao Wang,  A. Warshel,  
 C. F. Williams,  Q. Wu,  X. Xu,  W. Zhang

 Please cite Q-Chem as follows:
 Y. Shao et al., Mol. Phys. 113, 184-215 (2015)
 DOI: 10.1080/00268976.2014.952696

 Q-Chem 5.1.1 for Intel X86 EM64T Linux

 Parts of Q-Chem use Armadillo 8.300.2 (Tropical Shenanigans).
 http://arma.sourceforge.net/

 Q-Chem begins on Tue Mar 12 01:01:18 2019  

Host: 
0

     Scratch files written to /staging/scratch/2858534/qchem23676//
 Aug318 |scratch|qcdevops|jenkins|workspace|build_RNUM 6013   
Processing $rem in /usr/usc/qchem/5.1.1/config/preferences.
 MEM_TOTAL  2000 
Input Ideriv = 2
Curr. Ideriv = -1
Max.  Ideriv = 2

Checking the input file for inconsistencies... 	...done.

--------------------------------------------------------------
User input:
--------------------------------------------------------------

$comment
potential surface scanner
$end

$rem
JOBTYPE  PES_SCAN
UNRESTRICTED TRUE
SYM_IGNORE  TRUE
GEOM_OPT_MAX_CYCLES 400
SCF_MAX_CYCLES 400
METHOD   B3LYP
BASIS   6-31G**
PDB_PRINT 2
SCF_CONVERGENCE 6
THRESH 14
SCF_PRINT 1
$end
$molecule
0 3
Cl 0.773424 0.590598 1.143058
Cl -1.284929 2.369666 1.546781
C -0.381547 -0.479529 -0.131950
C -0.271304 0.194097 -1.399313
C 0.119331 -1.903485 -0.037585
H -1.324737 -0.299782 0.380833
H -0.836285 1.100026 -1.584494
H 0.488242 -0.101734 -2.116075
H 1.133765 -1.997342 -0.434341
H 0.106303 -2.264290 0.992381
H -0.541965 -2.542826 -0.634490
$end
$scan
stre 2 4 3.700000 3.701000 0.100000
$end
--------------------------------------------------------------
 ----------------------------------------------------------------
             Standard Nuclear Orientation (Angstroms)
    I     Atom           X                Y                Z
 ----------------------------------------------------------------
    1      Cl      0.7734240000     0.5905980000     1.1430580000
    2      Cl     -1.2849290000     2.3696660000     1.5467810000
    3      C      -0.3815470000    -0.4795290000    -0.1319500000
    4      C      -0.2713040000     0.1940970000    -1.3993130000
    5      C       0.1193310000    -1.9034850000    -0.0375850000
    6      H      -1.3247370000    -0.2997820000     0.3808330000
    7      H      -0.8362850000     1.1000260000    -1.5844940000
    8      H       0.4882420000    -0.1017340000    -2.1160750000
    9      H       1.1337650000    -1.9973420000    -0.4343410000
   10      H       0.1063030000    -2.2642900000     0.9923810000
   11      H      -0.5419650000    -2.5428260000    -0.6344900000
 ----------------------------------------------------------------
 Nuclear Repulsion Energy =   261.7531880438 hartrees
 There are       30 alpha and       28 beta electrons
 Requested basis set is 6-31G(d,p)
 There are 40 shells and 113 basis functions

 Total QAlloc Memory Limit   2000 MB
 Mega-Array Size       188 MB
 MEM_STATIC part       192 MB
A total of 1 constraints
  
            1
    1   1.0100000
    2   2.0100000
    3   4.0100000
    4   3.7000000
    5   3.7010000
    6   0.1000000
    7   0.0000000
    8   0.0000000
    9   0.0000000
   10   0.0000000

                       Distance Matrix (Angstroms)
             Cl(  1)   Cl(  2)   C (  3)   C (  4)   C (  5)   H (  6)
   Cl(  2)  2.750435
   C (  3)  2.026024  3.428141
   C (  4)  2.777106  3.800001  1.439491
   C (  5)  2.835878  4.768855  1.512427  2.531156
   H (  6)  2.403340  2.913241  1.088514  2.126631  2.198242
   H (  7)  3.207837  3.408541  2.193551  1.083606  3.511012  2.461820
   H (  8)  3.344040  4.761141  2.199094  1.085437  2.775342  3.092033
   H (  9)  3.052125  5.370818  2.165956  2.776292  1.093298  3.096845
   H ( 10)  2.935667  4.869952  2.165061  3.450573  1.091412  2.506224
   H ( 11)  3.835136  5.426096  2.129665  2.854638  1.096524  2.583575
             H (  7)   H (  8)   H (  9)   H ( 10)
   H (  8)  1.865791
   H (  9)  3.846770  2.615006
   H ( 10)  4.341357  3.805920  1.778335
   H ( 11)  3.776176  3.035680  1.773607  1.773286
 
 A cutoff of  1.0D-14 yielded    767 shell pairs
 There are      6290 function pairs
 
 -------------------------------------------------------
 OpenMP Integral Computing Module                       
 Release: version 1.0, May 2013, Q-Chem Inc. Pittsburgh 
 -------------------------------------------------------
 Integral Job Info:
 Integral job number is                      11
 Integral operator is                         1
 short-range coefficients                     0
 long-range coefficients              100000000
 Omega coefficients                           0
 if combine SR and LR in K                    0
 Integral screening is                        0
 Integral computing path is                   2
 max size of driver memory is            800000
 size of driver memory is                593474
 size of scratch memory is             15267112
 max col of scratch BK array               1296
 max len of scratch array in speh3          155
 max len of scratch index in speh4           18
 max int batch size is                      520
 min int batch size is                       52
 fixed nKL is                                52
 max L of basis functions is                  2
 order of int derivative is                   0
 number of shells is                         40
 number of basis is                         113
 number of cartesian basis is               113
 number of contracted shell pairs           767
 number of primitive shell pairs           3089
 maxK2 (contraction) of shell pair           36
 max number of K2 of shell pair               1
 max number of CS2 of shell pair             60
 max number of PS2 of shell pair            336
 mem total for path MDJ                  517836
 -------------------------------------------------------
 Smallest overlap matrix eigenvalue = 5.70E-03

 Scale SEOQF with 1.000000e-01/1.000000e-01/1.000000e-01

 Standard Electronic Orientation quadrupole field applied
 Nucleus-field energy     =     0.0000000027 hartrees
 Guess from superposition of atomic densities
 Warning:  Energy on first SCF cycle will be non-variational
 SAD guess density has 58.000000 electrons

 -----------------------------------------------------------------------
  General SCF calculation program by
  Eric Jon Sundstrom, Paul Horn, Yuezhi Mao, Dmitri Zuev, Alec White,
  David Stuck, Shaama M.S., Shane Yost, Joonho Lee, David Small,
  Daniel Levine, Susi Lehtola, Hugh Burton, Evgeny Epifanovsky
 -----------------------------------------------------------------------
 Exchange:     0.2000 Hartree-Fock + 0.0800 Slater + 0.7200 B88
 Correlation:  0.1900 VWN1RPA + 0.8100 LYP
 Using SG-1 standard quadrature grid
 using 12 threads for integral computing
 -------------------------------------------------------
 OpenMP Integral computing Module                
 Release: version 1.0, May 2013, Q-Chem Inc. Pittsburgh 
 -------------------------------------------------------
 -------------------------------------------------------
 OpenMP BLAS3 based DFT computing Module                
 Release: version 1.0, May 2013, Q-Chem Inc. Pittsburgh 
 -------------------------------------------------------
 A unrestricted SCF calculation will be
 performed using DIIS
 SCF converges when DIIS error is below 1.0e-06
 Alpha HF Exchange    Energy =  -7.26112406569868
 Beta HF Exchange     Energy =  -7.26112406569868
 DFT Correlation      Energy =  -2.75649049531904
 DFT Exchange         Energy = -57.30862700398137
 One-Electron (alpha) Energy = -972.88210197827095
 One-Electron (beta)  Energy = -972.88210197827095
 Total Coulomb        Energy = 720.06122239292381
 ---------------------------------------
  Cycle       Energy         DIIS error
 ---------------------------------------
    1   -1038.5371591477      2.58e-02  
 Alpha HF Exchange    Energy =  -7.39564463792629
 Beta HF Exchange     Energy =  -7.17181701282800
 DFT Correlation      Energy =  -2.77390413887181
 DFT Exchange         Energy = -57.82672703122437
 One-Electron (alpha) Energy = -992.20944881826495
 One-Electron (beta)  Energy = -959.26951447849001
 Total Coulomb        Energy = 726.74167752084645
    2   -1038.1521905502      3.07e-03  
 Alpha HF Exchange    Energy =  -7.35367866329800
 Beta HF Exchange     Energy =  -7.14474838604060
 DFT Correlation      Energy =  -2.75352364724353
 DFT Exchange         Energy = -57.50207652241944
 One-Electron (alpha) Energy = -990.10516260134432
 One-Electron (beta)  Energy = -957.83712122334828
 Total Coulomb        Energy = 722.82782126096799
    3   -1038.1153017361      3.87e-03  
 Alpha HF Exchange    Energy =  -7.36907195393982
 Beta HF Exchange     Energy =  -7.14636451746483
 DFT Correlation      Energy =  -2.76114284045289
 DFT Exchange         Energy = -57.59397050979945
 One-Electron (alpha) Energy = -990.57682134200343
 One-Electron (beta)  Energy = -957.75557726192176
 Total Coulomb        Energy = 723.22237772093376
    4   -1038.2273826581      6.81e-04  
 Alpha HF Exchange    Energy =  -7.37599704271077
 Beta HF Exchange     Energy =  -7.15463610171497
 DFT Correlation      Energy =  -2.76237326925970
 DFT Exchange         Energy = -57.64782975547327
 One-Electron (alpha) Energy = -991.09264715800748
 One-Electron (beta)  Energy = -958.34290274330135
 Total Coulomb        Energy = 724.39264086959486
    5   -1038.2305571543      3.57e-04  
 Alpha HF Exchange    Energy =  -7.37576620175182
 Beta HF Exchange     Energy =  -7.15319565170956
 DFT Correlation      Energy =  -2.76203086607836
 DFT Exchange         Energy = -57.64188420233845
 One-Electron (alpha) Energy = -991.02600545580412
 One-Electron (beta)  Energy = -958.22549187544701
 Total Coulomb        Energy = 724.19955289296183
    6   -1038.2316333136      8.09e-05  
 Alpha HF Exchange    Energy =  -7.37529742953926
 Beta HF Exchange     Energy =  -7.15284834275216
 DFT Correlation      Energy =  -2.76176796098778
 DFT Exchange         Energy = -57.63779528836311
 One-Electron (alpha) Energy = -990.97141830878593
 One-Electron (beta)  Energy = -958.18521604974842
 Total Coulomb        Energy = 724.09945974627294
    7   -1038.2316955873      2.65e-05  
 Alpha HF Exchange    Energy =  -7.37558637581075
 Beta HF Exchange     Energy =  -7.15307340392352
 DFT Correlation      Energy =  -2.76177659743372
 DFT Exchange         Energy = -57.63962142568568
 One-Electron (alpha) Energy = -990.98864594450674
 One-Electron (beta)  Energy = -958.20268704608827
 Total Coulomb        Energy = 724.13649819789782
    8   -1038.2317045490      8.19e-06  
 Alpha HF Exchange    Energy =  -7.37556657418257
 Beta HF Exchange     Energy =  -7.15304704785070
 DFT Correlation      Energy =  -2.76174649630310
 DFT Exchange         Energy = -57.63935657717246
 One-Electron (alpha) Energy = -990.98293015748754
 One-Electron (beta)  Energy = -958.19912413136433
 Total Coulomb        Energy = 724.12687762740870
    9   -1038.2317053104      4.72e-06  
 Alpha HF Exchange    Energy =  -7.37556555287918
 Beta HF Exchange     Energy =  -7.15305380769897
 DFT Correlation      Energy =  -2.76174720579388
 DFT Exchange         Energy = -57.63938547897028
 One-Electron (alpha) Energy = -990.98332195979856
 One-Electron (beta)  Energy = -958.19989697638835
 Total Coulomb        Energy = 724.12807738482127
   10   -1038.2317055501      1.81e-06  
 Alpha HF Exchange    Energy =  -7.37557288409726
 Beta HF Exchange     Energy =  -7.15305331150339
 DFT Correlation      Energy =  -2.76174627825883
 DFT Exchange         Energy = -57.63941163874718
 One-Electron (alpha) Energy = -990.98347617279489
 One-Electron (beta)  Energy = -958.20006042905675
 Total Coulomb        Energy = 724.12842704131981
   11   -1038.2317056266      7.37e-07  Convergence criterion met
 ---------------------------------------
 SCF time:   CPU 28.85s  wall 2.00s 
<S^2> =          2.010258673
 Alpha HF Exchange    Energy =  -7.37557288409726
 Beta HF Exchange     Energy =  -7.15305331150339
 DFT Correlation      Energy =  -2.76174627825883
 DFT Exchange         Energy = -57.63941163874718
 One-Electron (alpha) Energy = -990.98347617279489
 One-Electron (beta)  Energy = -958.20006042905675
 Total Coulomb        Energy = 724.12842704131981
 Nuclear repulsion Energy = 261.75318804658406
 SCF   energy in the final basis set =    -1038.2317056266
 Total energy in the final basis set =    -1038.2317056266
 
 --------------------------------------------------------------
 
                    Orbital Energies (a.u.)
 --------------------------------------------------------------
 
 Alpha MOs
 -- Occupied --
*******-101.528 -10.280 -10.240 -10.215  -9.476  -9.441  -7.239
 -7.235  -7.229  -7.212  -7.194  -7.194  -0.872  -0.799  -0.775
 -0.725  -0.608  -0.507  -0.469  -0.461  -0.408  -0.404  -0.390
 -0.373  -0.330  -0.296  -0.292  -0.287  -0.256
 -- Virtual --
 -0.025   0.085   0.109   0.115   0.145   0.156   0.161   0.216
  0.256   0.348   0.386   0.414   0.428   0.436   0.463   0.497
  0.500   0.526   0.527   0.541   0.576   0.603   0.614   0.665
  0.700   0.758   0.788   0.825   0.834   0.839   0.852   0.869
  0.876   0.880   0.885   0.895   0.907   0.915   0.931   0.966
  1.009   1.071   1.132   1.187   1.303   1.395   1.411   1.535
  1.654   1.741   1.807   1.852   1.896   1.947   1.996   2.018
  2.053   2.081   2.100   2.242   2.278   2.329   2.382   2.467
  2.535   2.557   2.619   2.675   2.735   2.800   2.846   2.903
  3.161   3.260   3.373   3.389   3.430   3.506   4.179   4.239
  4.275   4.347   4.563
 
 Beta MOs
 -- Occupied --
*******-101.522 -10.281 -10.228 -10.215  -9.472  -9.435  -7.232
 -7.227  -7.226  -7.194  -7.191  -7.190  -0.857  -0.777  -0.736
 -0.708  -0.599  -0.501  -0.462  -0.454  -0.402  -0.398  -0.372
 -0.327  -0.320  -0.283  -0.279
 -- Virtual --
 -0.173  -0.126  -0.000   0.088   0.113   0.122   0.146   0.158
  0.166   0.220   0.262   0.358   0.400   0.425   0.436   0.442
  0.468   0.505   0.520   0.536   0.546   0.573   0.594   0.619
  0.626   0.674   0.711   0.771   0.796   0.832   0.844   0.857
  0.859   0.890   0.895   0.904   0.911   0.916   0.920   0.922
  0.947   0.980   1.039   1.095   1.144   1.193   1.321   1.399
  1.441   1.542   1.661   1.742   1.817   1.859   1.908   1.970
  2.002   2.019   2.056   2.084   2.110   2.249   2.279   2.331
  2.395   2.481   2.543   2.573   2.621   2.678   2.738   2.801
  2.847   2.905   3.162   3.263   3.378   3.390   3.430   3.511
  4.195   4.255   4.286   4.358   4.566
 --------------------------------------------------------------
 
          Ground-State Mulliken Net Atomic Charges

     Atom                 Charge (a.u.)    Spin (a.u.)
  --------------------------------------------------------
      1 Cl                   -0.051174       0.458166
      2 Cl                   -0.219979       0.758047
      3 C                    -0.165329      -0.063826
      4 C                    -0.145275       0.911542
      5 C                    -0.315938       0.005134
      6 H                     0.193390       0.008978
      7 H                     0.155687      -0.039691
      8 H                     0.132326      -0.039561
      9 H                     0.135593      -0.000951
     10 H                     0.144037       0.001804
     11 H                     0.136662       0.000357
  --------------------------------------------------------
  Sum of atomic charges =     0.000000
  Sum of spin   charges =     2.000000

 -----------------------------------------------------------------
                    Cartesian Multipole Moments
 -----------------------------------------------------------------
    Charge (ESU x 10^10)
                 0.0000
    Dipole Moment (Debye)
         X       0.2447      Y      -3.7047      Z      -3.0455
       Tot       4.8020
    Quadrupole Moments (Debye-Ang)
        XX     -45.5676     XY       1.7838     YY     -48.4267
        XZ       1.1418     YZ      -4.5107     ZZ     -46.6924
    Octopole Moments (Debye-Ang^2)
       XXX      30.2644    XXY     -24.3262    XYY      13.4932
       YYY     -84.9667    XXZ     -25.8547    XYZ       4.8431
       YYZ     -32.5588    XZZ      14.6981    YZZ     -28.4277
       ZZZ     -81.1314
    Hexadecapole Moments (Debye-Ang^3)
      XXXX    -241.7675   XXXY     102.0251   XXYY    -153.7012
      XYYY     111.0824   YYYY    -724.1998   XXXZ      36.9930
      XXYZ     -53.8759   XYYZ      19.9188   YYYZ    -181.2300
      XXZZ    -113.8013   XYZZ      40.7743   YYZZ    -198.6561
      XZZZ      42.7929   YZZZ    -177.4689   ZZZZ    -438.7118
 -----------------------------------------------------------------
 Calculating analytic gradient of the SCF energy
 Gradient of SCF Energy
            1           2           3           4           5           6
    1  -0.0000652  -0.0000806  -0.0000434   0.0000244   0.0000128   0.0000929
    2  -0.0000200   0.0000225   0.0000739  -0.0001574  -0.0000229   0.0000887
    3   0.0000260   0.0002136   0.0000080  -0.0002022  -0.0000253   0.0000038
            7           8           9          10          11
    1  -0.0000104   0.0000404   0.0000040   0.0000199   0.0000052
    2   0.0000066   0.0000257   0.0000182  -0.0000351  -0.0000002
    3   0.0000077   0.0000461  -0.0000288  -0.0000269  -0.0000221
 Max gradient component =       2.136E-04
 RMS gradient           =       6.921E-05
 Gradient time:  CPU 9.03 s  wall 0.76 s
 Geometry Optimization Parameters
   NAtoms,    NIC,     NZ,  NCons,   NDum,   NFix, NCnnct, MaxDiis
       11      74       0       1       0       0       0       0


** CONSTRAINED OPTIMIZATION IN DELOCALIZED INTERNAL COORDINATES **
   Searching for a Minimum

   Optimization Cycle:   1

                       Coordinates (Angstroms)
     ATOM                X               Y               Z
      1  Cl        0.7734240000    0.5905980000    1.1430580000
      2  Cl       -1.2849290000    2.3696660000    1.5467810000
      3  C        -0.3815470000   -0.4795290000   -0.1319500000
      4  C        -0.2713040000    0.1940970000   -1.3993130000
      5  C         0.1193310000   -1.9034850000   -0.0375850000
      6  H        -1.3247370000   -0.2997820000    0.3808330000
      7  H        -0.8362850000    1.1000260000   -1.5844940000
      8  H         0.4882420000   -0.1017340000   -2.1160750000
      9  H         1.1337650000   -1.9973420000   -0.4343410000
     10  H         0.1063030000   -2.2642900000    0.9923810000
     11  H        -0.5419650000   -2.5428260000   -0.6344900000
   Point Group: c1    Number of degrees of freedom:    27


   Energy is  -1038.231705627

              Constraints and their Current Values
                                        Value     Constraint
   Distance(Angs):        2   4             3.800001     3.700000

 Attempting to Generate Delocalized Internal Coordinates

   Using Lagrange Multiplier Algorithm


 28 Hessian modes will be used to form the next step
  Hessian Eigenvalues:
    -0.995227    0.031788    0.045000    0.045000    0.045543    0.063204
     0.066472    0.075511    0.082229    0.085084    0.112344    0.130649
     0.142115    0.146436    0.160000    0.160000    0.160000    0.160000
     0.160000    0.311078    0.328144    0.340695    0.344343    0.346500
     0.353453    0.355621    0.384512    1.004796

 Minimum Search - Taking P-RFO Step
 Searching for Lamda that Maximizes Along the Constraint modes Only
 Value Taken    Lamda =   0.01766143
 Searching for Lamda that Minimizes Along All other modes
 Value Taken    Lamda =  -0.01743496
 Step Taken.  Stepsize is  0.185727

                             Maximum     Tolerance    Cnvgd?
         Gradient            0.188974       0.000300      NO
         Displacement        0.185715       0.001200      NO
         Energy change     *********       0.000001      NO


 New Cartesian Coordinates Obtained by Inverse Iteration

 Displacement from previous Coordinates is:  0.224906
 ----------------------------------------------------------------
             Standard Nuclear Orientation (Angstroms)
    I     Atom           X                Y                Z
 ----------------------------------------------------------------
    1      Cl      0.7856835429     0.5786126205     1.1274300509
    2      Cl     -1.2701944882     2.3610808854     1.4720818170
    3      C      -0.3795938477    -0.4891198427    -0.1358365015
    4      C      -0.2795329499     0.2134025461    -1.3755194955
    5      C       0.1201602786    -1.9127928467    -0.0326229412
    6      H      -1.3237376874    -0.3157463949     0.3613148668
    7      H      -0.8513417363     1.1200950745    -1.5341178613
    8      H       0.4789550059    -0.0578689584    -2.1030353133
    9      H       1.1370637634    -2.0086801325    -0.4225197061
   10      H       0.1004139767    -2.2692656606     0.9987366621
   11      H      -0.5375778581    -2.5543182906    -0.6311065779
 ----------------------------------------------------------------
 Nuclear Repulsion Energy =   263.1878684408 hartrees
 There are       30 alpha and       28 beta electrons

                       Distance Matrix (Angstroms)
             Cl(  1)   Cl(  2)   C (  3)   C (  4)   C (  5)   H (  6)
   Cl(  2)  2.742738
   C (  3)  2.023306  3.391492
   C (  4)  2.744599  3.701725  1.428413
   C (  5)  2.827675  4.739538  1.512366  2.546337
   H (  6)  2.415878  2.898633  1.081030  2.094506  2.188741
   H (  7)  3.171260  3.279134  2.183417  1.083610  3.520897  2.424348
   H (  8)  3.306826  4.657500  2.189282  1.085436  2.802871  3.064184
   H (  9)  3.036428  5.336592  2.165987  2.802250  1.093301  3.088036
   H ( 10)  2.931990  4.852085  2.164852  3.456167  1.091405  2.500150
   H ( 11)  3.828672  5.396413  2.129623  2.877676  1.096520  2.571799
             H (  7)   H (  8)   H (  9)   H ( 10)
   H (  8)  1.865732
   H (  9)  3.870225  2.657612
   H ( 10)  4.336929  3.828127  1.778347
   H ( 11)  3.796734  3.071184  1.773599  1.773324
 
 Applying Cartesian multipole field
    Component          Value
    ---------          -----
     (2,0,0)        1.00000E-11
     (0,2,0)        2.00000E-11
     (0,0,2)       -3.00000E-11
 Nucleus-field energy     =     0.0000000032 hartrees
 Requested basis set is 6-31G(d,p)
 There are 40 shells and 113 basis functions
 A cutoff of  1.0D-14 yielded    768 shell pairs
 There are      6302 function pairs
 Smallest overlap matrix eigenvalue = 5.59E-03
 Guess from superposition of atomic densities
 Warning:  Energy on first SCF cycle will be non-variational
 SAD guess density has 58.000000 electrons

 -----------------------------------------------------------------------
  General SCF calculation program by
  Eric Jon Sundstrom, Paul Horn, Yuezhi Mao, Dmitri Zuev, Alec White,
  David Stuck, Shaama M.S., Shane Yost, Joonho Lee, David Small,
  Daniel Levine, Susi Lehtola, Hugh Burton, Evgeny Epifanovsky
 -----------------------------------------------------------------------
 Exchange:     0.2000 Hartree-Fock + 0.0800 Slater + 0.7200 B88
 Correlation:  0.1900 VWN1RPA + 0.8100 LYP
 Using SG-1 standard quadrature grid
 using 12 threads for integral computing
 -------------------------------------------------------
 OpenMP Integral computing Module                
 Release: version 1.0, May 2013, Q-Chem Inc. Pittsburgh 
 -------------------------------------------------------
 -------------------------------------------------------
 OpenMP BLAS3 based DFT computing Module                
 Release: version 1.0, May 2013, Q-Chem Inc. Pittsburgh 
 -------------------------------------------------------
 A unrestricted SCF calculation will be
 performed using DIIS
 SCF converges when DIIS error is below 1.0e-06
 Alpha HF Exchange    Energy =  -7.26341044275839
 Beta HF Exchange     Energy =  -7.26341044275839
 DFT Correlation      Energy =  -2.75726480806485
 DFT Exchange         Energy = -57.31315850143685
 One-Electron (alpha) Energy = -974.30584449845799
 One-Electron (beta)  Energy = -974.30584449845799
 Total Coulomb        Energy = 721.46407653347626
 ---------------------------------------
  Cycle       Energy         DIIS error
 ---------------------------------------
    1   -1038.5569882144      2.60e-02  
 Alpha HF Exchange    Energy =  -7.39700093754454
 Beta HF Exchange     Energy =  -7.17257319064404
 DFT Correlation      Energy =  -2.77481360417469
 DFT Exchange         Energy = -57.83464214135165
 One-Electron (alpha) Energy = -993.73085613206183
 One-Electron (beta)  Energy = -960.61485978943631
 Total Coulomb        Energy = 728.18538936281573
    2   -1038.1514879883      3.09e-03  
 Alpha HF Exchange    Energy =  -7.35499544387401
 Beta HF Exchange     Energy =  -7.14558903379400
 DFT Correlation      Energy =  -2.75436240481963
 DFT Exchange         Energy = -57.50953736119649
 One-Electron (alpha) Energy = -991.61785884375502
 One-Electron (beta)  Energy = -959.17094253522259
 Total Coulomb        Energy = 724.25210372734659
    3   -1038.1133134513      3.90e-03  
 Alpha HF Exchange    Energy =  -7.37029352247276
 Beta HF Exchange     Energy =  -7.14699689515502
 DFT Correlation      Energy =  -2.76203264962817
 DFT Exchange         Energy = -57.60079500672698
 One-Electron (alpha) Energy = -992.09851795875181
 One-Electron (beta)  Energy = -959.09055405182073
 Total Coulomb        Energy = 724.65431424542203
    4   -1038.2270073951      6.86e-04  
 Alpha HF Exchange    Energy =  -7.37725227050168
 Beta HF Exchange     Energy =  -7.15527505284096
 DFT Correlation      Energy =  -2.76328688154378
 DFT Exchange         Energy = -57.65489225847415
 One-Electron (alpha) Energy = -992.61389291990940
 One-Electron (beta)  Energy = -959.67612274984413
 Total Coulomb        Energy = 725.82260174322710
    5   -1038.2302519458      3.54e-04  
 Alpha HF Exchange    Energy =  -7.37700138481724
 Beta HF Exchange     Energy =  -7.15382313273786
 DFT Correlation      Energy =  -2.76292349668415
 DFT Exchange         Energy = -57.64875280207345
 One-Electron (alpha) Energy = -992.54607195859592
 One-Electron (beta)  Energy = -959.55781218963386
 Total Coulomb        Energy = 725.62720754724876
    6   -1038.2313089732      7.99e-05  
 Alpha HF Exchange    Energy =  -7.37654463008650
 Beta HF Exchange     Energy =  -7.15349471451797
 DFT Correlation      Energy =  -2.76267517561431
 DFT Exchange         Energy = -57.64482909044172
 One-Electron (alpha) Energy = -992.49402549303613
 One-Electron (beta)  Energy = -959.51950024211988
 Total Coulomb        Energy = 725.53183027236344
    7   -1038.2313706294      2.60e-05  
 Alpha HF Exchange    Energy =  -7.37683644690949
 Beta HF Exchange     Energy =  -7.15371192133333
 DFT Correlation      Energy =  -2.76267734740013
 DFT Exchange         Energy = -57.64661492531425
 One-Electron (alpha) Energy = -992.51031461584296
 One-Electron (beta)  Energy = -959.53621592257502
 Total Coulomb        Energy = 725.56712300421066
    8   -1038.2313797311      6.97e-06  
 Alpha HF Exchange    Energy =  -7.37680760786580
 Beta HF Exchange     Energy =  -7.15368910166089
 DFT Correlation      Energy =  -2.76264877917577
 DFT Exchange         Energy = -57.64633482618611
 One-Electron (alpha) Energy = -992.50459924266806
 One-Electron (beta)  Energy = -959.53291240180988
 Total Coulomb        Energy = 725.55774303862870
    9   -1038.2313804767      3.20e-06  
 Alpha HF Exchange    Energy =  -7.37681404013793
 Beta HF Exchange     Energy =  -7.15369668372747
 DFT Correlation      Energy =  -2.76265013755061
 DFT Exchange         Energy = -57.64639809376429
 One-Electron (alpha) Energy = -992.50538799817593
 One-Electron (beta)  Energy = -959.53392150376999
 Total Coulomb        Energy = 725.55961937827783
   10   -1038.2313806348      1.84e-06  
 Alpha HF Exchange    Energy =  -7.37681848279640
 Beta HF Exchange     Energy =  -7.15369500429488
 DFT Correlation      Energy =  -2.76264884654283
 DFT Exchange         Energy = -57.64640586238281
 One-Electron (alpha) Energy = -992.50528227514769
 One-Electron (beta)  Energy = -959.53388834938278
 Total Coulomb        Energy = 725.55948968088444
   11   -1038.2313806956      7.41e-07  Convergence criterion met
 ---------------------------------------
 SCF time:   CPU 28.22s  wall 3.00s 
<S^2> =          2.010315900
 Alpha HF Exchange    Energy =  -7.37681848279640
 Beta HF Exchange     Energy =  -7.15369500429488
 DFT Correlation      Energy =  -2.76264884654283
 DFT Exchange         Energy = -57.64640586238281
 One-Electron (alpha) Energy = -992.50528227514769
 One-Electron (beta)  Energy = -959.53388834938278
 Total Coulomb        Energy = 725.55948968088444
 Nuclear repulsion Energy = 263.18786844406054
 SCF   energy in the final basis set =    -1038.2313806956
 Total energy in the final basis set =    -1038.2313806956
 
 --------------------------------------------------------------
 
                    Orbital Energies (a.u.)
 --------------------------------------------------------------
 
 Alpha MOs
 -- Occupied --
*******-101.528 -10.278 -10.238 -10.215  -9.476  -9.441  -7.239
 -7.235  -7.229  -7.212  -7.194  -7.194  -0.874  -0.799  -0.775
 -0.727  -0.608  -0.507  -0.469  -0.462  -0.409  -0.402  -0.392
 -0.373  -0.331  -0.296  -0.292  -0.287  -0.255
 -- Virtual --
 -0.024   0.085   0.112   0.116   0.145   0.156   0.162   0.217
  0.261   0.348   0.386   0.416   0.427   0.434   0.459   0.497
  0.501   0.525   0.527   0.545   0.576   0.603   0.620   0.667
  0.700   0.761   0.789   0.825   0.834   0.839   0.850   0.868
  0.875   0.882   0.885   0.895   0.909   0.917   0.933   0.966
  1.013   1.079   1.135   1.188   1.304   1.403   1.410   1.533
  1.657   1.740   1.806   1.862   1.899   1.951   2.001   2.018
  2.055   2.083   2.107   2.246   2.275   2.329   2.383   2.473
  2.537   2.563   2.621   2.681   2.748   2.801   2.850   2.908
  3.161   3.266   3.385   3.390   3.434   3.511   4.185   4.241
  4.274   4.349   4.564
 
 Beta MOs
 -- Occupied --
*******-101.522 -10.279 -10.226 -10.215  -9.472  -9.435  -7.232
 -7.227  -7.226  -7.194  -7.191  -7.190  -0.858  -0.777  -0.736
 -0.710  -0.598  -0.501  -0.462  -0.454  -0.403  -0.395  -0.373
 -0.328  -0.321  -0.283  -0.279
 -- Virtual --
 -0.172  -0.125   0.001   0.088   0.115   0.123   0.146   0.158
  0.166   0.221   0.268   0.358   0.401   0.428   0.436   0.440
  0.464   0.505   0.520   0.535   0.550   0.574   0.593   0.618
  0.632   0.676   0.711   0.774   0.797   0.833   0.844   0.857
  0.857   0.889   0.894   0.904   0.911   0.917   0.920   0.929
  0.948   0.980   1.043   1.102   1.147   1.194   1.322   1.406
  1.440   1.540   1.664   1.741   1.817   1.867   1.913   1.971
  2.006   2.020   2.058   2.088   2.116   2.253   2.276   2.331
  2.396   2.487   2.545   2.578   2.623   2.685   2.750   2.802
  2.851   2.910   3.162   3.270   3.389   3.392   3.435   3.516
  4.201   4.258   4.286   4.361   4.568
 --------------------------------------------------------------
 
          Ground-State Mulliken Net Atomic Charges

     Atom                 Charge (a.u.)    Spin (a.u.)
  --------------------------------------------------------
      1 Cl                   -0.048676       0.468750
      2 Cl                   -0.221706       0.755256
      3 C                    -0.166663      -0.061970
      4 C                    -0.144281       0.902137
      5 C                    -0.315860       0.005103
      6 H                     0.192221       0.008445
      7 H                     0.157343      -0.039501
      8 H                     0.131109      -0.039121
      9 H                     0.135508      -0.000917
     10 H                     0.144733       0.001638
     11 H                     0.136271       0.000180
  --------------------------------------------------------
  Sum of atomic charges =     0.000000
  Sum of spin   charges =     2.000000

 -----------------------------------------------------------------
                    Cartesian Multipole Moments
 -----------------------------------------------------------------
    Charge (ESU x 10^10)
                 0.0000
    Dipole Moment (Debye)
         X       0.2327      Y      -3.6957      Z      -2.9419
       Tot       4.7294
    Quadrupole Moments (Debye-Ang)
        XX     -45.5188     XY       1.7795     YY     -48.3365
        XZ       1.1051     YZ      -4.3940     ZZ     -46.5612
    Octopole Moments (Debye-Ang^2)
       XXX      29.2971    XXY     -24.0191    XYY      13.1028
       YYY     -84.2872    XXZ     -24.8305    XYZ       4.6858
       YYZ     -31.2143    XZZ      14.1977    YZZ     -27.7718
       ZZZ     -77.3441
    Hexadecapole Moments (Debye-Ang^3)
      XXXX    -240.3059   XXXY     100.4658   XXYY    -153.0407
      XYYY     109.3903   YYYY    -721.9193   XXXZ      32.4453
      XXYZ     -51.0359   XYYZ      18.3051   YYYZ    -171.8387
      XXZZ    -109.7448   XYZZ      40.1685   YYZZ    -193.7066
      XZZZ      37.4183   YZZZ    -167.5434   ZZZZ    -414.4876
 -----------------------------------------------------------------
 Calculating analytic gradient of the SCF energy
 Gradient of SCF Energy
            1           2           3           4           5           6
    1  -0.0004502   0.0002012  -0.0007293  -0.0022298  -0.0004887   0.0037236
    2  -0.0006359  -0.0005516   0.0026306  -0.0002057  -0.0003343  -0.0006281
    3  -0.0022880  -0.0001872  -0.0034537   0.0081539   0.0024169  -0.0050386
            7           8           9          10          11
    1  -0.0000316  -0.0000881  -0.0000335   0.0001343  -0.0000078
    2   0.0002218  -0.0003446   0.0001657  -0.0003932   0.0000754
    3  -0.0000983   0.0004804   0.0000393   0.0000040  -0.0000285
 Max gradient component =       8.154E-03
 RMS gradient           =       2.086E-03
 Gradient time:  CPU 9.04 s  wall 0.76 s
 Geometry Optimization Parameters
   NAtoms,    NIC,     NZ,  NCons,   NDum,   NFix, NCnnct, MaxDiis
       11      74       0       1       0       0       0       0

 Cartesian Hessian Update
 Hessian Updated using BFGS Update


** CONSTRAINED OPTIMIZATION IN DELOCALIZED INTERNAL COORDINATES **
   Searching for a Minimum

   Optimization Cycle:   2

                       Coordinates (Angstroms)
     ATOM                X               Y               Z
      1  Cl        0.7856835429    0.5786126205    1.1274300509
      2  Cl       -1.2701944882    2.3610808854    1.4720818170
      3  C        -0.3795938477   -0.4891198427   -0.1358365015
      4  C        -0.2795329499    0.2134025461   -1.3755194955
      5  C         0.1201602786   -1.9127928467   -0.0326229412
      6  H        -1.3237376874   -0.3157463949    0.3613148668
      7  H        -0.8513417363    1.1200950745   -1.5341178613
      8  H         0.4789550059   -0.0578689584   -2.1030353133
      9  H         1.1370637634   -2.0086801325   -0.4225197061
     10  H         0.1004139767   -2.2692656606    0.9987366621
     11  H        -0.5375778581   -2.5543182906   -0.6311065779
   Point Group: c1    Number of degrees of freedom:    27


   Energy is  -1038.231380696

              Constraints and their Current Values
                                        Value     Constraint
   Distance(Angs):        2   4             3.701725     3.700000
 Hessian Updated using BFGS Update

   Using Lagrange Multiplier Algorithm


 25 Hessian modes will be used to form the next step
  Hessian Eigenvalues:
    -0.990034    0.031845    0.045000    0.045013    0.045544    0.064209
     0.067529    0.078503    0.082231    0.085111    0.113343    0.136354
     0.145703    0.155877    0.159999    0.166453    0.311148    0.340694
     0.344334    0.346437    0.349406    0.353692    0.355719    0.453356
     1.013382

 Minimum Search - Taking P-RFO Step
 Searching for Lamda that Maximizes Along the Constraint modes Only
 Value Taken    Lamda =   0.00001387
 Searching for Lamda that Minimizes Along All other modes
 Value Taken    Lamda =  -0.00029879
 Step Taken.  Stepsize is  0.036799

                             Maximum     Tolerance    Cnvgd?
         Gradient            0.006117       0.000300      NO
         Displacement        0.019075       0.001200      NO
         Energy change      0.000325       0.000001      NO


 New Cartesian Coordinates Obtained by Inverse Iteration

 Displacement from previous Coordinates is:  0.045957
 ----------------------------------------------------------------
             Standard Nuclear Orientation (Angstroms)
    I     Atom           X                Y                Z
 ----------------------------------------------------------------
    1      Cl      0.7845886515     0.5788882775     1.1392429593
    2      Cl     -1.2700209024     2.3632351540     1.4646017064
    3      C      -0.3812377098    -0.4888444494    -0.1297411391
    4      C      -0.2783180788     0.2113941955    -1.3772477416
    5      C       0.1205239133    -1.9118550063    -0.0355063582
    6      H      -1.3271773397    -0.3152260358     0.3749779089
    7      H      -0.8494230669     1.1179011924    -1.5380989034
    8      H       0.4796831953    -0.0614146115    -2.1051060054
    9      H       1.1364770300    -2.0057605669    -0.4285462388
   10      H       0.1034383554    -2.2710824736     0.9947954234
   11      H      -0.5382360481    -2.5518366758    -0.6345666116
 ----------------------------------------------------------------
 Nuclear Repulsion Energy =   262.9959401309 hartrees
 There are       30 alpha and       28 beta electrons

                       Distance Matrix (Angstroms)
             Cl(  1)   Cl(  2)   C (  3)   C (  4)   C (  5)   H (  6)
   Cl(  2)  2.740652
   C (  3)  2.027196  3.386181
   C (  4)  2.756365  3.700000  1.434294
   C (  5)  2.832811  4.739234  1.511821  2.543134
   H (  6)  2.417250  2.892179  1.086134  2.108964  2.193983
   H (  7)  3.182560  3.277800  2.187304  1.083415  3.518239  2.437615
   H (  8)  3.320957  4.656523  2.196804  1.085711  2.799351  3.078958
   H (  9)  3.043386  5.335107  2.166513  2.795971  1.093371  3.094051
   H ( 10)  2.933797  4.856337  2.162375  3.454709  1.091264  2.501242
   H ( 11)  3.833759  5.394437  2.129656  2.873078  1.096547  2.577603
             H (  7)   H (  8)   H (  9)   H ( 10)
   H (  8)  1.865156
   H (  9)  3.864216  2.650040
   H ( 10)  4.336901  3.825386  1.778614
   H ( 11)  3.792121  3.066080  1.773501  1.773525
 
 Applying Cartesian multipole field
    Component          Value
    ---------          -----
     (2,0,0)        1.00000E-11
     (0,2,0)        2.00000E-11
     (0,0,2)       -3.00000E-11
 Nucleus-field energy     =     0.0000000032 hartrees
 Requested basis set is 6-31G(d,p)
 There are 40 shells and 113 basis functions
 A cutoff of  1.0D-14 yielded    768 shell pairs
 There are      6302 function pairs
 Smallest overlap matrix eigenvalue = 5.64E-03
 Guess from superposition of atomic densities
 Warning:  Energy on first SCF cycle will be non-variational
 SAD guess density has 58.000000 electrons

 -----------------------------------------------------------------------
  General SCF calculation program by
  Eric Jon Sundstrom, Paul Horn, Yuezhi Mao, Dmitri Zuev, Alec White,
  David Stuck, Shaama M.S., Shane Yost, Joonho Lee, David Small,
  Daniel Levine, Susi Lehtola, Hugh Burton, Evgeny Epifanovsky
 -----------------------------------------------------------------------
 Exchange:     0.2000 Hartree-Fock + 0.0800 Slater + 0.7200 B88
 Correlation:  0.1900 VWN1RPA + 0.8100 LYP
 Using SG-1 standard quadrature grid
 using 12 threads for integral computing
 -------------------------------------------------------
 OpenMP Integral computing Module                
 Release: version 1.0, May 2013, Q-Chem Inc. Pittsburgh 
 -------------------------------------------------------
 -------------------------------------------------------
 OpenMP BLAS3 based DFT computing Module                
 Release: version 1.0, May 2013, Q-Chem Inc. Pittsburgh 
 -------------------------------------------------------
 A unrestricted SCF calculation will be
 performed using DIIS
 SCF converges when DIIS error is below 1.0e-06
 Alpha HF Exchange    Energy =  -7.26218236571028
 Beta HF Exchange     Energy =  -7.26218236571028
 DFT Correlation      Energy =  -2.75699570104395
 DFT Exchange         Energy = -57.31066678064821
 One-Electron (alpha) Energy = -974.12035333448284
 One-Electron (beta)  Energy = -974.12035333448284
 Total Coulomb        Energy = 721.29043015758748
 ---------------------------------------
  Cycle       Energy         DIIS error
 ---------------------------------------
    1   -1038.5463635903      2.59e-02  
 Alpha HF Exchange    Energy =  -7.39629433225360
 Beta HF Exchange     Energy =  -7.17214057287037
 DFT Correlation      Energy =  -2.77445579453644
 DFT Exchange         Energy = -57.83028702805906
 One-Electron (alpha) Energy = -993.52670668792098
 One-Electron (beta)  Energy = -960.44763742008740
 Total Coulomb        Energy = 727.99929552086087
    2   -1038.1522861807      3.08e-03  
 Alpha HF Exchange    Energy =  -7.35436468456898
 Beta HF Exchange     Energy =  -7.14503371307524
 DFT Correlation      Energy =  -2.75409918414245
 DFT Exchange         Energy = -57.50559058940743
 One-Electron (alpha) Energy = -991.42085949560146
 One-Electron (beta)  Energy = -958.99437981945402
 Total Coulomb        Energy = 724.06353756918281
    3   -1038.1148497829      3.88e-03  
 Alpha HF Exchange    Energy =  -7.36967183842311
 Beta HF Exchange     Energy =  -7.14655375287217
 DFT Correlation      Energy =  -2.76171917442620
 DFT Exchange         Energy = -57.59701704099734
 One-Electron (alpha) Energy = -991.89748373925806
 One-Electron (beta)  Energy = -958.91894371839635
 Total Coulomb        Energy = 724.46827625019807
    4   -1038.2271728800      6.89e-04  
 Alpha HF Exchange    Energy =  -7.37658970058778
 Beta HF Exchange     Energy =  -7.15480105066184
 DFT Correlation      Energy =  -2.76295889387548
 DFT Exchange         Energy = -57.65080634167023
 One-Electron (alpha) Energy = -992.41155049360941
 One-Electron (beta)  Energy = -959.50291069068919
 Total Coulomb        Energy = 725.63321733874375
    5   -1038.2304596982      3.54e-04  
 Alpha HF Exchange    Energy =  -7.37636982086251
 Beta HF Exchange     Energy =  -7.15337489738775
 DFT Correlation      Energy =  -2.76260748466283
 DFT Exchange         Energy = -57.64491245329123
 One-Electron (alpha) Energy = -992.34630773572962
 One-Electron (beta)  Energy = -959.38698855179950
 Total Coulomb        Energy = 725.44310252385640
    6   -1038.2315182857      8.02e-05  
 Alpha HF Exchange    Energy =  -7.37590633890710
 Beta HF Exchange     Energy =  -7.15303174859898
 DFT Correlation      Energy =  -2.76235130216298
 DFT Exchange         Energy = -57.64088634105313
 One-Electron (alpha) Energy = -992.29284203261284
 One-Electron (beta)  Energy = -959.34730062463416
 Total Coulomb        Energy = 725.34479794057381
    7   -1038.2315803132      2.62e-05  
 Alpha HF Exchange    Energy =  -7.37619809976559
 Beta HF Exchange     Energy =  -7.15325252219073
 DFT Correlation      Energy =  -2.76235635807078
 DFT Exchange         Energy = -57.64269509081745
 One-Electron (alpha) Energy = -992.30970031217453
 One-Electron (beta)  Energy = -959.36443607857245
 Total Coulomb        Energy = 725.38110893561952
    8   -1038.2315893918      7.53e-06  
 Alpha HF Exchange    Energy =  -7.37617309371401
 Beta HF Exchange     Energy =  -7.15322702220164
 DFT Correlation      Energy =  -2.76232638048807
 DFT Exchange         Energy = -57.64241461259417
 One-Electron (alpha) Energy = -992.30383347892700
 One-Electron (beta)  Energy = -959.36089146476399
 Total Coulomb        Energy = 725.37133577541147
    9   -1038.2315901431      4.05e-06  
 Alpha HF Exchange    Energy =  -7.37617572485965
 Beta HF Exchange     Energy =  -7.15323464370727
 DFT Correlation      Energy =  -2.76232775136186
 DFT Exchange         Energy = -57.64246296655948
 One-Electron (alpha) Energy = -992.30447858442062
 One-Electron (beta)  Energy = -959.36182557492248
 Total Coulomb        Energy = 725.37297477606387
   10   -1038.2315903356      1.90e-06  
 Alpha HF Exchange    Energy =  -7.37618200217318
 Beta HF Exchange     Energy =  -7.15323364824175
 DFT Correlation      Energy =  -2.76232658099021
 DFT Exchange         Energy = -57.64248167331391
 One-Electron (alpha) Energy = -992.30451296993488
 One-Electron (beta)  Energy = -959.36191151669709
 Total Coulomb        Energy = 725.37311785087797
   11   -1038.2315904063      7.31e-07  Convergence criterion met
 ---------------------------------------
 SCF time:   CPU 27.52s  wall 2.00s 
<S^2> =          2.010328030
 Alpha HF Exchange    Energy =  -7.37618200217318
 Beta HF Exchange     Energy =  -7.15323364824175
 DFT Correlation      Energy =  -2.76232658099021
 DFT Exchange         Energy = -57.64248167331391
 One-Electron (alpha) Energy = -992.30451296993488
 One-Electron (beta)  Energy = -959.36191151669709
 Total Coulomb        Energy = 725.37311785087797
 Nuclear repulsion Energy = 262.99594013418226
 SCF   energy in the final basis set =    -1038.2315904063
 Total energy in the final basis set =    -1038.2315904063
 
 --------------------------------------------------------------
 
                    Orbital Energies (a.u.)
 --------------------------------------------------------------
 
 Alpha MOs
 -- Occupied --
*******-101.528 -10.279 -10.239 -10.215  -9.476  -9.440  -7.239
 -7.235  -7.229  -7.211  -7.194  -7.193  -0.873  -0.799  -0.774
 -0.726  -0.608  -0.506  -0.469  -0.461  -0.408  -0.403  -0.391
 -0.374  -0.331  -0.296  -0.292  -0.286  -0.255
 -- Virtual --
 -0.025   0.085   0.110   0.116   0.145   0.156   0.161   0.217
  0.259   0.348   0.386   0.416   0.427   0.434   0.460   0.498
  0.501   0.525   0.527   0.545   0.576   0.603   0.618   0.667
  0.700   0.759   0.788   0.825   0.834   0.838   0.851   0.868
  0.876   0.882   0.885   0.894   0.909   0.917   0.932   0.966
  1.012   1.077   1.133   1.188   1.303   1.400   1.410   1.533
  1.655   1.740   1.807   1.856   1.898   1.949   1.999   2.018
  2.054   2.081   2.103   2.244   2.277   2.329   2.383   2.470
  2.535   2.560   2.619   2.678   2.741   2.801   2.848   2.905
  3.161   3.263   3.379   3.390   3.431   3.508   4.183   4.242
  4.273   4.348   4.564
 
 Beta MOs
 -- Occupied --
*******-101.522 -10.280 -10.227 -10.215  -9.472  -9.435  -7.232
 -7.227  -7.226  -7.194  -7.191  -7.190  -0.857  -0.777  -0.736
 -0.710  -0.598  -0.501  -0.462  -0.454  -0.403  -0.396  -0.373
 -0.328  -0.321  -0.283  -0.279
 -- Virtual --
 -0.172  -0.125   0.000   0.088   0.114   0.123   0.146   0.158
  0.166   0.220   0.265   0.358   0.400   0.427   0.436   0.440
  0.465   0.505   0.521   0.535   0.550   0.573   0.593   0.619
  0.630   0.676   0.712   0.773   0.797   0.832   0.844   0.857
  0.857   0.889   0.894   0.903   0.911   0.917   0.920   0.929
  0.947   0.980   1.042   1.101   1.146   1.193   1.322   1.403
  1.440   1.540   1.662   1.742   1.817   1.863   1.911   1.970
  2.005   2.020   2.057   2.085   2.112   2.251   2.277   2.331
  2.396   2.484   2.543   2.575   2.621   2.682   2.744   2.802
  2.848   2.908   3.162   3.266   3.383   3.391   3.432   3.513
  4.199   4.258   4.285   4.360   4.567
 --------------------------------------------------------------
 
          Ground-State Mulliken Net Atomic Charges

     Atom                 Charge (a.u.)    Spin (a.u.)
  --------------------------------------------------------
      1 Cl                   -0.050017       0.467214
      2 Cl                   -0.222397       0.754357
      3 C                    -0.165377      -0.062231
      4 C                    -0.144503       0.905121
      5 C                    -0.315947       0.005033
      6 H                     0.192525       0.008387
      7 H                     0.157297      -0.039554
      8 H                     0.131629      -0.039261
      9 H                     0.135711      -0.000925
     10 H                     0.144475       0.001677
     11 H                     0.136605       0.000182
  --------------------------------------------------------
  Sum of atomic charges =    -0.000000
  Sum of spin   charges =     2.000000

 -----------------------------------------------------------------
                    Cartesian Multipole Moments
 -----------------------------------------------------------------
    Charge (ESU x 10^10)
                -0.0000
    Dipole Moment (Debye)
         X       0.2344      Y      -3.7112      Z      -2.9517
       Tot       4.7477
    Quadrupole Moments (Debye-Ang)
        XX     -45.5338     XY       1.7957     YY     -48.3811
        XZ       1.0818     YZ      -4.3876     ZZ     -46.5365
    Octopole Moments (Debye-Ang^2)
       XXX      29.3480    XXY     -24.0857    XYY      13.1625
       YYY     -84.4503    XXZ     -24.8958    XYZ       4.7193
       YYZ     -31.3268    XZZ      14.2215    YZZ     -27.7926
       ZZZ     -77.5789
    Hexadecapole Moments (Debye-Ang^3)
      XXXX    -240.2815   XXXY     100.6014   XXYY    -153.1978
      XYYY     109.5702   YYYY    -722.7764   XXXZ      31.8793
      XXYZ     -51.0831   XYYZ      18.2220   YYYZ    -171.7426
      XXZZ    -109.8621   XYZZ      40.2824   YYZZ    -193.9531
      XZZZ      36.8480   YZZZ    -167.3237   ZZZZ    -414.8158
 -----------------------------------------------------------------
 Calculating analytic gradient of the SCF energy
 Gradient of SCF Energy
            1           2           3           4           5           6
    1  -0.0000804   0.0002853   0.0003794  -0.0011390  -0.0003620   0.0007714
    2  -0.0000639  -0.0006429   0.0005099   0.0005622  -0.0002223  -0.0002161
    3  -0.0013185  -0.0002586  -0.0011344   0.0040476   0.0014117  -0.0025126
            7           8           9          10          11
    1   0.0000532   0.0000053   0.0000284   0.0000163   0.0000422
    2   0.0000363  -0.0000028   0.0000337   0.0000001   0.0000058
    3  -0.0000507  -0.0000462  -0.0000229  -0.0000478  -0.0000677
 Max gradient component =       4.048E-03
 RMS gradient           =       9.715E-04
 Gradient time:  CPU 8.88 s  wall 0.76 s
 Geometry Optimization Parameters
   NAtoms,    NIC,     NZ,  NCons,   NDum,   NFix, NCnnct, MaxDiis
       11      74       0       1       0       0       0       0

 Cartesian Hessian Update
 Hessian Updated using BFGS Update


** CONSTRAINED OPTIMIZATION IN DELOCALIZED INTERNAL COORDINATES **
   Searching for a Minimum

   Optimization Cycle:   3

                       Coordinates (Angstroms)
     ATOM                X               Y               Z
      1  Cl        0.7845886515    0.5788882775    1.1392429593
      2  Cl       -1.2700209024    2.3632351540    1.4646017064
      3  C        -0.3812377098   -0.4888444494   -0.1297411391
      4  C        -0.2783180788    0.2113941955   -1.3772477416
      5  C         0.1205239133   -1.9118550063   -0.0355063582
      6  H        -1.3271773397   -0.3152260358    0.3749779089
      7  H        -0.8494230669    1.1179011924   -1.5380989034
      8  H         0.4796831953   -0.0614146115   -2.1051060054
      9  H         1.1364770300   -2.0057605669   -0.4285462388
     10  H         0.1034383554   -2.2710824736    0.9947954234
     11  H        -0.5382360481   -2.5518366758   -0.6345666116
   Point Group: c1    Number of degrees of freedom:    27


   Energy is  -1038.231590406

              Constraints and their Current Values
                                        Value     Constraint
   Distance(Angs):        2   4             3.700000     3.700000
 Hessian Updated using BFGS Update

 24 Hessian modes will be used to form the next step
  Hessian Eigenvalues:
     0.031930    0.045000    0.045004    0.045542    0.053858    0.065828
     0.071847    0.082244    0.085106    0.109173    0.118751    0.140924
     0.146594    0.159970    0.160000    0.164882    0.311140    0.340686
     0.344183    0.345905    0.349406    0.354694    0.356511    0.416970

 Minimum Search - Taking Simple RFO Step
 Searching for Lamda that Minimizes Along All modes
 Value Taken    Lamda =  -0.00017811
 Step Taken.  Stepsize is  0.050546

                             Maximum     Tolerance    Cnvgd?
         Gradient           0.002237      0.000300      NO
         Displacement       0.023153      0.001200      NO
         Energy change     -0.000210      0.000001      NO


 New Cartesian Coordinates Obtained by Inverse Iteration

 Displacement from previous Coordinates is:  0.075927
 ----------------------------------------------------------------
             Standard Nuclear Orientation (Angstroms)
    I     Atom           X                Y                Z
 ----------------------------------------------------------------
    1      Cl      0.7803474626     0.5782560892     1.1572516058
    2      Cl     -1.2707781671     2.3709626875     1.4543776655
    3      C      -0.3838318243    -0.4869975855    -0.1213637884
    4      C      -0.2778879515     0.2067399997    -1.3776377768
    5      C       0.1211957417    -1.9093592375    -0.0406618312
    6      H      -1.3278940104    -0.3131324798     0.3934550460
    7      H      -0.8468560119     1.1135684592    -1.5446691269
    8      H       0.4804764653    -0.0731654852    -2.1020592147
    9      H       1.1351952209    -1.9984151769    -0.4395694286
   10      H       0.1101280956    -2.2773656607     0.9867839869
   11      H      -0.5397970209    -2.5456926099    -0.6411021376
 ----------------------------------------------------------------
 Nuclear Repulsion Energy =   262.7543323708 hartrees
 There are       30 alpha and       28 beta electrons

                       Distance Matrix (Angstroms)
             Cl(  1)   Cl(  2)   C (  3)   C (  4)   C (  5)   H (  6)
   Cl(  2)  2.740291
   C (  3)  2.030994  3.381948
   C (  4)  2.771922  3.700000  1.439000
   C (  5)  2.838610  4.742772  1.511515  2.534689
   H (  6)  2.413015  2.886726  1.089275  2.123570  2.199149
   H (  7)  3.199176  3.279487  2.191347  1.083495  3.512443  2.454221
   H (  8)  3.337271  4.657134  2.200327  1.085472  2.783891  3.091178
   H (  9)  3.052047  5.335467  2.166352  2.781993  1.093276  3.098535
   H ( 10)  2.938168  4.871602  2.162731  3.451352  1.091419  2.505625
   H ( 11)  3.838738  5.394337  2.129009  2.861288  1.096522  2.583743
             H (  7)   H (  8)   H (  9)   H ( 10)
   H (  8)  1.865699
   H (  9)  3.851521  2.626617
   H ( 10)  4.338491  3.812690  1.778499
   H ( 11)  3.781654  3.047744  1.773620  1.773250
 
 Applying Cartesian multipole field
    Component          Value
    ---------          -----
     (2,0,0)        1.00000E-11
     (0,2,0)        2.00000E-11
     (0,0,2)       -3.00000E-11
 Nucleus-field energy     =     0.0000000032 hartrees
 Requested basis set is 6-31G(d,p)
 There are 40 shells and 113 basis functions
 A cutoff of  1.0D-14 yielded    768 shell pairs
 There are      6302 function pairs
 Smallest overlap matrix eigenvalue = 5.67E-03
 Guess from superposition of atomic densities
 Warning:  Energy on first SCF cycle will be non-variational
 SAD guess density has 58.000000 electrons

 -----------------------------------------------------------------------
  General SCF calculation program by
  Eric Jon Sundstrom, Paul Horn, Yuezhi Mao, Dmitri Zuev, Alec White,
  David Stuck, Shaama M.S., Shane Yost, Joonho Lee, David Small,
  Daniel Levine, Susi Lehtola, Hugh Burton, Evgeny Epifanovsky
 -----------------------------------------------------------------------
 Exchange:     0.2000 Hartree-Fock + 0.0800 Slater + 0.7200 B88
 Correlation:  0.1900 VWN1RPA + 0.8100 LYP
 Using SG-1 standard quadrature grid
 using 12 threads for integral computing
 -------------------------------------------------------
 OpenMP Integral computing Module                
 Release: version 1.0, May 2013, Q-Chem Inc. Pittsburgh 
 -------------------------------------------------------
 -------------------------------------------------------
 OpenMP BLAS3 based DFT computing Module                
 Release: version 1.0, May 2013, Q-Chem Inc. Pittsburgh 
 -------------------------------------------------------
 A unrestricted SCF calculation will be
 performed using DIIS
 SCF converges when DIIS error is below 1.0e-06
 Alpha HF Exchange    Energy =  -7.26121704513709
 Beta HF Exchange     Energy =  -7.26121704513709
 DFT Correlation      Energy =  -2.75677037730120
 DFT Exchange         Energy = -57.30870505159348
 One-Electron (alpha) Energy = -973.88335302083703
 One-Electron (beta)  Energy = -973.88335302083703
 Total Coulomb        Energy = 721.06249206755638
 ---------------------------------------
  Cycle       Energy         DIIS error
 ---------------------------------------
    1   -1038.5377911193      2.58e-02  
 Alpha HF Exchange    Energy =  -7.39573733767654
 Beta HF Exchange     Energy =  -7.17185708349716
 DFT Correlation      Energy =  -2.77415743904009
 DFT Exchange         Energy = -57.82707609710620
 One-Electron (alpha) Energy = -993.27240519184807
 One-Electron (beta)  Energy = -960.23380944361566
 Total Coulomb        Energy = 727.76780650230364
    2   -1038.1529037165      3.07e-03  
 Alpha HF Exchange    Energy =  -7.35383676954729
 Beta HF Exchange     Energy =  -7.14459236122982
 DFT Correlation      Energy =  -2.75386256469988
 DFT Exchange         Energy = -57.50232096402126
 One-Electron (alpha) Energy = -991.16524466569047
 One-Electron (beta)  Energy = -958.76681298777726
 Total Coulomb        Energy = 723.81626256811603
    3   -1038.1160753708      3.86e-03  
 Alpha HF Exchange    Energy =  -7.36917301967141
 Beta HF Exchange     Energy =  -7.14623659642170
 DFT Correlation      Energy =  -2.76145367173502
 DFT Exchange         Energy = -57.59413958596645
 One-Electron (alpha) Energy = -991.64281502456436
 One-Electron (beta)  Energy = -958.69917666127162
 Total Coulomb        Energy = 724.23143796976785
    4   -1038.2272242159      6.92e-04  
 Alpha HF Exchange    Energy =  -7.37605726651503
 Beta HF Exchange     Energy =  -7.15445863186665
 DFT Correlation      Energy =  -2.76267917702630
 DFT Exchange         Energy = -57.64766192512720
 One-Electron (alpha) Energy = -992.15569578873976
 One-Electron (beta)  Energy = -959.28155804420783
 Total Coulomb        Energy = 725.39322403666574
    5   -1038.2305544228      3.54e-04  
 Alpha HF Exchange    Energy =  -7.37586301724958
 Beta HF Exchange     Energy =  -7.15305175047223
 DFT Correlation      Energy =  -2.76233823231869
 DFT Exchange         Energy = -57.64197007790909
 One-Electron (alpha) Energy = -992.09266296640124
 One-Electron (beta)  Energy = -959.16762592925159
 Total Coulomb        Energy = 725.20756332274243
    6   -1038.2316162768      8.06e-05  
 Alpha HF Exchange    Energy =  -7.37539462381667
 Beta HF Exchange     Energy =  -7.15269737128858
 DFT Correlation      Energy =  -2.76207607941539
 DFT Exchange         Energy = -57.63786550106528
 One-Electron (alpha) Energy = -992.03813395074758
 One-Electron (beta)  Energy = -959.12685584677092
 Total Coulomb        Energy = 725.10701218511883
    7   -1038.2316788140      2.63e-05  
 Alpha HF Exchange    Energy =  -7.37568573170886
 Beta HF Exchange     Energy =  -7.15291959038712
 DFT Correlation      Energy =  -2.76208315966873
 DFT Exchange         Energy = -57.63968512636296
 One-Electron (alpha) Energy = -992.05538389802621
 One-Electron (beta)  Energy = -959.14419844505926
 Total Coulomb        Energy = 725.14393569549782
    8   -1038.2316878817      8.11e-06  
 Alpha HF Exchange    Energy =  -7.37566485315971
 Beta HF Exchange     Energy =  -7.15289325943899
 DFT Correlation      Energy =  -2.76205272929337
 DFT Exchange         Energy = -57.63941459770529
 One-Electron (alpha) Energy = -992.04955082686376
 One-Electron (beta)  Energy = -959.14059042963152
 Total Coulomb        Energy = 725.13414566502797
    9   -1038.2316886571      4.60e-06  
 Alpha HF Exchange    Energy =  -7.37566463755961
 Beta HF Exchange     Energy =  -7.15289994705115
 DFT Correlation      Energy =  -2.76205356752093
 DFT Exchange         Energy = -57.63944717638510
 One-Electron (alpha) Energy = -992.05000494983472
 One-Electron (beta)  Energy = -959.14138799315913
 Total Coulomb        Energy = 725.13543701219282
   10   -1038.2316888853      1.85e-06  
 Alpha HF Exchange    Energy =  -7.37567184668558
 Beta HF Exchange     Energy =  -7.15289945737863
 DFT Correlation      Energy =  -2.76205258174315
 DFT Exchange         Energy = -57.63947231515598
 One-Electron (alpha) Energy = -992.05013474429745
 One-Electron (beta)  Energy = -959.14154779499711
 Total Coulomb        Energy = 725.13575740681051
   11   -1038.2316889594      7.34e-07  Convergence criterion met
 ---------------------------------------
 SCF time:   CPU 27.25s  wall 2.00s 
<S^2> =          2.010334498
 Alpha HF Exchange    Energy =  -7.37567184668558
 Beta HF Exchange     Energy =  -7.15289945737863
 DFT Correlation      Energy =  -2.76205258174315
 DFT Exchange         Energy = -57.63947231515598
 One-Electron (alpha) Energy = -992.05013474429745
 One-Electron (beta)  Energy = -959.14154779499711
 Total Coulomb        Energy = 725.13575740681051
 Nuclear repulsion Energy = 262.75433237401108
 SCF   energy in the final basis set =    -1038.2316889594
 Total energy in the final basis set =    -1038.2316889594
 
 --------------------------------------------------------------
 
                    Orbital Energies (a.u.)
 --------------------------------------------------------------
 
 Alpha MOs
 -- Occupied --
*******-101.527 -10.280 -10.240 -10.215  -9.476  -9.440  -7.239
 -7.235  -7.229  -7.211  -7.194  -7.193  -0.872  -0.799  -0.774
 -0.725  -0.608  -0.506  -0.468  -0.461  -0.408  -0.403  -0.390
 -0.374  -0.330  -0.296  -0.292  -0.286  -0.256
 -- Virtual --
 -0.026   0.085   0.109   0.116   0.145   0.156   0.161   0.216
  0.257   0.348   0.386   0.415   0.427   0.435   0.462   0.499
  0.501   0.525   0.527   0.545   0.576   0.603   0.616   0.668
  0.701   0.757   0.788   0.824   0.834   0.838   0.851   0.868
  0.876   0.882   0.886   0.894   0.909   0.917   0.931   0.966
  1.011   1.075   1.132   1.188   1.303   1.396   1.410   1.534
  1.653   1.741   1.807   1.852   1.897   1.947   1.997   2.018
  2.053   2.080   2.101   2.242   2.279   2.329   2.383   2.468
  2.535   2.558   2.619   2.675   2.736   2.800   2.846   2.903
  3.161   3.261   3.374   3.389   3.429   3.506   4.181   4.242
  4.273   4.347   4.563
 
 Beta MOs
 -- Occupied --
*******-101.522 -10.281 -10.228 -10.215  -9.472  -9.435  -7.232
 -7.227  -7.226  -7.194  -7.190  -7.190  -0.856  -0.777  -0.736
 -0.709  -0.598  -0.501  -0.462  -0.454  -0.402  -0.397  -0.372
 -0.328  -0.320  -0.283  -0.279
 -- Virtual --
 -0.172  -0.126  -0.001   0.088   0.113   0.123   0.146   0.158
  0.166   0.220   0.263   0.358   0.400   0.426   0.436   0.440
  0.467   0.507   0.521   0.535   0.550   0.573   0.593   0.619
  0.628   0.677   0.712   0.771   0.796   0.832   0.844   0.856
  0.858   0.889   0.895   0.903   0.912   0.916   0.920   0.929
  0.946   0.980   1.040   1.099   1.145   1.193   1.322   1.400
  1.440   1.541   1.660   1.743   1.817   1.859   1.909   1.969
  2.003   2.019   2.056   2.084   2.110   2.249   2.279   2.331
  2.395   2.482   2.542   2.574   2.620   2.679   2.739   2.802
  2.847   2.905   3.162   3.264   3.379   3.391   3.430   3.511
  4.197   4.258   4.284   4.359   4.566
 --------------------------------------------------------------
 
          Ground-State Mulliken Net Atomic Charges

     Atom                 Charge (a.u.)    Spin (a.u.)
  --------------------------------------------------------
      1 Cl                   -0.051655       0.465702
      2 Cl                   -0.222925       0.753672
      3 C                    -0.164019      -0.062503
      4 C                    -0.144316       0.907607
      5 C                    -0.316296       0.005007
      6 H                     0.193116       0.008389
      7 H                     0.157214      -0.039559
      8 H                     0.132128      -0.039374
      9 H                     0.135845      -0.000942
     10 H                     0.143975       0.001781
     11 H                     0.136933       0.000220
  --------------------------------------------------------
  Sum of atomic charges =     0.000000
  Sum of spin   charges =     2.000000

 -----------------------------------------------------------------
                    Cartesian Multipole Moments
 -----------------------------------------------------------------
    Charge (ESU x 10^10)
                -0.0000
    Dipole Moment (Debye)
         X       0.2361      Y      -3.7286      Z      -2.9635
       Tot       4.7687
    Quadrupole Moments (Debye-Ang)
        XX     -45.5522     XY       1.8103     YY     -48.4507
        XZ       1.0580     YZ      -4.3774     ZZ     -46.5057
    Octopole Moments (Debye-Ang^2)
       XXX      29.5689    XXY     -24.2182    XYY      13.2841
       YYY     -84.8205    XXZ     -25.0210    XYZ       4.7642
       YYZ     -31.5011    XZZ      14.2812    YZZ     -27.8795
       ZZZ     -77.9225
    Hexadecapole Moments (Debye-Ang^3)
      XXXX    -240.1278   XXXY     101.2111   XXYY    -153.6073
      XYYY     110.1873   YYYY    -725.4011   XXXZ      31.2125
      XXYZ     -51.2871   XYYZ      18.1430   YYYZ    -172.1328
      XXZZ    -110.0014   XYZZ      40.5619   YYZZ    -194.5443
      XZZZ      36.2319   YZZZ    -167.3742   ZZZZ    -415.4781
 -----------------------------------------------------------------
 Calculating analytic gradient of the SCF energy
 Gradient of SCF Energy
            1           2           3           4           5           6
    1   0.0001037   0.0003169   0.0003287   0.0000949  -0.0000524  -0.0007781
    2   0.0003428  -0.0006622  -0.0005531   0.0003967   0.0000867   0.0001153
    3  -0.0001780  -0.0003168   0.0007636   0.0000871  -0.0000142  -0.0002438
            7           8           9          10          11
    1  -0.0000023  -0.0000223   0.0000155  -0.0000352   0.0000306
    2   0.0000136   0.0001712  -0.0000302   0.0001072   0.0000119
    3   0.0000481  -0.0000927  -0.0000154  -0.0000043  -0.0000335
 Max gradient component =       7.781E-04
 RMS gradient           =       2.869E-04
 Gradient time:  CPU 8.97 s  wall 0.75 s
 Geometry Optimization Parameters
   NAtoms,    NIC,     NZ,  NCons,   NDum,   NFix, NCnnct, MaxDiis
       11      74       0       1       0       0       0       0

 Cartesian Hessian Update
 Hessian Updated using BFGS Update


** CONSTRAINED OPTIMIZATION IN DELOCALIZED INTERNAL COORDINATES **
   Searching for a Minimum

   Optimization Cycle:   4

                       Coordinates (Angstroms)
     ATOM                X               Y               Z
      1  Cl        0.7803474626    0.5782560892    1.1572516058
      2  Cl       -1.2707781671    2.3709626875    1.4543776655
      3  C        -0.3838318243   -0.4869975855   -0.1213637884
      4  C        -0.2778879515    0.2067399997   -1.3776377768
      5  C         0.1211957417   -1.9093592375   -0.0406618312
      6  H        -1.3278940104   -0.3131324798    0.3934550460
      7  H        -0.8468560119    1.1135684592   -1.5446691269
      8  H         0.4804764653   -0.0731654852   -2.1020592147
      9  H         1.1351952209   -1.9984151769   -0.4395694286
     10  H         0.1101280956   -2.2773656607    0.9867839869
     11  H        -0.5397970209   -2.5456926099   -0.6411021376
   Point Group: c1    Number of degrees of freedom:    27


   Energy is  -1038.231688959

              Constraints and their Current Values
                                        Value     Constraint
   Distance(Angs):        2   4             3.700000     3.700000
 Hessian Updated using BFGS Update

 25 Hessian modes will be used to form the next step
  Hessian Eigenvalues:
     0.030767    0.044244    0.045002    0.045020    0.045557    0.066234
     0.071226    0.082242    0.085122    0.111134    0.118951    0.141957
     0.146913    0.159993    0.160000    0.160077    0.166475    0.311313
     0.340699    0.344299    0.346314    0.351757    0.354903    0.356715
     0.449228

 Minimum Search - Taking Simple RFO Step
 Searching for Lamda that Minimizes Along All modes
 Value Taken    Lamda =  -0.00001182
 Step Taken.  Stepsize is  0.016139

                             Maximum     Tolerance    Cnvgd?
         Gradient           0.000475      0.000300      NO
         Displacement       0.005853      0.001200      NO
         Energy change     -0.000099      0.000001      NO


 New Cartesian Coordinates Obtained by Inverse Iteration

 Displacement from previous Coordinates is:  0.021341
 ----------------------------------------------------------------
             Standard Nuclear Orientation (Angstroms)
    I     Atom           X                Y                Z
 ----------------------------------------------------------------
    1      Cl      0.7784261117     0.5769197294     1.1618517549
    2      Cl     -1.2714068328     2.3758059831     1.4509309735
    3      C      -0.3840518593    -0.4866204304    -0.1199918957
    4      C      -0.2783884889     0.2061038412    -1.3768436767
    5      C       0.1215666725    -1.9092446871    -0.0419879767
    6      H      -1.3264522784    -0.3128679288     0.3972532651
    7      H      -0.8467125476     1.1130422622    -1.5454120061
    8      H       0.4800151854    -0.0761290370    -2.1003149895
    9      H       1.1350848793    -1.9969020995    -0.4423562396
   10      H       0.1121547993    -2.2800249626     0.9845269242
   11      H      -0.5399376414    -2.5446836703    -0.6428511334
 ----------------------------------------------------------------
 Nuclear Repulsion Energy =   262.6616684011 hartrees
 There are       30 alpha and       28 beta electrons

                       Distance Matrix (Angstroms)
             Cl(  1)   Cl(  2)   C (  3)   C (  4)   C (  5)   H (  6)
   Cl(  2)  2.742512
   C (  3)  2.031156  3.383590
   C (  4)  2.774768  3.700000  1.438996
   C (  5)  2.839315  4.746666  1.511818  2.533082
   H (  6)  2.409740  2.888293  1.088968  2.124897  2.199571
   H (  7)  3.202777  3.279178  2.191985  1.083487  3.511704  2.457096
   H (  8)  3.340248  4.657340  2.199271  1.085469  2.779480  3.091475
   H (  9)  3.053727  5.338194  2.166252  2.779282  1.093251  3.098400
   H ( 10)  2.938961  4.879399  2.163905  3.451004  1.091467  2.506828
   H ( 11)  3.839198  5.397239  2.129156  2.859018  1.096543  2.584845
             H (  7)   H (  8)   H (  9)   H ( 10)
   H (  8)  1.866079
   H (  9)  3.849157  2.620556
   H ( 10)  4.339692  3.809032  1.778353
   H ( 11)  3.779906  3.042740  1.773686  1.773028
 
 Applying Cartesian multipole field
    Component          Value
    ---------          -----
     (2,0,0)        1.00000E-11
     (0,2,0)        2.00000E-11
     (0,0,2)       -3.00000E-11
 Nucleus-field energy     =     0.0000000033 hartrees
 Requested basis set is 6-31G(d,p)
 There are 40 shells and 113 basis functions
 A cutoff of  1.0D-14 yielded    768 shell pairs
 There are      6302 function pairs
 Smallest overlap matrix eigenvalue = 5.68E-03
 Guess from superposition of atomic densities
 Warning:  Energy on first SCF cycle will be non-variational
 SAD guess density has 58.000000 electrons

 -----------------------------------------------------------------------
  General SCF calculation program by
  Eric Jon Sundstrom, Paul Horn, Yuezhi Mao, Dmitri Zuev, Alec White,
  David Stuck, Shaama M.S., Shane Yost, Joonho Lee, David Small,
  Daniel Levine, Susi Lehtola, Hugh Burton, Evgeny Epifanovsky
 -----------------------------------------------------------------------
 Exchange:     0.2000 Hartree-Fock + 0.0800 Slater + 0.7200 B88
 Correlation:  0.1900 VWN1RPA + 0.8100 LYP
 Using SG-1 standard quadrature grid
 using 12 threads for integral computing
 -------------------------------------------------------
 OpenMP Integral computing Module                
 Release: version 1.0, May 2013, Q-Chem Inc. Pittsburgh 
 -------------------------------------------------------
 -------------------------------------------------------
 OpenMP BLAS3 based DFT computing Module                
 Release: version 1.0, May 2013, Q-Chem Inc. Pittsburgh 
 -------------------------------------------------------
 A unrestricted SCF calculation will be
 performed using DIIS
 SCF converges when DIIS error is below 1.0e-06
 Alpha HF Exchange    Energy =  -7.26115655430357
 Beta HF Exchange     Energy =  -7.26115655430357
 DFT Correlation      Energy =  -2.75673670470295
 DFT Exchange         Energy = -57.30858716129851
 One-Electron (alpha) Energy = -973.79070864122980
 One-Electron (beta)  Energy = -973.79070864122980
 Total Coulomb        Energy = 720.97018113318836
 ---------------------------------------
  Cycle       Energy         DIIS error
 ---------------------------------------
    1   -1038.5372047195      2.58e-02  
 Alpha HF Exchange    Energy =  -7.39569983656621
 Beta HF Exchange     Energy =  -7.17184471025122
 DFT Correlation      Energy =  -2.77411986251651
 DFT Exchange         Energy = -57.82691892955398
 One-Electron (alpha) Energy = -993.17611432582919
 One-Electron (beta)  Energy = -960.14590670687210
 Total Coulomb        Energy = 727.67599993922329
    2   -1038.1529360280      3.07e-03  
 Alpha HF Exchange    Energy =  -7.35379653224367
 Beta HF Exchange     Energy =  -7.14459236209430
 DFT Correlation      Energy =  -2.75382331827837
 DFT Exchange         Energy = -57.50213887934854
 One-Electron (alpha) Energy = -991.06706706600539
 One-Electron (beta)  Energy = -958.67789971338459
 Total Coulomb        Energy = 723.72155936155298
    3   -1038.1160901054      3.86e-03  
 Alpha HF Exchange    Energy =  -7.36913456190734
 Beta HF Exchange     Energy =  -7.14622443836556
 DFT Correlation      Energy =  -2.76141546929758
 DFT Exchange         Energy = -57.59396191881073
 One-Electron (alpha) Energy = -991.54564284219487
 One-Electron (beta)  Energy = -958.61078219634669
 Total Coulomb        Energy = 724.13826508314276
    4   -1038.2272279394      6.93e-04  
 Alpha HF Exchange    Energy =  -7.37602228906041
 Beta HF Exchange     Energy =  -7.15445595465086
 DFT Correlation      Energy =  -2.76264062546022
 DFT Exchange         Energy = -57.64751635016657
 One-Electron (alpha) Energy = -992.05865691264637
 One-Electron (beta)  Energy = -959.19339107856592
 Total Coulomb        Energy = 725.30045578449676
    5   -1038.2305590217      3.55e-04  
 Alpha HF Exchange    Energy =  -7.37582855804351
 Beta HF Exchange     Energy =  -7.15304572176439
 DFT Correlation      Energy =  -2.76230027285698
 DFT Exchange         Energy = -57.64182181586185
 One-Electron (alpha) Energy = -991.99567511979592
 One-Electron (beta)  Energy = -959.07936452416209
 Total Coulomb        Energy = 725.11474283713505
    6   -1038.2316247710      8.08e-05  
 Alpha HF Exchange    Energy =  -7.37535954980333
 Beta HF Exchange     Energy =  -7.15269135012772
 DFT Correlation      Energy =  -2.76203797735862
 DFT Exchange         Energy = -57.63771336607108
 One-Electron (alpha) Energy = -991.94110453112728
 One-Electron (beta)  Energy = -959.03854804317882
 Total Coulomb        Energy = 725.01409894854874
    7   -1038.2316874648      2.64e-05  
 Alpha HF Exchange    Energy =  -7.37565090385335
 Beta HF Exchange     Energy =  -7.15291358357770
 DFT Correlation      Energy =  -2.76204501962329
 DFT Exchange         Energy = -57.63953380627587
 One-Electron (alpha) Energy = -991.95836414756980
 One-Electron (beta)  Energy = -959.05587265076520
 Total Coulomb        Energy = 725.05101515776516
    8   -1038.2316965495      8.10e-06  
 Alpha HF Exchange    Energy =  -7.37563004708158
[...]

 Minimum Search - Taking Simple RFO Step
 Searching for Lamda that Minimizes Along All modes
 Value Taken    Lamda =  -0.00000139
 Step Taken.  Stepsize is  0.011795

                             Maximum     Tolerance    Cnvgd?
         Gradient           0.000113      0.000300     YES
         Displacement       0.005999      0.001200      NO
         Energy change     -0.000001      0.000001      NO


 New Cartesian Coordinates Obtained by Inverse Iteration

 Displacement from previous Coordinates is:  0.011770
 ----------------------------------------------------------------
             Standard Nuclear Orientation (Angstroms)
    I     Atom           X                Y                Z
 ----------------------------------------------------------------
    1      Cl      0.7746651099     0.5726402051     1.1681754891
    2      Cl     -1.2709867708     2.3909899451     1.4429223054
    3      C      -0.3836596278    -0.4884848561    -0.1196097473
    4      C      -0.2795704776     0.2066959250    -1.3741605219
    5      C       0.1228989110    -1.9110928692    -0.0438478203
    6      H      -1.3242636051    -0.3166844234     0.4000429380
    7      H      -0.8482460329     1.1136906232    -1.5410761287
    8      H       0.4772240120    -0.0755439555    -2.0993407379
    9      H       1.1365591242    -1.9972346223    -0.4442181926
   10      H       0.1136578915    -2.2836799959     0.9819844885
   11      H      -0.5379805344    -2.5458969759    -0.6460670723
 ----------------------------------------------------------------
 Nuclear Repulsion Energy =   262.3867399202 hartrees
 There are       30 alpha and       28 beta electrons

                       Distance Matrix (Angstroms)
             Cl(  1)   Cl(  2)   C (  3)   C (  4)   C (  5)   H (  6)
   Cl(  2)  2.750740
   C (  3)  2.031279  3.394147
   C (  4)  2.776473  3.700000  1.438057
   C (  5)  2.839495  4.760391  1.512004  2.533129
   H (  6)  2.405499  2.902057  1.088251  2.124408  2.198512
   H (  7)  3.204157  3.273293  2.191660  1.083463  3.511998  2.457745
   H (  8)  3.344440  4.657001  2.197948  1.085488  2.778460  3.090376
   H (  9)  3.055329  5.349214  2.166278  2.779843  1.093263  3.097204
   H ( 10)  2.937714  4.897167  2.164153  3.450800  1.091439  2.505064
   H ( 11)  3.839243  5.410548  2.129300  2.858962  1.096543  2.584952
             H (  7)   H (  8)   H (  9)   H ( 10)
   H (  8)  1.866229
   H (  9)  3.849728  2.620505
   H ( 10)  4.339726  3.808229  1.778323
   H ( 11)  3.780197  3.040607  1.773656  1.773117
 
 Applying Cartesian multipole field
    Component          Value
    ---------          -----
     (2,0,0)        1.00000E-11
     (0,2,0)        2.00000E-11
     (0,0,2)       -3.00000E-11
 Nucleus-field energy     =     0.0000000034 hartrees
 Requested basis set is 6-31G(d,p)
 There are 40 shells and 113 basis functions
 A cutoff of  1.0D-14 yielded    767 shell pairs
 There are      6290 function pairs
 Smallest overlap matrix eigenvalue = 5.68E-03
 Guess from superposition of atomic densities
 Warning:  Energy on first SCF cycle will be non-variational
 SAD guess density has 58.000000 electrons

 -----------------------------------------------------------------------
  General SCF calculation program by
  Eric Jon Sundstrom, Paul Horn, Yuezhi Mao, Dmitri Zuev, Alec White,
  David Stuck, Shaama M.S., Shane Yost, Joonho Lee, David Small,
  Daniel Levine, Susi Lehtola, Hugh Burton, Evgeny Epifanovsky
 -----------------------------------------------------------------------
 Exchange:     0.2000 Hartree-Fock + 0.0800 Slater + 0.7200 B88
 Correlation:  0.1900 VWN1RPA + 0.8100 LYP
 Using SG-1 standard quadrature grid
 using 12 threads for integral computing
 -------------------------------------------------------
 OpenMP Integral computing Module                
 Release: version 1.0, May 2013, Q-Chem Inc. Pittsburgh 
 -------------------------------------------------------
 -------------------------------------------------------
 OpenMP BLAS3 based DFT computing Module                
 Release: version 1.0, May 2013, Q-Chem Inc. Pittsburgh 
 -------------------------------------------------------
 A unrestricted SCF calculation will be
 performed using DIIS
 SCF converges when DIIS error is below 1.0e-06
 Alpha HF Exchange    Energy =  -7.26114593708431
 Beta HF Exchange     Energy =  -7.26114593708431
 DFT Correlation      Energy =  -2.75665147323233
 DFT Exchange         Energy = -57.30858009389151
 One-Electron (alpha) Energy = -973.51501440941774
 One-Electron (beta)  Energy = -973.51501440941774
 Total Coulomb        Energy = 720.69367120422726
 ---------------------------------------
  Cycle       Energy         DIIS error
 ---------------------------------------
    1   -1038.5371411323      2.58e-02  
 Alpha HF Exchange    Energy =  -7.39570342322940
 Beta HF Exchange     Energy =  -7.17181952463524
 DFT Correlation      Energy =  -2.77405271175783
 DFT Exchange         Energy = -57.82699645623515
 One-Electron (alpha) Energy = -992.89401975594058
 One-Electron (beta)  Energy = -959.87811320416085
 Total Coulomb        Energy = 727.40113568895981
    2   -1038.1528294634      3.07e-03  
 Alpha HF Exchange    Energy =  -7.35377548459255
 Beta HF Exchange     Energy =  -7.14467376980472
 DFT Correlation      Energy =  -2.75373556051556
 DFT Exchange         Energy = -57.50220645674690
 One-Electron (alpha) Energy = -990.78145865503177
 One-Electron (beta)  Energy = -958.41291871470696
 Total Coulomb        Energy = 723.44623482129032
    3   -1038.1157938965      3.86e-03  
 Alpha HF Exchange    Energy =  -7.36910754769267
 Beta HF Exchange     Energy =  -7.14620858489458
 DFT Correlation      Energy =  -2.76133394433307
 DFT Exchange         Energy = -57.59382832408357
 One-Electron (alpha) Energy = -991.26086588116834
 One-Electron (beta)  Energy = -958.34267333961668
 Total Coulomb        Energy = 723.86005551846574
    4   -1038.2272221797      6.93e-04  
 Alpha HF Exchange    Energy =  -7.37601992890355
 Beta HF Exchange     Energy =  -7.15449121860417
 DFT Correlation      Energy =  -2.76256288996126
 DFT Exchange         Energy = -57.64761289871673
 One-Electron (alpha) Energy = -991.77522614551265
 One-Electron (beta)  Energy = -958.92760262153615
 Total Coulomb        Energy = 725.02622348744171
    5   -1038.2305522922      3.57e-04  
 Alpha HF Exchange    Energy =  -7.37582259767491
 Beta HF Exchange     Energy =  -7.15306442313204
 DFT Correlation      Energy =  -2.76222194402278
 DFT Exchange         Energy = -57.64186213928480
 One-Electron (alpha) Energy = -991.71180313727632
 One-Electron (beta)  Energy = -958.81261126346544
 Total Coulomb        Energy = 724.83901386031368
    6   -1038.2316317209      8.10e-05  
 Alpha HF Exchange    Energy =  -7.37535219108246
 Beta HF Exchange     Energy =  -7.15271294103720
 DFT Correlation      Energy =  -2.76195999387984
 DFT Exchange         Energy = -57.63775548924836
 One-Electron (alpha) Energy = -991.65723943998114
 One-Electron (beta)  Energy = -958.77189092179594
 Total Coulomb        Energy = 724.73847621983919
    7   -1038.2316948336      2.65e-05  
 Alpha HF Exchange    Energy =  -7.37564456939914
 Beta HF Exchange     Energy =  -7.15293581485434
 DFT Correlation      Energy =  -2.76196640598786
 DFT Exchange         Energy = -57.63957919912040
 One-Electron (alpha) Energy = -991.67444329408329
 One-Electron (beta)  Energy = -958.78917112620638
 Total Coulomb        Energy = 724.77529647198469
    8   -1038.2317040141      7.96e-06  
 Alpha HF Exchange    Energy =  -7.37562297043156
 Beta HF Exchange     Energy =  -7.15290994025221
 DFT Correlation      Energy =  -2.76193629718014
 DFT Exchange         Energy = -57.63930828843166
 One-Electron (alpha) Energy = -991.66863012358681
 One-Electron (beta)  Energy = -958.78560861272786
 Total Coulomb        Energy = 724.76557151768611
    9   -1038.2317047913      4.50e-06  
 Alpha HF Exchange    Energy =  -7.37562339878600
 Beta HF Exchange     Energy =  -7.15291677714044
 DFT Correlation      Energy =  -2.76193722716972
 DFT Exchange         Energy = -57.63934425341626
 One-Electron (alpha) Energy = -991.66913478256470
 One-Electron (beta)  Energy = -958.78642754079920
 Total Coulomb        Energy = 724.76693903809087
   10   -1038.2317050182      1.88e-06  
 Alpha HF Exchange    Energy =  -7.37563048334864
 Beta HF Exchange     Energy =  -7.15291610504838
 DFT Correlation      Energy =  -2.76193620707468
 DFT Exchange         Energy = -57.63936812989223
 One-Electron (alpha) Energy = -991.66924632262510
 One-Electron (beta)  Energy = -958.78656950148240
 Total Coulomb        Energy = 724.76722172944801
   11   -1038.2317050964      7.57e-07  Convergence criterion met
 ---------------------------------------
 SCF time:   CPU 27.94s  wall 2.00s 
<S^2> =          2.010346790
 Alpha HF Exchange    Energy =  -7.37563048334864
 Beta HF Exchange     Energy =  -7.15291610504838
 DFT Correlation      Energy =  -2.76193620707468
 DFT Exchange         Energy = -57.63936812989223
 One-Electron (alpha) Energy = -991.66924632262510
 One-Electron (beta)  Energy = -958.78656950148240
 Total Coulomb        Energy = 724.76722172944801
 Nuclear repulsion Energy = 262.38673992360077
 SCF   energy in the final basis set =    -1038.2317050964
 Total energy in the final basis set =    -1038.2317050964
 
 --------------------------------------------------------------
 
                    Orbital Energies (a.u.)
 --------------------------------------------------------------
 
 Alpha MOs
 -- Occupied --
*******-101.528 -10.280 -10.240 -10.215  -9.475  -9.441  -7.239
 -7.234  -7.228  -7.212  -7.194  -7.194  -0.871  -0.799  -0.775
 -0.725  -0.608  -0.506  -0.468  -0.461  -0.408  -0.404  -0.390
 -0.373  -0.330  -0.296  -0.292  -0.287  -0.256
 -- Virtual --
 -0.026   0.085   0.109   0.116   0.145   0.156   0.161   0.217
  0.257   0.348   0.386   0.414   0.428   0.435   0.462   0.499
  0.500   0.525   0.527   0.546   0.576   0.603   0.616   0.668
  0.700   0.758   0.788   0.824   0.834   0.838   0.851   0.868
  0.876   0.881   0.885   0.894   0.909   0.918   0.930   0.966
  1.008   1.072   1.133   1.188   1.302   1.395   1.411   1.535
  1.653   1.741   1.807   1.853   1.897   1.947   1.996   2.017
  2.053   2.081   2.101   2.243   2.279   2.329   2.383   2.468
  2.535   2.558   2.619   2.675   2.737   2.800   2.846   2.903
  3.161   3.261   3.375   3.389   3.429   3.508   4.180   4.241
  4.273   4.347   4.563
 
 Beta MOs
 -- Occupied --
*******-101.522 -10.281 -10.228 -10.215  -9.471  -9.436  -7.232
 -7.227  -7.226  -7.194  -7.191  -7.190  -0.856  -0.777  -0.736
 -0.709  -0.599  -0.501  -0.462  -0.454  -0.402  -0.398  -0.372
 -0.327  -0.320  -0.283  -0.279
 -- Virtual --
 -0.173  -0.126  -0.000   0.088   0.113   0.123   0.146   0.158
  0.166   0.220   0.263   0.358   0.400   0.426   0.436   0.440
  0.467   0.507   0.520   0.535   0.550   0.573   0.594   0.619
  0.628   0.677   0.712   0.771   0.797   0.832   0.843   0.856
  0.858   0.890   0.895   0.903   0.911   0.916   0.920   0.929
  0.945   0.980   1.038   1.096   1.145   1.193   1.321   1.399
  1.441   1.541   1.660   1.743   1.817   1.860   1.909   1.969
  2.002   2.019   2.056   2.085   2.111   2.249   2.279   2.332
  2.396   2.482   2.543   2.574   2.621   2.679   2.739   2.801
  2.847   2.906   3.162   3.264   3.380   3.391   3.430   3.513
  4.197   4.257   4.284   4.358   4.567
 --------------------------------------------------------------
 
          Ground-State Mulliken Net Atomic Charges

     Atom                 Charge (a.u.)    Spin (a.u.)
  --------------------------------------------------------
      1 Cl                   -0.053327       0.464250
      2 Cl                   -0.221468       0.755624
      3 C                    -0.164100      -0.062734
      4 C                    -0.143974       0.907029
      5 C                    -0.316540       0.005070
      6 H                     0.193247       0.008578
      7 H                     0.157422      -0.039531
      8 H                     0.132096      -0.039380
      9 H                     0.135874      -0.000960
     10 H                     0.143862       0.001799
     11 H                     0.136909       0.000255
  --------------------------------------------------------
  Sum of atomic charges =    -0.000000
  Sum of spin   charges =     2.000000

 -----------------------------------------------------------------
                    Cartesian Multipole Moments
 -----------------------------------------------------------------
    Charge (ESU x 10^10)
                 0.0000
    Dipole Moment (Debye)
         X       0.2237      Y      -3.7347      Z      -2.9584
       Tot       4.7697
    Quadrupole Moments (Debye-Ang)
        XX     -45.5568     XY       1.7942     YY     -48.4816
        XZ       1.0310     YZ      -4.3618     ZZ     -46.4700
    Octopole Moments (Debye-Ang^2)
       XXX      29.7642    XXY     -24.3651    XYY      13.3109
       YYY     -85.4155    XXZ     -25.0200    XYZ       4.7464
       YYZ     -31.5172    XZZ      14.2872    YZZ     -28.0075
       ZZZ     -77.8361
    Hexadecapole Moments (Debye-Ang^3)
      XXXX    -239.6286   XXXY     102.5175   XXYY    -154.5940
      XYYY     111.2573   YYYY    -732.7074   XXXZ      30.6026
      XXYZ     -51.4223   XYYZ      17.9219   YYYZ    -172.4792
      XXZZ    -109.7241   XYZZ      41.0184   YYZZ    -195.5723
      XZZZ      35.5892   YZZZ    -167.4061   ZZZZ    -414.1765
 -----------------------------------------------------------------
 Calculating analytic gradient of the SCF energy
 Gradient of SCF Energy
            1           2           3           4           5           6
    1  -0.0000048   0.0000119  -0.0000090  -0.0001063  -0.0000313   0.0001144
    2  -0.0000733  -0.0002034   0.0000189   0.0001747  -0.0000335   0.0000924
    3   0.0000100  -0.0002169  -0.0000971   0.0003117   0.0000157   0.0000150
            7           8           9          10          11
    1  -0.0000062   0.0000208   0.0000020   0.0000014   0.0000070
    2   0.0000005   0.0000207   0.0000051  -0.0000082   0.0000060
    3  -0.0000044   0.0000158  -0.0000125  -0.0000156  -0.0000218
 Max gradient component =       3.117E-04
 RMS gradient           =       9.034E-05
 Gradient time:  CPU 8.98 s  wall 0.75 s
 Geometry Optimization Parameters
   NAtoms,    NIC,     NZ,  NCons,   NDum,   NFix, NCnnct, MaxDiis
       11      74       0       1       0       0       0       0

 Cartesian Hessian Update
 Hessian Updated using BFGS Update


** CONSTRAINED OPTIMIZATION IN DELOCALIZED INTERNAL COORDINATES **
   Searching for a Minimum

   Optimization Cycle:   8

                       Coordinates (Angstroms)
     ATOM                X               Y               Z
      1  Cl        0.7746651099    0.5726402051    1.1681754891
      2  Cl       -1.2709867708    2.3909899451    1.4429223054
      3  C        -0.3836596278   -0.4884848561   -0.1196097473
      4  C        -0.2795704776    0.2066959250   -1.3741605219
      5  C         0.1228989110   -1.9110928692   -0.0438478203
      6  H        -1.3242636051   -0.3166844234    0.4000429380
      7  H        -0.8482460329    1.1136906232   -1.5410761287
      8  H         0.4772240120   -0.0755439555   -2.0993407379
      9  H         1.1365591242   -1.9972346223   -0.4442181926
     10  H         0.1136578915   -2.2836799959    0.9819844885
     11  H        -0.5379805344   -2.5458969759   -0.6460670723
   Point Group: c1    Number of degrees of freedom:    27


   Energy is  -1038.231705096

              Constraints and their Current Values
                                        Value     Constraint
   Distance(Angs):        2   4             3.700000     3.700000
 Hessian Updated using BFGS Update

 26 Hessian modes will be used to form the next step
  Hessian Eigenvalues:
     0.005423    0.036321    0.044549    0.045002    0.045708    0.068351
     0.072577    0.082299    0.085089    0.113529    0.127960    0.143167
     0.147676    0.159687    0.159991    0.160016    0.160151    0.166269
     0.311299    0.340712    0.344167    0.345690    0.348032    0.354441
     0.356305    0.423671

 Minimum Search - Taking Simple RFO Step
 Searching for Lamda that Minimizes Along All modes
 Value Taken    Lamda =   0.00000000
 Step Taken.  Stepsize is  0.007164

                             Maximum     Tolerance    Cnvgd?
         Gradient           0.000096      0.000300     YES
         Displacement       0.003272      0.001200      NO
         Energy change     -0.000001      0.000001     YES


                       Distance Matrix (Angstroms)
             Cl(  1)   Cl(  2)   C (  3)   C (  4)   C (  5)   H (  6)
   Cl(  2)  2.750740
   C (  3)  2.031279  3.394147
   C (  4)  2.776473  3.700000  1.438057
   C (  5)  2.839495  4.760391  1.512004  2.533129
   H (  6)  2.405499  2.902057  1.088251  2.124408  2.198512
   H (  7)  3.204157  3.273293  2.191660  1.083463  3.511998  2.457745
   H (  8)  3.344440  4.657001  2.197948  1.085488  2.778460  3.090376
   H (  9)  3.055329  5.349214  2.166278  2.779843  1.093263  3.097204
   H ( 10)  2.937714  4.897167  2.164153  3.450800  1.091439  2.505064
   H ( 11)  3.839243  5.410548  2.129300  2.858962  1.096543  2.584952
             H (  7)   H (  8)   H (  9)   H ( 10)
   H (  8)  1.866229
   H (  9)  3.849728  2.620505
   H ( 10)  4.339726  3.808229  1.778323
   H ( 11)  3.780197  3.040607  1.773656  1.773117
 
 Final energy is   -1038.23170509642     


 ******************************
 **  OPTIMIZATION CONVERGED  **
 ******************************

                       Coordinates (Angstroms)
     ATOM                X               Y               Z
      1  Cl        0.7746651099    0.5726402051    1.1681754891
      2  Cl       -1.2709867708    2.3909899451    1.4429223054
      3  C        -0.3836596278   -0.4884848561   -0.1196097473
      4  C        -0.2795704776    0.2066959250   -1.3741605219
      5  C         0.1228989110   -1.9110928692   -0.0438478203
      6  H        -1.3242636051   -0.3166844234    0.4000429380
      7  H        -0.8482460329    1.1136906232   -1.5410761287
      8  H         0.4772240120   -0.0755439555   -2.0993407379
      9  H         1.1365591242   -1.9972346223   -0.4442181926
     10  H         0.1136578915   -2.2836799959    0.9819844885
     11  H        -0.5379805344   -2.5458969759   -0.6460670723

Z-matrix Print:
$molecule
0 3
Cl
C  1 2.031279
H  2 1.088251 1 96.181360
C  2 1.438057 1 105.026687 3 116.653825 0
H  4 1.083463 2 120.072022 1 -78.246630 0
H  4 1.085488 2 120.503310 1 92.079621 0
C  2 1.512004 1 105.586577 3 -117.562633 0
H  7 1.091439 2 111.435133 1 55.262092 0
H  7 1.093263 2 111.494725 1 -66.745799 0
H  7 1.096543 2 108.375939 1 174.291771 0
Cl 1 2.750740 2 89.115867 3 -37.069973 0
$end

PES scan, value:    3.7000 energy: -1038.2317050964
------- Summary of potential scan: ------ 
    3.7000     -1038.2317050964
----------------------------------------- 
Archival summary:
1\1\hpc0332\JobtypUnspecified\ProcedureUnspecified\6-31G**\l236(3)\knomura\TueMar1201:01:462019TueMar1201:01:462019\0\\#,JobtypUnspecified,ProcedureUnspecified,6-31G**,\\0,3\Cl\C,1,2.03128\H,2,1.08825,1,96.1814\C,2,1.43806,1,105.027,3,116.654,0\H,4,1.08346,2,120.072,1,-78.2466,0\H,4,1.08549,2,120.503,1,92.0796,0\C,2,1.512,1,105.587,3,-117.563,0\H,7,1.09144,2,111.435,1,55.2621,0\H,7,1.09326,2,111.495,1,-66.7458,0\H,7,1.09654,2,108.376,1,174.292,0\Cl,1,2.75074,2,89.1159,3,-37.07,0\\\@

 Total job time:  28.29s(wall), 328.33s(cpu) 
 Tue Mar 12 01:01:46 2019

        *************************************************************
        *                                                           *
        *  Thank you very much for using Q-Chem.  Have a nice day.  *
        *                                                           *
        *************************************************************


