
Running Job 1 of 1 ruruma/CH3CHClCH2Cl_afterGeo_edge_singlet.xyz.data/inputs/bond_singlet_2.3.in
qchem ruruma/CH3CHClCH2Cl_afterGeo_edge_singlet.xyz.data/inputs/bond_singlet_2.3.in_21167.0 /staging/scratch/2858534/qchem21167/ 1
/usr/usc/qchem/5.1.1/exe/qcprog.exe_s ruruma/CH3CHClCH2Cl_afterGeo_edge_singlet.xyz.data/inputs/bond_singlet_2.3.in_21167.0 /staging/scratch/2858534/qchem21167/
Check license passed

                  Welcome to Q-Chem
     A Quantum Leap Into The Future Of Chemistry


 Q-Chem 5.1, Q-Chem, Inc., Pleasanton, CA (2018)

 Yihan Shao,  Zhengting Gan,  E. Epifanovsky,  A. T. B. Gilbert,  M. Wormit,  
 J. Kussmann,  A. W. Lange,  A. Behn,  Jia Deng,  Xintian Feng,  D. Ghosh,  
 M. Goldey,  P. R. Horn,  L. D. Jacobson,  I. Kaliman,  T. Kus,  A. Landau,  
 Jie Liu,  E. I. Proynov,  R. M. Richard,  R. P. Steele,  E. J. Sundstrom,  
 H. L. Woodcock III,  P. M. Zimmerman,  D. Zuev,  B. Albrecht,  E. Alguire,  
 S. A. Baeppler,  D. Barton,  Z. Benda,  Y. A. Bernard,  E. J. Berquist,  
 K. B. Bravaya,  H. Burton,  D. Casanova,  Chun-Min Chang,  Yunqing Chen,  
 A. Chien,  K. D. Closser,  M. P. Coons,  S. Coriani,  S. Dasgupta,  
 A. L. Dempwolff,  M. Diedenhofen,  Hainam Do,  R. G. Edgar,  Po-Tung Fang,  
 S. Faraji,  S. Fatehi,  Qingguo Feng,  K. D. Fenk,  J. Fosso-Tande,  
 Qinghui Ge,  A. Ghysels,  G. Gidofalvi,  J. Gomes,  J. Gonthier,  A. Gunina,  
 D. Hait,  M. W. D. Hanson-Heine,  P. H. P. Harbach,  A. W. Hauser,  
 J. E. Herr,  E. G. Hohenstein,  Z. C. Holden,  Kerwin Hui,  B. C. Huynh,  
 T.-C. Jagau,  Hyunjun Ji,  B. Kaduk,  K. Khistyaev,  Jaehoon Kim,  
 P. Klunzinger,  K. Koh,  D. Kosenkov,  L. Koulias,  T. Kowalczyk,  
 C. M. Krauter,  A. Kunitsa,  Ka Un Lao,  A. Laurent,  K. V. Lawler,  
 Joonho Lee,  D. Lefrancois,  S. Lehtola,  D. S. Levine,  Yi-Pei Li,  
 You-Sheng Lin,  Fenglai Liu,  E. Livshits,  A. Luenser,  P. Manohar,  
 E. Mansoor,  S. F. Manzer,  Shan-Ping Mao,  Yuezhi Mao,  N. Mardirossian,  
 A. V. Marenich,  T. Markovich,  L. A. Martinez-Martinez,  S. A. Maurer,  
 N. J. Mayhall,  S. C. McKenzie,  J.-M. Mewes,  A. F. Morrison,  
 J. W. Mullinax,  K. Nanda,  T. S. Nguyen-Beck,  R. Olivares-Amaya,  
 J. A. Parkhill,  T. M. Perrine,  F. Plasser,  P. Pokhilko,  S. Prager,  
 A. Prociuk,  E. Ramos,  D. R. Rehn,  F. Rob,  M. Schneider,  N. Sergueev,  
 S. M. Sharada,  S. Sharma,  D. W. Small,  T. Stauch,  T. Stein,  
 Yu-Chuan Su,  A. J. W. Thom,  A. Tkatchenko,  T. Tsuchimochi,  N. M. Tubman,  
 L. Vogt,  M. L. Vidal,  O. Vydrov,  M. A. Watson,  J. Wenzel,  
 M. de Wergifosse,  T. A. Wesolowski,  A. White,  J. Witte,  A. Yamada,  
 Jun Yang,  K. Yao,  S. Yeganeh,  S. R. Yost,  Zhi-Qiang You,  A. Zech,  
 Igor Ying Zhang,  Xing Zhang,  Yan Zhao,  Ying Zhu,  B. R. Brooks,  
 G. K. L. Chan,  C. J. Cramer,  M. S. Gordon,  W. J. Hehre,  A. Klamt,  
 M. W. Schmidt,  C. D. Sherrill,  D. G. Truhlar,  A. Aspuru-Guzik,  R. Baer,  
 A. T. Bell,  N. A. Besley,  Jeng-Da Chai,  A. E. DePrince, III,  
 R. A. DiStasio Jr.,  A. Dreuw,  B. D. Dunietz,  T. R. Furlani,  
 Chao-Ping Hsu,  Yousung Jung,  Jing Kong,  D. S. Lambrecht,  WanZhen Liang,  
 C. Ochsenfeld,  V. A. Rassolov,  L. V. Slipchenko,  J. E. Subotnik,  
 T. Van Voorhis,  J. M. Herbert,  A. I. Krylov,  P. M. W. Gill,  M. Head-Gordon

 Contributors to earlier versions of Q-Chem not listed above: 
 R. D. Adamson,  B. Austin,  J. Baker,  G. J. O. Beran,  K. Brandhorst,  
 S. T. Brown,  E. F. C. Byrd,  A. K. Chakraborty,  C.-L. Cheng,  
 Siu Hung Chien,  D. M. Chipman,  D. L. Crittenden,  H. Dachsel,  
 R. J. Doerksen,  A. D. Dutoi,  L. Fusti-Molnar,  W. A. Goddard III,  
 A. Golubeva-Zadorozhnaya,  S. R. Gwaltney,  G. Hawkins,  A. Heyden,  
 S. Hirata,  G. Kedziora,  F. J. Keil,  C. Kelley,  Jihan Kim,  R. A. King,  
 R. Z. Khaliullin,  P. P. Korambath,  W. Kurlancheek,  A. M. Lee,  M. S. Lee,  
 S. V. Levchenko,  Ching Yeh Lin,  D. Liotard,  R. C. Lochan,  I. Lotan,  
 P. E. Maslen,  N. Nair,  D. P. O'Neill,  D. Neuhauser,  E. Neuscamman,  
 C. M. Oana,  R. Olson,  B. Peters,  R. Peverati,  P. A. Pieniazek,  
 Y. M. Rhee,  J. Ritchie,  M. A. Rohrdanz,  E. Rosta,  N. J. Russ,  
 H. F. Schaefer III,  N. E. Schultz,  N. Shenvi,  A. C. Simmonett,  A. Sodt,  
 D. Stuck,  K. S. Thanthiriwatte,  V. Vanovschi,  Tao Wang,  A. Warshel,  
 C. F. Williams,  Q. Wu,  X. Xu,  W. Zhang

 Please cite Q-Chem as follows:
 Y. Shao et al., Mol. Phys. 113, 184-215 (2015)
 DOI: 10.1080/00268976.2014.952696

 Q-Chem 5.1.1 for Intel X86 EM64T Linux

 Parts of Q-Chem use Armadillo 8.300.2 (Tropical Shenanigans).
 http://arma.sourceforge.net/

 Q-Chem begins on Mon Mar 11 23:27:20 2019  

Host: 
0

     Scratch files written to /staging/scratch/2858534/qchem21167//
 Aug318 |scratch|qcdevops|jenkins|workspace|build_RNUM 6013   
Processing $rem in /usr/usc/qchem/5.1.1/config/preferences.
 MEM_TOTAL  2000 
Input Ideriv = 2
Curr. Ideriv = -1
Max.  Ideriv = 2

Checking the input file for inconsistencies... 	...done.

--------------------------------------------------------------
User input:
--------------------------------------------------------------

$comment
potential surface scanner
$end

$rem
JOBTYPE  PES_SCAN
UNRESTRICTED TRUE
SYM_IGNORE  TRUE
GEOM_OPT_MAX_CYCLES 400
SCF_MAX_CYCLES 400
METHOD   B3LYP
BASIS   6-31G**
PDB_PRINT 2
SCF_CONVERGENCE 6
THRESH 14
SCF_PRINT 1
$end
$molecule
0 1
Cl -1.287658 1.381916 0.187958
Cl 2.095596 0.105922 0.816980
C -0.653679 -0.178737 -0.501826
C 0.771883 -0.038427 -0.934290
C -0.941839 -1.344557 0.434157
H -1.213916 -0.305969 -1.440098
H 1.195136 -0.932935 -1.384382
H 1.040772 0.887638 -1.430329
H -0.419668 -1.205446 1.381805
H -2.014420 -1.427765 0.619013
H -0.591910 -2.276241 -0.024185
$end
$scan
stre 2 4 2.300000 2.301000 0.100000
$end
--------------------------------------------------------------
 ----------------------------------------------------------------
             Standard Nuclear Orientation (Angstroms)
    I     Atom           X                Y                Z
 ----------------------------------------------------------------
    1      Cl     -1.2876580000     1.3819160000     0.1879580000
    2      Cl      2.0955960000     0.1059220000     0.8169800000
    3      C      -0.6536790000    -0.1787370000    -0.5018260000
    4      C       0.7718830000    -0.0384270000    -0.9342900000
    5      C      -0.9418390000    -1.3445570000     0.4341570000
    6      H      -1.2139160000    -0.3059690000    -1.4400980000
    7      H       1.1951360000    -0.9329350000    -1.3843820000
    8      H       1.0407720000     0.8876380000    -1.4303290000
    9      H      -0.4196680000    -1.2054460000     1.3818050000
   10      H      -2.0144200000    -1.4277650000     0.6190130000
   11      H      -0.5919100000    -2.2762410000    -0.0241850000
 ----------------------------------------------------------------
 Nuclear Repulsion Energy =   272.0467872463 hartrees
 There are       29 alpha and       29 beta electrons
 Requested basis set is 6-31G(d,p)
 There are 40 shells and 113 basis functions

 Total QAlloc Memory Limit   2000 MB
 Mega-Array Size       188 MB
 MEM_STATIC part       192 MB
A total of 1 constraints
  
            1
    1   1.0100000
    2   2.0100000
    3   4.0100000
    4   2.3000000
    5   2.3010000
    6   0.1000000
    7   0.0000000
    8   0.0000000
    9   0.0000000
   10   0.0000000

                       Distance Matrix (Angstroms)
             Cl(  1)   Cl(  2)   C (  3)   C (  4)   C (  5)   H (  6)
   Cl(  2)  3.670182
   C (  3)  1.820266  3.062482
   C (  4)  2.741993  2.200000  1.496308
   C (  5)  2.759322  3.387692  1.522576  2.552541
   H (  6)  2.346265  4.027024  1.100185  2.066596  2.159982
   H (  7)  3.740996  2.595390  2.183080  1.087139  2.836050  2.489924
   H (  8)  2.878324  2.602716  2.206907  1.084413  3.519908  2.551159
   H (  9)  2.978778  2.892277  2.157999  2.854124  1.090895  3.066435
   H ( 10)  2.933990  4.391312  2.160548  3.479439  1.091570  2.477735
   H ( 11)  3.729770  3.688489  2.152087  2.774173  1.095702  2.504730
             H (  7)   H (  8)   H (  9)   H ( 10)
   H (  8)  1.827683
   H (  9)  3.214599  3.797629
   H ( 10)  3.815717  4.346848  1.781716
   H ( 11)  2.616895  3.827927  1.775691  1.776837
 
 A cutoff of  1.0D-14 yielded    787 shell pairs
 There are      6450 function pairs
 
 -------------------------------------------------------
 OpenMP Integral Computing Module                       
 Release: version 1.0, May 2013, Q-Chem Inc. Pittsburgh 
 -------------------------------------------------------
 Integral Job Info:
 Integral job number is                      11
 Integral operator is                         1
 short-range coefficients                     0
 long-range coefficients              100000000
 Omega coefficients                           0
 if combine SR and LR in K                    0
 Integral screening is                        0
 Integral computing path is                   2
 max size of driver memory is            800000
 size of driver memory is                593474
 size of scratch memory is             15267112
 max col of scratch BK array               1296
 max len of scratch array in speh3          155
 max len of scratch index in speh4           18
 max int batch size is                      520
 min int batch size is                       52
 fixed nKL is                                52
 max L of basis functions is                  2
 order of int derivative is                   0
 number of shells is                         40
 number of basis is                         113
 number of cartesian basis is               113
 number of contracted shell pairs           787
 number of primitive shell pairs           3239
 maxK2 (contraction) of shell pair           36
 max number of K2 of shell pair               1
 max number of CS2 of shell pair             60
 max number of PS2 of shell pair            336
 mem total for path MDJ                  521580
 -------------------------------------------------------
 Smallest overlap matrix eigenvalue = 5.70E-03

 Scale SEOQF with 1.000000e-01/1.000000e-01/1.000000e+00

 Standard Electronic Orientation quadrupole field applied
 Nucleus-field energy     =    -0.0000000219 hartrees
 Guess from superposition of atomic densities
 Warning:  Energy on first SCF cycle will be non-variational
 SAD guess density has 58.000000 electrons

 -----------------------------------------------------------------------
  General SCF calculation program by
  Eric Jon Sundstrom, Paul Horn, Yuezhi Mao, Dmitri Zuev, Alec White,
  David Stuck, Shaama M.S., Shane Yost, Joonho Lee, David Small,
  Daniel Levine, Susi Lehtola, Hugh Burton, Evgeny Epifanovsky
 -----------------------------------------------------------------------
 Exchange:     0.2000 Hartree-Fock + 0.0800 Slater + 0.7200 B88
 Correlation:  0.1900 VWN1RPA + 0.8100 LYP
 Using SG-1 standard quadrature grid
 using 12 threads for integral computing
 -------------------------------------------------------
 OpenMP Integral computing Module                
 Release: version 1.0, May 2013, Q-Chem Inc. Pittsburgh 
 -------------------------------------------------------
 -------------------------------------------------------
 OpenMP BLAS3 based DFT computing Module                
 Release: version 1.0, May 2013, Q-Chem Inc. Pittsburgh 
 -------------------------------------------------------
 A unrestricted SCF calculation will be
 performed using DIIS
 SCF converges when DIIS error is below 1.0e-06
 Alpha HF Exchange    Energy =  -7.28001941705060
 Beta HF Exchange     Energy =  -7.28001941705060
 DFT Correlation      Energy =  -2.76544172633044
 DFT Exchange         Energy = -57.34314781635476
 One-Electron (alpha) Energy = -983.17047401294644
 One-Electron (beta)  Energy = -983.17047401294644
 Total Coulomb        Energy = 730.26105228216613
 ---------------------------------------
  Cycle       Energy         DIIS error
 ---------------------------------------
    1   -1038.7017368962      2.69e-02  
 Alpha HF Exchange    Energy =  -7.29002409514791
 Beta HF Exchange     Energy =  -7.29002409514791
 DFT Correlation      Energy =  -2.78716686006363
 DFT Exchange         Energy = -57.85144682140547
 One-Electron (alpha) Energy = -986.49110670980167
 One-Electron (beta)  Energy = -986.49110670980167
 Total Coulomb        Energy = 737.89111349555139
    2   -1038.2629745715      2.70e-03  
 Alpha HF Exchange    Energy =  -7.24118548774844
 Beta HF Exchange     Energy =  -7.24118548774843
 DFT Correlation      Energy =  -2.77010759686328
 DFT Exchange         Energy = -57.45835417039588
 One-Electron (alpha) Energy = -983.38573940534502
 One-Electron (beta)  Energy = -983.38573940534468
 Total Coulomb        Energy = 731.18442381598948
    3   -1038.2511005131      3.03e-03  
 Alpha HF Exchange    Energy =  -7.26322703632705
 Beta HF Exchange     Energy =  -7.26322703632705
 DFT Correlation      Energy =  -2.77701098765086
 DFT Exchange         Energy = -57.62804671359695
 One-Electron (alpha) Energy = -984.80560419810877
 One-Electron (beta)  Energy = -984.80560419810899
 Total Coulomb        Energy = 734.18337567951437
    4   -1038.3125572663      7.00e-04  
 Alpha HF Exchange    Energy =  -7.26389792843719
 Beta HF Exchange     Energy =  -7.26389792843719
 DFT Correlation      Energy =  -2.77822338285346
 DFT Exchange         Energy = -57.63908897445771
 One-Electron (alpha) Energy = -984.90474484958304
 One-Electron (beta)  Energy = -984.90474484958304
 Total Coulomb        Energy = 734.39202345732247
    5   -1038.3157872317      2.37e-04  
 Alpha HF Exchange    Energy =  -7.26439675937435
 Beta HF Exchange     Energy =  -7.26439675937435
 DFT Correlation      Energy =  -2.77802876466855
 DFT Exchange         Energy = -57.64146651739364
 One-Electron (alpha) Energy = -984.91281970114585
 One-Electron (beta)  Energy = -984.91281970114585
 Total Coulomb        Energy = 734.41094334927175
    6   -1038.3161976295      5.22e-05  
 Alpha HF Exchange    Energy =  -7.26410062817779
 Beta HF Exchange     Energy =  -7.26410062817778
 DFT Correlation      Energy =  -2.77798729756720
 DFT Exchange         Energy = -57.63920536066023
 One-Electron (alpha) Energy = -984.89555339813205
 One-Electron (beta)  Energy = -984.89555339813137
 Total Coulomb        Energy = 734.37349793923443
    7   -1038.3162155473      1.43e-05  
 Alpha HF Exchange    Energy =  -7.26411369153441
 Beta HF Exchange     Energy =  -7.26411369153442
 DFT Correlation      Energy =  -2.77798405302953
 DFT Exchange         Energy = -57.63927841187898
 One-Electron (alpha) Energy = -984.89625835055176
 One-Electron (beta)  Energy = -984.89625835055199
 Total Coulomb        Energy = 734.37500257521287
    8   -1038.3162167495      3.62e-06  
 Alpha HF Exchange    Energy =  -7.26413134380089
 Beta HF Exchange     Energy =  -7.26413134380090
 DFT Correlation      Energy =  -2.77799123737991
 DFT Exchange         Energy = -57.63942310682813
 One-Electron (alpha) Energy = -984.89802752003584
 One-Electron (beta)  Energy = -984.89802752003641
 Total Coulomb        Energy = 734.37872801831952
    9   -1038.3162168292      7.90e-07  Convergence criterion met
 ---------------------------------------
 SCF time:   CPU 24.25s  wall 2.00s 
<S^2> =         -0.000000000
 Alpha HF Exchange    Energy =  -7.26413134380089
 Beta HF Exchange     Energy =  -7.26413134380090
 DFT Correlation      Energy =  -2.77799123737991
 DFT Exchange         Energy = -57.63942310682813
 One-Electron (alpha) Energy = -984.89802752003584
 One-Electron (beta)  Energy = -984.89802752003641
 Total Coulomb        Energy = 734.37872801831952
 Nuclear repulsion Energy = 272.04678722434568
 SCF   energy in the final basis set =    -1038.3162168292
 Total energy in the final basis set =    -1038.3162168292
 
 --------------------------------------------------------------
 
                    Orbital Energies (a.u.)
 --------------------------------------------------------------
 
 Alpha MOs
 -- Occupied --
*******-101.522 -10.289 -10.286 -10.206  -9.461  -9.435  -7.225
 -7.215  -7.215  -7.199  -7.189  -7.189  -0.887  -0.795  -0.762
 -0.717  -0.605  -0.501  -0.497  -0.461  -0.412  -0.396  -0.388
 -0.346  -0.311  -0.308  -0.289  -0.287
 -- Virtual --
 -0.080   0.009   0.069   0.118   0.128   0.135   0.157   0.169
  0.186   0.215   0.365   0.398   0.418   0.429   0.451   0.454
  0.483   0.494   0.522   0.532   0.555   0.581   0.591   0.654
  0.667   0.707   0.733   0.784   0.819   0.835   0.855   0.867
  0.880   0.891   0.895   0.908   0.914   0.929   0.959   0.984
  1.002   1.031   1.052   1.181   1.303   1.378   1.411   1.535
  1.542   1.718   1.758   1.803   1.818   1.865   1.995   2.023
  2.026   2.040   2.066   2.100   2.243   2.257   2.346   2.372
  2.438   2.534   2.616   2.622   2.643   2.719   2.810   2.854
  2.883   3.185   3.221   3.310   3.379   3.424   3.461   4.169
  4.259   4.303   4.424   4.558
 
 Beta MOs
 -- Occupied --
*******-101.522 -10.289 -10.286 -10.206  -9.461  -9.435  -7.225
 -7.215  -7.215  -7.199  -7.189  -7.189  -0.887  -0.795  -0.762
 -0.717  -0.605  -0.501  -0.497  -0.461  -0.412  -0.396  -0.388
 -0.346  -0.311  -0.308  -0.289  -0.287
 -- Virtual --
 -0.080   0.009   0.069   0.118   0.128   0.135   0.157   0.169
  0.186   0.215   0.365   0.398   0.418   0.429   0.451   0.454
  0.483   0.494   0.522   0.532   0.555   0.581   0.591   0.654
  0.667   0.707   0.733   0.784   0.819   0.835   0.855   0.867
  0.880   0.891   0.895   0.908   0.914   0.929   0.959   0.984
  1.002   1.031   1.052   1.181   1.303   1.378   1.411   1.535
  1.542   1.718   1.758   1.803   1.818   1.865   1.995   2.023
  2.026   2.040   2.066   2.100   2.243   2.257   2.346   2.372
  2.438   2.534   2.616   2.622   2.643   2.719   2.810   2.854
  2.883   3.185   3.221   3.310   3.379   3.424   3.461   4.169
  4.259   4.303   4.424   4.558
 --------------------------------------------------------------
 
          Ground-State Mulliken Net Atomic Charges

     Atom                 Charge (a.u.)    Spin (a.u.)
  --------------------------------------------------------
      1 Cl                   -0.052848      -0.000000
      2 Cl                   -0.242899       0.000000
      3 C                    -0.183836      -0.000000
      4 C                    -0.178665       0.000000
      5 C                    -0.303008       0.000000
      6 H                     0.172929       0.000000
      7 H                     0.179193      -0.000000
      8 H                     0.191064       0.000000
      9 H                     0.167882      -0.000000
     10 H                     0.132523      -0.000000
     11 H                     0.117667      -0.000000
  --------------------------------------------------------
  Sum of atomic charges =    -0.000000
  Sum of spin   charges =    -0.000000

 -----------------------------------------------------------------
                    Cartesian Multipole Moments
 -----------------------------------------------------------------
    Charge (ESU x 10^10)
                 0.0000
    Dipole Moment (Debye)
         X      -1.6576      Y      -2.0897      Z      -3.0161
       Tot       4.0264
    Quadrupole Moments (Debye-Ang)
        XX     -50.3021     XY       1.7490     YY     -44.8845
        XZ      -2.7210     YZ      -0.1140     ZZ     -42.4523
    Octopole Moments (Debye-Ang^2)
       XXX     -26.8868    XXY     -10.0150    XYY      -5.2814
       YYY     -22.8102    XXZ     -10.3659    XYZ      -0.3570
       YYZ      -7.2253    XZZ      -3.9621    YZZ      -7.6950
       ZZZ     -22.1787
    Hexadecapole Moments (Debye-Ang^3)
      XXXX    -635.0215   XXXY      31.9965   XXYY    -150.6738
      XYYY      23.8341   YYYY    -286.0348   XXXZ     -40.6123
      XXYZ       1.1594   XYYZ     -18.8018   YYYZ       2.7672
      XXZZ    -124.1360   XYZZ       9.8700   YYZZ     -76.2584
      XZZZ     -35.8893   YZZZ      -2.2708   ZZZZ    -168.7341
 -----------------------------------------------------------------
 Calculating analytic gradient of the SCF energy
 Gradient of SCF Energy
            1           2           3           4           5           6
    1   0.0000206   0.0299261   0.0000358  -0.0299497  -0.0000141  -0.0000340
    2   0.0000001   0.0032566  -0.0000100  -0.0032588  -0.0000319   0.0000825
    3   0.0000526   0.0395326   0.0000125  -0.0396483  -0.0000452   0.0000189
            7           8           9          10          11
    1   0.0000146  -0.0000143   0.0000149   0.0000061  -0.0000059
    2  -0.0000264  -0.0000135  -0.0000175   0.0000139   0.0000051
    3   0.0000771  -0.0000217   0.0000107   0.0000187  -0.0000079
 Max gradient component =       3.965E-02
 RMS gradient           =       1.225E-02
 Gradient time:  CPU 10.08 s  wall 0.89 s
 Geometry Optimization Parameters
   NAtoms,    NIC,     NZ,  NCons,   NDum,   NFix, NCnnct, MaxDiis
       11      68       0       1       0       0       0       0


** CONSTRAINED OPTIMIZATION IN DELOCALIZED INTERNAL COORDINATES **
   Searching for a Minimum

   Optimization Cycle:   1

                       Coordinates (Angstroms)
     ATOM                X               Y               Z
      1  Cl       -1.2876580000    1.3819160000    0.1879580000
      2  Cl        2.0955960000    0.1059220000    0.8169800000
      3  C        -0.6536790000   -0.1787370000   -0.5018260000
      4  C         0.7718830000   -0.0384270000   -0.9342900000
      5  C        -0.9418390000   -1.3445570000    0.4341570000
      6  H        -1.2139160000   -0.3059690000   -1.4400980000
      7  H         1.1951360000   -0.9329350000   -1.3843820000
      8  H         1.0407720000    0.8876380000   -1.4303290000
      9  H        -0.4196680000   -1.2054460000    1.3818050000
     10  H        -2.0144200000   -1.4277650000    0.6190130000
     11  H        -0.5919100000   -2.2762410000   -0.0241850000
   Point Group: c1    Number of degrees of freedom:    27


   Energy is  -1038.316216829

              Constraints and their Current Values
                                        Value     Constraint
   Distance(Angs):        2   4             2.200000     2.300000

 Attempting to Generate Delocalized Internal Coordinates

   Using Lagrange Multiplier Algorithm


 28 Hessian modes will be used to form the next step
  Hessian Eigenvalues:
    -0.953754    0.045000    0.045000    0.072233    0.075146    0.078023
     0.083737    0.084550    0.084729    0.114195    0.160000    0.160000
     0.160000    0.160000    0.160000    0.190567    0.221983    0.235113
     0.245831    0.301198    0.327677    0.336616    0.341619    0.346318
     0.347095    0.351454    0.354663    1.048489

 Minimum Search - Taking P-RFO Step
 Searching for Lamda that Maximizes Along the Constraint modes Only
 Value Taken    Lamda =   0.02974880
 Searching for Lamda that Minimizes Along All other modes
 Value Taken    Lamda =  -0.00844238
 Step Taken.  Stepsize is  0.184720

                             Maximum     Tolerance    Cnvgd?
         Gradient            0.188973       0.000300      NO
         Displacement        0.184708       0.001200      NO
         Energy change     *********       0.000001      NO


 New Cartesian Coordinates Obtained by Inverse Iteration

 Displacement from previous Coordinates is:  0.170522
 ----------------------------------------------------------------
             Standard Nuclear Orientation (Angstroms)
    I     Atom           X                Y                Z
 ----------------------------------------------------------------
    1      Cl     -1.2921935822     1.3813678774     0.1832073223
    2      Cl      2.1534543027     0.1129987245     0.8772289086
    3      C      -0.6604316414    -0.1798682735    -0.5072690185
    4      C       0.7632570108    -0.0394255040    -0.9458843733
    5      C      -0.9441287579    -1.3445922891     0.4314208857
    6      H      -1.2244595658    -0.3086033380    -1.4430635515
    7      H       1.1847266316    -0.9340738395    -1.3973941781
    8      H       1.0296992069     0.8863421107    -1.4438148326
    9      H      -0.4180447551    -1.2039289945     1.3766527815
   10      H      -2.0158904114    -1.4280915338     0.6208679440
   11      H      -0.5956914382    -2.2767259403    -0.0271488882
 ----------------------------------------------------------------
 Nuclear Repulsion Energy =   269.0828851349 hartrees
 There are       29 alpha and       29 beta electrons

                       Distance Matrix (Angstroms)
             Cl(  1)   Cl(  2)   C (  3)   C (  4)   C (  5)   H (  6)
   Cl(  2)  3.736698
   C (  3)  1.820258  3.149692
   C (  4)  2.741966  2.297743  1.496328
   C (  5)  2.759279  3.452294  1.522565  2.552567
   H (  6)  2.346348  4.119685  1.100187  2.066558  2.159989
   H (  7)  3.740950  2.684903  2.183062  1.087149  2.836391  2.489473
   H (  8)  2.878096  2.692235  2.206913  1.084422  3.519883  2.551299
   H (  9)  2.978625  2.931950  2.157919  2.854071  1.090878  3.066384
   H ( 10)  2.933998  4.452428  2.160561  3.479478  1.091575  2.477787
   H ( 11)  3.729747  3.753197  2.152096  2.774226  1.095704  2.504730
             H (  7)   H (  8)   H (  9)   H ( 10)
   H (  8)  1.827595
   H (  9)  3.215126  3.797398
   H ( 10)  3.815938  4.346853  1.781732
   H ( 11)  2.617284  3.828033  1.775700  1.776815
 
 Applying Cartesian multipole field
    Component          Value
    ---------          -----
     (2,0,0)        1.00000E-11
     (0,2,0)        2.00000E-11
     (0,0,2)       -3.00000E-10
 Nucleus-field energy     =    -0.0000000238 hartrees
 Requested basis set is 6-31G(d,p)
 There are 40 shells and 113 basis functions
 A cutoff of  1.0D-14 yielded    787 shell pairs
 There are      6450 function pairs
 Smallest overlap matrix eigenvalue = 5.75E-03
 Guess from superposition of atomic densities
 Warning:  Energy on first SCF cycle will be non-variational
 SAD guess density has 58.000000 electrons

 -----------------------------------------------------------------------
  General SCF calculation program by
  Eric Jon Sundstrom, Paul Horn, Yuezhi Mao, Dmitri Zuev, Alec White,
  David Stuck, Shaama M.S., Shane Yost, Joonho Lee, David Small,
  Daniel Levine, Susi Lehtola, Hugh Burton, Evgeny Epifanovsky
 -----------------------------------------------------------------------
 Exchange:     0.2000 Hartree-Fock + 0.0800 Slater + 0.7200 B88
 Correlation:  0.1900 VWN1RPA + 0.8100 LYP
 Using SG-1 standard quadrature grid
 using 12 threads for integral computing
 -------------------------------------------------------
 OpenMP Integral computing Module                
 Release: version 1.0, May 2013, Q-Chem Inc. Pittsburgh 
 -------------------------------------------------------
 -------------------------------------------------------
 OpenMP BLAS3 based DFT computing Module                
 Release: version 1.0, May 2013, Q-Chem Inc. Pittsburgh 
 -------------------------------------------------------
 A unrestricted SCF calculation will be
 performed using DIIS
 SCF converges when DIIS error is below 1.0e-06
 Alpha HF Exchange    Energy =  -7.27629204565254
 Beta HF Exchange     Energy =  -7.27629204565254
 DFT Correlation      Energy =  -2.76367098389291
 DFT Exchange         Energy = -57.33602835251537
 One-Electron (alpha) Energy = -980.21019209747237
 One-Electron (beta)  Energy = -980.21019209747237
 Total Coulomb        Energy = 727.31988736501444
 ---------------------------------------
  Cycle       Energy         DIIS error
 ---------------------------------------
    1   -1038.6698951465      2.67e-02  
 Alpha HF Exchange    Energy =  -7.28902718030937
 Beta HF Exchange     Energy =  -7.28902718030937
 DFT Correlation      Energy =  -2.78543215478236
 DFT Exchange         Energy = -57.84506256101837
 One-Electron (alpha) Energy = -983.55645289225322
 One-Electron (beta)  Energy = -983.55645289225288
 Total Coulomb        Energy = 734.98960191739138
    2   -1038.2489678324      2.77e-03  
 Alpha HF Exchange    Energy =  -7.23761054937993
 Beta HF Exchange     Energy =  -7.23761054937993
 DFT Correlation      Energy =  -2.76849491972856
 DFT Exchange         Energy = -57.43800232357526
 One-Electron (alpha) Energy = -980.31115124949849
 One-Electron (beta)  Energy = -980.31115124949815
 Total Coulomb        Energy = 728.00675376126230
    3   -1038.2143819687      3.52e-03  
 Alpha HF Exchange    Energy =  -7.26095307580337
 Beta HF Exchange     Energy =  -7.26095307580337
 DFT Correlation      Energy =  -2.77463670681227
 DFT Exchange         Energy = -57.61114521558264
 One-Electron (alpha) Energy = -981.78228571303339
 One-Electron (beta)  Energy = -981.78228571303305
 Total Coulomb        Energy = 731.09101562825549
    4   -1038.2983587607      1.03e-03  
 Alpha HF Exchange    Energy =  -7.26175530794469
 Beta HF Exchange     Energy =  -7.26175530794469
 DFT Correlation      Energy =  -2.77644496107649
 DFT Exchange         Energy = -57.62654229306595
 One-Electron (alpha) Energy = -981.92147390650427
 One-Electron (beta)  Energy = -981.92147390650416
 Total Coulomb        Energy = 731.38031007323684
    5   -1038.3062504987      2.43e-04  
 Alpha HF Exchange    Energy =  -7.26249163228349
 Beta HF Exchange     Energy =  -7.26249163228348
 DFT Correlation      Energy =  -2.77631007170189
 DFT Exchange         Energy = -57.63074730024853
 One-Electron (alpha) Energy = -981.94429024273825
 One-Electron (beta)  Energy = -981.94429024273779
 Total Coulomb        Energy = 731.43104769143201
    6   -1038.3066883195      5.99e-05  
 Alpha HF Exchange    Energy =  -7.26217980400592
 Beta HF Exchange     Energy =  -7.26217980400592
 DFT Correlation      Energy =  -2.77625839639401
 DFT Exchange         Energy = -57.62830099702774
 One-Electron (alpha) Energy = -981.92569654610668
 One-Electron (beta)  Energy = -981.92569654610634
 Total Coulomb        Energy = 731.39071596195720
    7   -1038.3067110206      1.73e-05  
 Alpha HF Exchange    Energy =  -7.26217778035015
 Beta HF Exchange     Energy =  -7.26217778035015
 DFT Correlation      Energy =  -2.77624980553055
 DFT Exchange         Energy = -57.62824952659141
 One-Electron (alpha) Energy = -981.92516821285460
 One-Electron (beta)  Energy = -981.92516821285506
 Total Coulomb        Energy = 731.38959339821099
    8   -1038.3067128092      3.81e-06  
 Alpha HF Exchange    Energy =  -7.26220140927869
 Beta HF Exchange     Energy =  -7.26220140927870
 DFT Correlation      Energy =  -2.77625877998157
 DFT Exchange         Energy = -57.62844073654546
 One-Electron (alpha) Energy = -981.92743696882872
 One-Electron (beta)  Energy = -981.92743696882906
 Total Coulomb        Energy = 731.39437826365531
    9   -1038.3067128980      8.65e-07  Convergence criterion met
 ---------------------------------------
 SCF time:   CPU 23.87s  wall 2.00s 
<S^2> =         -0.000000000
 Alpha HF Exchange    Energy =  -7.26220140927869
 Beta HF Exchange     Energy =  -7.26220140927870
 DFT Correlation      Energy =  -2.77625877998157
 DFT Exchange         Energy = -57.62844073654546
 One-Electron (alpha) Energy = -981.92743696882872
 One-Electron (beta)  Energy = -981.92743696882906
 Total Coulomb        Energy = 731.39437826365531
 Nuclear repulsion Energy = 269.08288511110493
 SCF   energy in the final basis set =    -1038.3067128980
 Total energy in the final basis set =    -1038.3067128980
 
 --------------------------------------------------------------
 
                    Orbital Energies (a.u.)
 --------------------------------------------------------------
 
 Alpha MOs
 -- Occupied --
*******-101.519 -10.295 -10.289 -10.208  -9.463  -9.431  -7.227
 -7.217  -7.217  -7.195  -7.186  -7.186  -0.888  -0.791  -0.759
 -0.721  -0.608  -0.503  -0.499  -0.463  -0.413  -0.398  -0.390
 -0.338  -0.313  -0.309  -0.285  -0.283
 -- Virtual --
 -0.098   0.006   0.067   0.116   0.126   0.134   0.156   0.168
  0.184   0.214   0.363   0.398   0.417   0.427   0.449   0.453
  0.486   0.493   0.524   0.533   0.557   0.586   0.590   0.651
  0.659   0.709   0.736   0.772   0.818   0.838   0.854   0.868
  0.880   0.885   0.894   0.906   0.915   0.929   0.957   0.979
  0.992   1.025   1.037   1.176   1.299   1.362   1.399   1.528
  1.536   1.716   1.753   1.793   1.815   1.860   1.990   2.020
  2.023   2.035   2.064   2.098   2.237   2.253   2.343   2.369
  2.433   2.530   2.613   2.620   2.639   2.716   2.805   2.852
  2.880   3.184   3.218   3.306   3.375   3.422   3.459   4.167
  4.259   4.299   4.416   4.554
 
 Beta MOs
 -- Occupied --
*******-101.519 -10.295 -10.289 -10.208  -9.463  -9.431  -7.227
 -7.217  -7.217  -7.195  -7.186  -7.186  -0.888  -0.791  -0.759
 -0.721  -0.608  -0.503  -0.499  -0.463  -0.413  -0.398  -0.390
 -0.338  -0.313  -0.309  -0.285  -0.283
 -- Virtual --
 -0.098   0.006   0.067   0.116   0.126   0.134   0.156   0.168
  0.184   0.214   0.363   0.398   0.417   0.427   0.449   0.453
  0.486   0.493   0.524   0.533   0.557   0.586   0.590   0.651
  0.659   0.709   0.736   0.772   0.818   0.838   0.854   0.868
  0.880   0.885   0.894   0.906   0.915   0.929   0.957   0.979
  0.992   1.025   1.037   1.176   1.299   1.362   1.399   1.528
  1.536   1.716   1.753   1.793   1.815   1.860   1.990   2.020
  2.023   2.035   2.064   2.098   2.237   2.253   2.343   2.369
  2.433   2.530   2.613   2.620   2.639   2.716   2.805   2.852
  2.880   3.184   3.218   3.306   3.375   3.422   3.459   4.167
  4.259   4.299   4.416   4.554
 --------------------------------------------------------------
 
          Ground-State Mulliken Net Atomic Charges

     Atom                 Charge (a.u.)    Spin (a.u.)
  --------------------------------------------------------
      1 Cl                   -0.048976      -0.000000
      2 Cl                   -0.273636      -0.000000
      3 C                    -0.189648       0.000000
      4 C                    -0.153290       0.000000
      5 C                    -0.303062      -0.000000
      6 H                     0.176344      -0.000000
      7 H                     0.179100      -0.000000
      8 H                     0.191099       0.000000
      9 H                     0.170735       0.000000
     10 H                     0.133063      -0.000000
     11 H                     0.118272       0.000000
  --------------------------------------------------------
  Sum of atomic charges =    -0.000000
  Sum of spin   charges =    -0.000000

 -----------------------------------------------------------------
                    Cartesian Multipole Moments
 -----------------------------------------------------------------
    Charge (ESU x 10^10)
                -0.0000
    Dipole Moment (Debye)
         X      -1.9351      Y      -2.1131      Z      -3.2406
       Tot       4.3257
    Quadrupole Moments (Debye-Ang)
        XX     -50.9191     XY       1.7054     YY     -44.8482
        XZ      -3.0714     YZ      -0.1144     ZZ     -42.4250
    Octopole Moments (Debye-Ang^2)
       XXX     -30.8150    XXY     -10.1833    XYY      -6.1573
       YYY     -23.0413    XXZ     -11.7494    XYZ      -0.4010
       YYZ      -7.9018    XZZ      -4.9506    YZZ      -7.8146
       ZZZ     -24.6481
    Hexadecapole Moments (Debye-Ang^3)
      XXXX    -660.3480   XXXY      31.0773   XXYY    -154.3349
      XYYY      22.9625   YYYY    -285.6155   XXXZ     -49.4238
      XXYZ       1.0492   XYYZ     -21.4878   YYYZ       2.3761
      XXZZ    -129.4200   XYZZ       9.6388   YYZZ     -77.5889
      XZZZ     -43.7877   YZZZ      -2.6473   ZZZZ    -177.0498
 -----------------------------------------------------------------
 Calculating analytic gradient of the SCF energy
 Gradient of SCF Energy
            1           2           3           4           5           6
    1   0.0000878   0.0319815  -0.0028325  -0.0253091   0.0001504  -0.0004100
    2   0.0001928   0.0037128  -0.0010859  -0.0026787   0.0004126   0.0001626
    3   0.0002946   0.0416800  -0.0029587  -0.0356377  -0.0000575   0.0008052
            7           8           9          10          11
    1  -0.0017203  -0.0016913  -0.0002563   0.0000102  -0.0000104
    2   0.0002122  -0.0006888  -0.0002329   0.0000051  -0.0000118
    3  -0.0020621  -0.0021779   0.0000836   0.0000594  -0.0000288
 Max gradient component =       4.168E-02
 RMS gradient           =       1.197E-02
 Gradient time:  CPU 9.66 s  wall 0.85 s
 Geometry Optimization Parameters
   NAtoms,    NIC,     NZ,  NCons,   NDum,   NFix, NCnnct, MaxDiis
       11      68       0       1       0       0       0       0

 Cartesian Hessian Update
 Hessian Updated using BFGS Update


** CONSTRAINED OPTIMIZATION IN DELOCALIZED INTERNAL COORDINATES **
   Searching for a Minimum

   Optimization Cycle:   2

                       Coordinates (Angstroms)
     ATOM                X               Y               Z
      1  Cl       -1.2921935822    1.3813678774    0.1832073223
      2  Cl        2.1534543027    0.1129987245    0.8772289086
      3  C        -0.6604316414   -0.1798682735   -0.5072690185
      4  C         0.7632570108   -0.0394255040   -0.9458843733
      5  C        -0.9441287579   -1.3445922891    0.4314208857
      6  H        -1.2244595658   -0.3086033380   -1.4430635515
      7  H         1.1847266316   -0.9340738395   -1.3973941781
      8  H         1.0296992069    0.8863421107   -1.4438148326
      9  H        -0.4180447551   -1.2039289945    1.3766527815
     10  H        -2.0158904114   -1.4280915338    0.6208679440
     11  H        -0.5956914382   -2.2767259403   -0.0271488882
   Point Group: c1    Number of degrees of freedom:    27


   Energy is  -1038.306712898

              Constraints and their Current Values
                                        Value     Constraint
   Distance(Angs):        2   4             2.297743     2.300000
 Hessian Updated using BFGS Update

   Using Lagrange Multiplier Algorithm


 25 Hessian modes will be used to form the next step
  Hessian Eigenvalues:
    -0.992357    0.045000    0.045062    0.072270    0.078020    0.083737
     0.084104    0.084721    0.096895    0.116054    0.160000    0.170423
     0.190967    0.225998    0.235461    0.245970    0.301209    0.336003
     0.341614    0.344130    0.346318    0.347219    0.351457    0.354663
     1.008633

 Minimum Search - Taking P-RFO Step
 Searching for Lamda that Maximizes Along the Constraint modes Only
 Value Taken    Lamda =   0.00002689
 Searching for Lamda that Minimizes Along All other modes
 Value Taken    Lamda =  -0.00031244
 Step Taken.  Stepsize is  0.037975

                             Maximum     Tolerance    Cnvgd?
         Gradient            0.011497       0.000300      NO
         Displacement        0.029856       0.001200      NO
         Energy change      0.009504       0.000001      NO


 New Cartesian Coordinates Obtained by Inverse Iteration

 Displacement from previous Coordinates is:  0.037962
 ----------------------------------------------------------------
             Standard Nuclear Orientation (Angstroms)
    I     Atom           X                Y                Z
 ----------------------------------------------------------------
    1      Cl     -1.2926560190     1.3820993514     0.1821299537
    2      Cl      2.1420851962     0.1058300385     0.8790150973
    3      C      -0.6618454566    -0.1791105814    -0.5083319133
    4      C       0.7574478071    -0.0400314772    -0.9516944171
    5      C      -0.9416603541    -1.3437791342     0.4317429840
    6      H      -1.2263080365    -0.3080522645    -1.4444573905
    7      H       1.1868566125    -0.9346705941    -1.3956572229
    8      H       1.0341547829     0.8877083138    -1.4402837470
    9      H      -0.4115994887    -1.2003428790     1.3744288655
   10      H      -2.0126739270    -1.4283467032     0.6249153380
   11      H      -0.5935041167    -2.2759050701    -0.0270045479
 ----------------------------------------------------------------
 Nuclear Repulsion Energy =   269.3534169700 hartrees
 There are       29 alpha and       29 beta electrons

                       Distance Matrix (Angstroms)
             Cl(  1)   Cl(  2)   C (  3)   C (  4)   C (  5)   H (  6)
   Cl(  2)  3.729874
   C (  3)  1.819900  3.141329
   C (  4)  2.740609  2.299999  1.493421
   C (  5)  2.759695  3.436700  1.522659  2.549632
   H (  6)  2.346657  4.112894  1.100716  2.061538  2.161916
   H (  7)  3.742301  2.677543  2.185387  1.087140  2.835021  2.493671
   H (  8)  2.879357  2.686632  2.209763  1.084430  3.519640  2.557255
   H (  9)  2.977725  2.910812  2.156462  2.850236  1.090961  3.066929
   H ( 10)  2.934807  4.436247  2.160921  3.476592  1.091576  2.481075
   H ( 11)  3.730087  3.738580  2.152416  2.771147  1.095683  2.506403
             H (  7)   H (  8)   H (  9)   H ( 10)
   H (  8)  1.829310
   H (  9)  3.209209  3.791144
   H ( 10)  3.816206  4.348830  1.782469
   H ( 11)  2.615684  3.828196  1.775933  1.776907
 
 Applying Cartesian multipole field
    Component          Value
    ---------          -----
     (2,0,0)        1.00000E-11
     (0,2,0)        2.00000E-11
     (0,0,2)       -3.00000E-10
 Nucleus-field energy     =    -0.0000000240 hartrees
 Requested basis set is 6-31G(d,p)
 There are 40 shells and 113 basis functions
 A cutoff of  1.0D-14 yielded    787 shell pairs
 There are      6450 function pairs
 Smallest overlap matrix eigenvalue = 5.73E-03
 Guess from superposition of atomic densities
 Warning:  Energy on first SCF cycle will be non-variational
 SAD guess density has 58.000000 electrons

 -----------------------------------------------------------------------
  General SCF calculation program by
  Eric Jon Sundstrom, Paul Horn, Yuezhi Mao, Dmitri Zuev, Alec White,
  David Stuck, Shaama M.S., Shane Yost, Joonho Lee, David Small,
  Daniel Levine, Susi Lehtola, Hugh Burton, Evgeny Epifanovsky
 -----------------------------------------------------------------------
 Exchange:     0.2000 Hartree-Fock + 0.0800 Slater + 0.7200 B88
 Correlation:  0.1900 VWN1RPA + 0.8100 LYP
 Using SG-1 standard quadrature grid
 using 12 threads for integral computing
 -------------------------------------------------------
 OpenMP Integral computing Module                
 Release: version 1.0, May 2013, Q-Chem Inc. Pittsburgh 
 -------------------------------------------------------
 -------------------------------------------------------
 OpenMP BLAS3 based DFT computing Module                
 Release: version 1.0, May 2013, Q-Chem Inc. Pittsburgh 
 -------------------------------------------------------
 A unrestricted SCF calculation will be
 performed using DIIS
 SCF converges when DIIS error is below 1.0e-06
 Alpha HF Exchange    Energy =  -7.27658926465336
 Beta HF Exchange     Energy =  -7.27658926465336
 DFT Correlation      Energy =  -2.76379366794524
 DFT Exchange         Energy = -57.33660113108193
 One-Electron (alpha) Energy = -980.47971711033597
 One-Electron (beta)  Energy = -980.47971711033597
 Total Coulomb        Energy = 727.58683237780690
 ---------------------------------------
  Cycle       Energy         DIIS error
 ---------------------------------------
    1   -1038.6727582252      2.67e-02  
 Alpha HF Exchange    Energy =  -7.28922508914440
 Beta HF Exchange     Energy =  -7.28922508914441
 DFT Correlation      Energy =  -2.78556107294511
 DFT Exchange         Energy = -57.84639677025086
 One-Electron (alpha) Energy = -983.83530329902590
 One-Electron (beta)  Energy = -983.83530329902601
 Total Coulomb        Energy = 735.27903361764857
    2   -1038.2485640559      2.77e-03  
 Alpha HF Exchange    Energy =  -7.23760143687404
 Beta HF Exchange     Energy =  -7.23760143687403
 DFT Correlation      Energy =  -2.76862267744723
 DFT Exchange         Energy = -57.43813546922530
 One-Electron (alpha) Energy = -980.57155880251923
 One-Electron (beta)  Energy = -980.57155880251878
 Total Coulomb        Energy = 728.25930815013078
    3   -1038.2123535293      3.55e-03  
 Alpha HF Exchange    Energy =  -7.26103271344588
 Beta HF Exchange     Energy =  -7.26103271344587
 DFT Correlation      Energy =  -2.77472610160169
 DFT Exchange         Energy = -57.61155625086245
 One-Electron (alpha) Energy = -982.05152082499694
 One-Electron (beta)  Energy = -982.05152082499626
 Total Coulomb        Energy = 731.35991212272086
    4   -1038.2980603606      1.05e-03  
 Alpha HF Exchange    Energy =  -7.26186157931966
 Beta HF Exchange     Energy =  -7.26186157931967
 DFT Correlation      Energy =  -2.77656909612878
 DFT Exchange         Energy = -57.62733765963910
 One-Electron (alpha) Energy = -982.19333767713010
 One-Electron (beta)  Energy = -982.19333767713090
 Total Coulomb        Energy = 731.65471259881804
    5   -1038.3061757238      2.43e-04  
 Alpha HF Exchange    Energy =  -7.26260607496794
 Beta HF Exchange     Energy =  -7.26260607496793
 DFT Correlation      Energy =  -2.77643492124457
 DFT Exchange         Energy = -57.63159892545760
 One-Electron (alpha) Energy = -982.21650045190802
 One-Electron (beta)  Energy = -982.21650045190722
 Total Coulomb        Energy = 731.70621674545805
    6   -1038.3066132090      6.08e-05  
 Alpha HF Exchange    Energy =  -7.26229619227165
 Beta HF Exchange     Energy =  -7.26229619227165
 DFT Correlation      Energy =  -2.77638420126827
 DFT Exchange         Energy = -57.62916700230370
 One-Electron (alpha) Energy = -982.19816040092235
 One-Electron (beta)  Energy = -982.19816040092235
 Total Coulomb        Energy = 731.66641084598689
    7   -1038.3066365980      1.75e-05  
 Alpha HF Exchange    Energy =  -7.26229218077020
 Beta HF Exchange     Energy =  -7.26229218077021
 DFT Correlation      Energy =  -2.77637500265178
 DFT Exchange         Energy = -57.62909944642553
 One-Electron (alpha) Energy = -982.19746253007952
 One-Electron (beta)  Energy = -982.19746253007986
 Total Coulomb        Energy = 731.66492849697522
    8   -1038.3066384278      3.79e-06  
 Alpha HF Exchange    Energy =  -7.26231616344796
 Beta HF Exchange     Energy =  -7.26231616344796
 DFT Correlation      Energy =  -2.77638403625695
 DFT Exchange         Energy = -57.62929315412725
 One-Electron (alpha) Energy = -982.19976084520249
 One-Electron (beta)  Energy = -982.19976084520238
 Total Coulomb        Energy = 731.66977574587361
    9   -1038.3066385158      8.67e-07  Convergence criterion met
 ---------------------------------------
 SCF time:   CPU 23.79s  wall 2.00s 
<S^2> =          0.000000000
 Alpha HF Exchange    Energy =  -7.26231616344796
 Beta HF Exchange     Energy =  -7.26231616344796
 DFT Correlation      Energy =  -2.77638403625695
 DFT Exchange         Energy = -57.62929315412725
 One-Electron (alpha) Energy = -982.19976084520249
 One-Electron (beta)  Energy = -982.19976084520238
 Total Coulomb        Energy = 731.66977574587361
 Nuclear repulsion Energy = 269.35341694600635
 SCF   energy in the final basis set =    -1038.3066385158
 Total energy in the final basis set =    -1038.3066385158
 
 --------------------------------------------------------------
 
                    Orbital Energies (a.u.)
 --------------------------------------------------------------
 
 Alpha MOs
 -- Occupied --
*******-101.518 -10.295 -10.289 -10.208  -9.463  -9.430  -7.227
 -7.217  -7.217  -7.195  -7.185  -7.185  -0.889  -0.791  -0.759
 -0.721  -0.608  -0.503  -0.499  -0.463  -0.413  -0.398  -0.390
 -0.337  -0.313  -0.309  -0.285  -0.283
 -- Virtual --
 -0.098   0.006   0.067   0.115   0.126   0.134   0.156   0.168
  0.185   0.214   0.364   0.398   0.417   0.427   0.450   0.452
  0.486   0.493   0.524   0.533   0.557   0.586   0.590   0.651
  0.659   0.711   0.736   0.773   0.817   0.838   0.854   0.868
  0.879   0.885   0.894   0.906   0.916   0.929   0.958   0.981
  0.992   1.025   1.038   1.176   1.299   1.362   1.401   1.527
  1.535   1.716   1.752   1.794   1.816   1.861   1.991   2.020
  2.022   2.036   2.064   2.099   2.236   2.255   2.342   2.372
  2.432   2.527   2.615   2.620   2.639   2.715   2.807   2.852
  2.881   3.184   3.217   3.307   3.375   3.422   3.459   4.168
  4.261   4.299   4.416   4.554
 
 Beta MOs
 -- Occupied --
*******-101.518 -10.295 -10.289 -10.208  -9.463  -9.430  -7.227
 -7.217  -7.217  -7.195  -7.185  -7.185  -0.889  -0.791  -0.759
 -0.721  -0.608  -0.503  -0.499  -0.463  -0.413  -0.398  -0.390
 -0.337  -0.313  -0.309  -0.285  -0.283
 -- Virtual --
 -0.098   0.006   0.067   0.115   0.126   0.134   0.156   0.168
  0.185   0.214   0.364   0.398   0.417   0.427   0.450   0.452
  0.486   0.493   0.524   0.533   0.557   0.586   0.590   0.651
  0.659   0.711   0.736   0.773   0.817   0.838   0.854   0.868
  0.879   0.885   0.894   0.906   0.916   0.929   0.958   0.981
  0.992   1.025   1.038   1.176   1.299   1.362   1.401   1.527
  1.535   1.716   1.752   1.794   1.816   1.861   1.991   2.020
  2.022   2.036   2.064   2.099   2.236   2.255   2.342   2.372
  2.432   2.527   2.615   2.620   2.639   2.715   2.807   2.852
  2.881   3.184   3.217   3.307   3.375   3.422   3.459   4.168
  4.261   4.299   4.416   4.554
 --------------------------------------------------------------
 
          Ground-State Mulliken Net Atomic Charges

     Atom                 Charge (a.u.)    Spin (a.u.)
  --------------------------------------------------------
      1 Cl                   -0.048101       0.000000
      2 Cl                   -0.277221       0.000000
      3 C                    -0.189368      -0.000000
      4 C                    -0.153454       0.000000
      5 C                    -0.303065       0.000000
      6 H                     0.176327       0.000000
      7 H                     0.180206      -0.000000
      8 H                     0.191995       0.000000
      9 H                     0.171355      -0.000000
     10 H                     0.133002      -0.000000
     11 H                     0.118323      -0.000000
  --------------------------------------------------------
  Sum of atomic charges =     0.000000
  Sum of spin   charges =    -0.000000

 -----------------------------------------------------------------
                    Cartesian Multipole Moments
 -----------------------------------------------------------------
    Charge (ESU x 10^10)
                -0.0000
    Dipole Moment (Debye)
         X      -1.9433      Y      -2.1015      Z      -3.2639
       Tot       4.3412
    Quadrupole Moments (Debye-Ang)
        XX     -50.9141     XY       1.7136     YY     -44.8270
        XZ      -3.1219     YZ      -0.1104     ZZ     -42.4324
    Octopole Moments (Debye-Ang^2)
       XXX     -30.3285    XXY     -10.0678    XYY      -5.9862
       YYY     -22.7934    XXZ     -11.8374    XYZ      -0.4077
       YYZ      -7.8958    XZZ      -4.8221    YZZ      -7.7415
       ZZZ     -24.6239
    Hexadecapole Moments (Debye-Ang^3)
      XXXX    -656.4358   XXXY      31.8912   XXYY    -153.5924
      XYYY      23.7764   YYYY    -285.4156   XXXZ     -49.6793
      XXYZ       1.1054   XYYZ     -21.5113   YYYZ       2.6637
      XXZZ    -128.9194   XYZZ       9.8808   YYZZ     -77.6757
      XZZZ     -43.7422   YZZZ      -2.3680   ZZZZ    -177.6594
 -----------------------------------------------------------------
 Calculating analytic gradient of the SCF energy
 Gradient of SCF Energy
            1           2           3           4           5           6
    1   0.0000537   0.0311383  -0.0016732  -0.0275776   0.0002347  -0.0000458
    2   0.0001969   0.0034171  -0.0008458  -0.0028357   0.0003250   0.0002675
    3   0.0003147   0.0412359  -0.0019169  -0.0369195  -0.0000507   0.0004147
            7           8           9          10          11
    1  -0.0009844  -0.0009958  -0.0001200  -0.0000079  -0.0000219
    2   0.0001276  -0.0004786  -0.0001218  -0.0000214  -0.0000306
    3  -0.0015443  -0.0017032   0.0001348   0.0000599  -0.0000254
 Max gradient component =       4.124E-02
 RMS gradient           =       1.210E-02
 Gradient time:  CPU 9.64 s  wall 0.85 s
 Geometry Optimization Parameters
   NAtoms,    NIC,     NZ,  NCons,   NDum,   NFix, NCnnct, MaxDiis
       11      68       0       1       0       0       0       0

 Cartesian Hessian Update
 Hessian Updated using BFGS Update


** CONSTRAINED OPTIMIZATION IN DELOCALIZED INTERNAL COORDINATES **
   Searching for a Minimum

   Optimization Cycle:   3

                       Coordinates (Angstroms)
     ATOM                X               Y               Z
      1  Cl       -1.2926560190    1.3820993514    0.1821299537
      2  Cl        2.1420851962    0.1058300385    0.8790150973
      3  C        -0.6618454566   -0.1791105814   -0.5083319133
      4  C         0.7574478071   -0.0400314772   -0.9516944171
      5  C        -0.9416603541   -1.3437791342    0.4317429840
      6  H        -1.2263080365   -0.3080522645   -1.4444573905
      7  H         1.1868566125   -0.9346705941   -1.3956572229
      8  H         1.0341547829    0.8877083138   -1.4402837470
      9  H        -0.4115994887   -1.2003428790    1.3744288655
     10  H        -2.0126739270   -1.4283467032    0.6249153380
     11  H        -0.5935041167   -2.2759050701   -0.0270045479
   Point Group: c1    Number of degrees of freedom:    27


   Energy is  -1038.306638516

              Constraints and their Current Values
                                        Value     Constraint
   Distance(Angs):        2   4             2.299999     2.300000
 Hessian Updated using BFGS Update

   Using Lagrange Multiplier Algorithm


 26 Hessian modes will be used to form the next step
  Hessian Eigenvalues:
    -0.989128    0.037662    0.045001    0.048685    0.072372    0.078262
     0.083737    0.084424    0.084722    0.116930    0.158763    0.160001
     0.160586    0.191256    0.230323    0.237373    0.245890    0.301178
     0.331939    0.336906    0.341639    0.346332    0.347491    0.352121
     0.355277    1.012298

 Minimum Search - Taking P-RFO Step
 Searching for Lamda that Maximizes Along the Constraint modes Only
 Value Taken    Lamda =   0.00000000
 Searching for Lamda that Minimizes Along All other modes
 Value Taken    Lamda =  -0.00020052
 Step Taken.  Stepsize is  0.069461

                             Maximum     Tolerance    Cnvgd?
         Gradient            0.002301       0.000300      NO
         Displacement        0.053663       0.001200      NO
         Energy change      0.000074       0.000001      NO


 New Cartesian Coordinates Obtained by Inverse Iteration

 Displacement from previous Coordinates is:  0.054240
 ----------------------------------------------------------------
             Standard Nuclear Orientation (Angstroms)
    I     Atom           X                Y                Z
 ----------------------------------------------------------------
    1      Cl     -1.2944902371     1.3828286782     0.1780573876
    2      Cl      2.1303830791     0.0956041216     0.8743476827
    3      C      -0.6635297913    -0.1782501563    -0.5092897458
    4      C       0.7500761452    -0.0399452100    -0.9604216363
    5      C      -0.9395011477    -1.3429689230     0.4322191372
    6      H      -1.2311339661    -0.3104558096    -1.4443600118
    7      H       1.1923951438    -0.9348612440    -1.3896582043
    8      H       1.0418937582     0.8924736146    -1.4300704842
    9      H      -0.4042499920    -1.1961211220     1.3711943254
   10      H      -2.0096402806    -1.4278611966     0.6295766349
   11      H      -0.5919057116    -2.2750437530    -0.0267920853
 ----------------------------------------------------------------
 Nuclear Repulsion Energy =   269.7116434144 hartrees
 There are       29 alpha and       29 beta electrons

                       Distance Matrix (Angstroms)
             Cl(  1)   Cl(  2)   C (  3)   C (  4)   C (  5)   H (  6)
   Cl(  2)  3.724450
   C (  3)  1.818660  3.129760
   C (  4)  2.738735  2.300000  1.490278
   C (  5)  2.760541  3.418941  1.522882  2.547938
   H (  6)  2.345946  4.103789  1.101821  2.057320  2.161639
   H (  7)  3.743530  2.658459  2.189056  1.086630  2.833861  2.503271
   H (  8)  2.878405  2.670235  2.214217  1.084035  3.520121  2.571750
   H (  9)  2.977765  2.887867  2.153952  2.847041  1.090749  3.065206
   H ( 10)  2.935181  4.418218  2.161147  3.474254  1.091492  2.481105
   H ( 11)  3.730364  3.720602  2.152784  2.769160  1.095572  2.505537
             H (  7)   H (  8)   H (  9)   H ( 10)
   H (  8)  1.833967
   H (  9)  3.199975  3.781619
   H ( 10)  3.817511  4.351777  1.783530
   H ( 11)  2.614808  3.830360  1.775853  1.777220
 
 Applying Cartesian multipole field
    Component          Value
    ---------          -----
     (2,0,0)        1.00000E-11
     (0,2,0)        2.00000E-11
     (0,0,2)       -3.00000E-10
 Nucleus-field energy     =    -0.0000000239 hartrees
 Requested basis set is 6-31G(d,p)
 There are 40 shells and 113 basis functions
 A cutoff of  1.0D-14 yielded    787 shell pairs
 There are      6450 function pairs
 Smallest overlap matrix eigenvalue = 5.71E-03
 Guess from superposition of atomic densities
 Warning:  Energy on first SCF cycle will be non-variational
 SAD guess density has 58.000000 electrons

 -----------------------------------------------------------------------
  General SCF calculation program by
  Eric Jon Sundstrom, Paul Horn, Yuezhi Mao, Dmitri Zuev, Alec White,
  David Stuck, Shaama M.S., Shane Yost, Joonho Lee, David Small,
  Daniel Levine, Susi Lehtola, Hugh Burton, Evgeny Epifanovsky
 -----------------------------------------------------------------------
 Exchange:     0.2000 Hartree-Fock + 0.0800 Slater + 0.7200 B88
 Correlation:  0.1900 VWN1RPA + 0.8100 LYP
 Using SG-1 standard quadrature grid
 using 12 threads for integral computing
 -------------------------------------------------------
 OpenMP Integral computing Module                
 Release: version 1.0, May 2013, Q-Chem Inc. Pittsburgh 
 -------------------------------------------------------
 -------------------------------------------------------
 OpenMP BLAS3 based DFT computing Module                
 Release: version 1.0, May 2013, Q-Chem Inc. Pittsburgh 
 -------------------------------------------------------
 A unrestricted SCF calculation will be
 performed using DIIS
 SCF converges when DIIS error is below 1.0e-06
 Alpha HF Exchange    Energy =  -7.27711877768192
 Beta HF Exchange     Energy =  -7.27711877768192
 DFT Correlation      Energy =  -2.76400870765034
 DFT Exchange         Energy = -57.33764689209531
 One-Electron (alpha) Energy = -980.83613780685482
 One-Electron (beta)  Energy = -980.83613780685482
 Total Coulomb        Energy = 727.93890245602302
 ---------------------------------------
  Cycle       Energy         DIIS error
 ---------------------------------------
    1   -1038.6776229223      2.68e-02  
 Alpha HF Exchange    Energy =  -7.28957066842592
 Beta HF Exchange     Energy =  -7.28957066842592
 DFT Correlation      Energy =  -2.78578570941803
 DFT Exchange         Energy = -57.84872717292237
 One-Electron (alpha) Energy = -984.20248736383610
 One-Electron (beta)  Energy = -984.20248736383564
 Total Coulomb        Energy = 735.65867639764963
    2   -1038.2483091587      2.78e-03  
 Alpha HF Exchange    Energy =  -7.23769966828681
 Beta HF Exchange     Energy =  -7.23769966828680
 DFT Correlation      Energy =  -2.76884682093793
 DFT Exchange         Energy = -57.43902901023377
 One-Electron (alpha) Energy = -980.91921403374033
 One-Electron (beta)  Energy = -980.91921403373976
 Total Coulomb        Energy = 728.59966929206428
    3   -1038.2103905526      3.59e-03  
 Alpha HF Exchange    Energy =  -7.26123325598805
 Beta HF Exchange     Energy =  -7.26123325598804
 DFT Correlation      Energy =  -2.77491038169395
 DFT Exchange         Energy = -57.61276375816227
 One-Electron (alpha) Energy = -982.40839274126870
 One-Electron (beta)  Energy = -982.40839274126813
 Total Coulomb        Energy = 731.71730842380532
    4   -1038.2979743200      1.06e-03  
 Alpha HF Exchange    Energy =  -7.26209403898937
 Beta HF Exchange     Energy =  -7.26209403898938
 DFT Correlation      Energy =  -2.77678745835483
 DFT Exchange         Energy = -57.62897022855174
 One-Electron (alpha) Energy = -982.55273989353282
 One-Electron (beta)  Energy = -982.55273989353316
 Total Coulomb        Energy = 732.01749808032616
    5   -1038.3062840811      2.43e-04  
 Alpha HF Exchange    Energy =  -7.26284716272447
 Beta HF Exchange     Energy =  -7.26284716272446
 DFT Correlation      Energy =  -2.77665435893108
 DFT Exchange         Energy = -57.63329141237018
 One-Electron (alpha) Energy = -982.57635505180349
 One-Electron (beta)  Energy = -982.57635505180315
 Total Coulomb        Energy = 732.06998769147845
    6   -1038.3067191183      6.19e-05  
 Alpha HF Exchange    Energy =  -7.26253965006840
 Beta HF Exchange     Energy =  -7.26253965006840
 DFT Correlation      Energy =  -2.77660485227179
 DFT Exchange         Energy = -57.63087755169476
 One-Electron (alpha) Energy = -982.55832320775130
 One-Electron (beta)  Energy = -982.55832320775119
 Total Coulomb        Energy = 732.03082136495232
    7   -1038.3067433641      1.77e-05  
 Alpha HF Exchange    Energy =  -7.26253311429841
 Beta HF Exchange     Energy =  -7.26253311429841
 DFT Correlation      Energy =  -2.77659492149975
 DFT Exchange         Energy = -57.63078978318040
 One-Electron (alpha) Energy = -982.55740423518125
 One-Electron (beta)  Energy = -982.55740423518091
 Total Coulomb        Energy = 732.02887078646211
    8   -1038.3067452266      3.77e-06  
 Alpha HF Exchange    Energy =  -7.26255748324061
 Beta HF Exchange     Energy =  -7.26255748324061
 DFT Correlation      Energy =  -2.77660401122824
 DFT Exchange         Energy = -57.63098615929872
 One-Electron (alpha) Energy = -982.55973585945537
 One-Electron (beta)  Energy = -982.55973585945549
 Total Coulomb        Energy = 732.03378815180577
    9   -1038.3067453136      8.68e-07  Convergence criterion met
 ---------------------------------------
 SCF time:   CPU 23.41s  wall 2.00s 
<S^2> =         -0.000000000
 Alpha HF Exchange    Energy =  -7.26255748324061
 Beta HF Exchange     Energy =  -7.26255748324061
 DFT Correlation      Energy =  -2.77660401122824
 DFT Exchange         Energy = -57.63098615929872
 One-Electron (alpha) Energy = -982.55973585945537
 One-Electron (beta)  Energy = -982.55973585945549
 Total Coulomb        Energy = 732.03378815180577
 Nuclear repulsion Energy = 269.71164339054206
 SCF   energy in the final basis set =    -1038.3067453136
 Total energy in the final basis set =    -1038.3067453136
 
 --------------------------------------------------------------
 
                    Orbital Energies (a.u.)
 --------------------------------------------------------------
 
 Alpha MOs
 -- Occupied --
*******-101.517 -10.295 -10.289 -10.208  -9.464  -9.429  -7.228
 -7.218  -7.217  -7.193  -7.184  -7.184  -0.889  -0.791  -0.758
 -0.721  -0.609  -0.503  -0.500  -0.464  -0.414  -0.398  -0.390
 -0.335  -0.314  -0.309  -0.284  -0.282
 -- Virtual --
 -0.097   0.006   0.067   0.113   0.127   0.134   0.156   0.168
  0.186   0.215   0.364   0.399   0.417   0.427   0.451   0.452
  0.486   0.493   0.523   0.533   0.558   0.585   0.590   0.652
  0.659   0.713   0.735   0.774   0.815   0.838   0.855   0.869
  0.879   0.886   0.893   0.906   0.916   0.928   0.960   0.983
  0.992   1.026   1.042   1.176   1.300   1.362   1.406   1.524
  1.534   1.715   1.750   1.796   1.817   1.862   1.989   2.019
  2.022   2.036   2.064   2.100   2.235   2.260   2.342   2.379
  2.430   2.523   2.614   2.623   2.640   2.714   2.807   2.853
  2.882   3.185   3.217   3.307   3.376   3.423   3.459   4.169
  4.262   4.299   4.416   4.555
 
 Beta MOs
 -- Occupied --
*******-101.517 -10.295 -10.289 -10.208  -9.464  -9.429  -7.228
 -7.218  -7.217  -7.193  -7.184  -7.184  -0.889  -0.791  -0.758
 -0.721  -0.609  -0.503  -0.500  -0.464  -0.414  -0.398  -0.390
 -0.335  -0.314  -0.309  -0.284  -0.282
 -- Virtual --
 -0.097   0.006   0.067   0.113   0.127   0.134   0.156   0.168
  0.186   0.215   0.364   0.399   0.417   0.427   0.451   0.452
  0.486   0.493   0.523   0.533   0.558   0.585   0.590   0.652
  0.659   0.713   0.735   0.774   0.815   0.838   0.855   0.869
  0.879   0.886   0.893   0.906   0.916   0.928   0.960   0.983
  0.992   1.026   1.042   1.176   1.300   1.362   1.406   1.524
  1.534   1.715   1.750   1.796   1.817   1.862   1.989   2.019
  2.022   2.036   2.064   2.100   2.235   2.260   2.342   2.379
  2.430   2.523   2.614   2.623   2.640   2.714   2.807   2.853
  2.882   3.185   3.217   3.307   3.376   3.423   3.459   4.169
  4.262   4.299   4.416   4.555
 --------------------------------------------------------------
 
          Ground-State Mulliken Net Atomic Charges

     Atom                 Charge (a.u.)    Spin (a.u.)
  --------------------------------------------------------
      1 Cl                   -0.046821      -0.000000
      2 Cl                   -0.282052      -0.000000
      3 C                    -0.189172       0.000000
      4 C                    -0.154808      -0.000000
      5 C                    -0.303170       0.000000
      6 H                     0.176290      -0.000000
      7 H                     0.182303       0.000000
      8 H                     0.193921      -0.000000
      9 H                     0.172033      -0.000000
     10 H                     0.133005      -0.000000
     11 H                     0.118471      -0.000000
  --------------------------------------------------------
  Sum of atomic charges =    -0.000000
  Sum of spin   charges =     0.000000

 -----------------------------------------------------------------
                    Cartesian Multipole Moments
 -----------------------------------------------------------------
    Charge (ESU x 10^10)
                -0.0000
    Dipole Moment (Debye)
         X      -1.9581      Y      -2.0841      Z      -3.2819
       Tot       4.3530
    Quadrupole Moments (Debye-Ang)
        XX     -50.9104     XY       1.7317     YY     -44.7836
        XZ      -3.1813     YZ      -0.1022     ZZ     -42.4669
    Octopole Moments (Debye-Ang^2)
       XXX     -29.8092    XXY      -9.9093    XYY      -5.7761
       YYY     -22.4258    XXZ     -11.8188    XYZ      -0.4243
       YYZ      -7.7821    XZZ      -4.6792    YZZ      -7.6401
       ZZZ     -24.1817
    Hexadecapole Moments (Debye-Ang^3)
      XXXX    -652.8059   XXXY      33.0026   XXYY    -152.8221
      XYYY      24.8768   YYYY    -285.0860   XXXZ     -49.5972
      XXYZ       1.2554   XYYZ     -21.4188   YYYZ       3.2266
      XXZZ    -128.3486   XYZZ      10.2194   YYZZ     -77.6281
      XZZZ     -43.3252   YZZZ      -1.7922   ZZZZ    -177.5615
 -----------------------------------------------------------------
 Calculating analytic gradient of the SCF energy
 Gradient of SCF Energy
            1           2           3           4           5           6
    1   0.0000192   0.0300729   0.0001771  -0.0303899  -0.0000019   0.0000321
    2   0.0000008   0.0029786  -0.0002445  -0.0028785   0.0000137   0.0002036
    3   0.0001191   0.0401230   0.0002187  -0.0396720  -0.0000547  -0.0001047
            7           8           9          10          11
    1   0.0000593   0.0000432   0.0000219  -0.0000099  -0.0000241
    2   0.0000368  -0.0001386   0.0000820  -0.0000413  -0.0000127
    3  -0.0001725  -0.0004187  -0.0000824   0.0000377   0.0000065
 Max gradient component =       4.012E-02
 RMS gradient           =       1.235E-02
 Gradient time:  CPU 9.66 s  wall 0.84 s
 Geometry Optimization Parameters
   NAtoms,    NIC,     NZ,  NCons,   NDum,   NFix, NCnnct, MaxDiis
       11      68       0       1       0       0       0       0

 Cartesian Hessian Update
 Hessian Updated using BFGS Update


** CONSTRAINED OPTIMIZATION IN DELOCALIZED INTERNAL COORDINATES **
   Searching for a Minimum

   Optimization Cycle:   4

                       Coordinates (Angstroms)
     ATOM                X               Y               Z
      1  Cl       -1.2944902371    1.3828286782    0.1780573876
      2  Cl        2.1303830791    0.0956041216    0.8743476827
      3  C        -0.6635297913   -0.1782501563   -0.5092897458
      4  C         0.7500761452   -0.0399452100   -0.9604216363
      5  C        -0.9395011477   -1.3429689230    0.4322191372
      6  H        -1.2311339661   -0.3104558096   -1.4443600118
      7  H         1.1923951438   -0.9348612440   -1.3896582043
      8  H         1.0418937582    0.8924736146   -1.4300704842
      9  H        -0.4042499920   -1.1961211220    1.3711943254
     10  H        -2.0096402806   -1.4278611966    0.6295766349
     11  H        -0.5919057116   -2.2750437530   -0.0267920853
   Point Group: c1    Number of degrees of freedom:    27


   Energy is  -1038.306745314

              Constraints and their Current Values
                                        Value     Constraint
   Distance(Angs):        2   4             2.300000     2.300000
 Hessian Updated using BFGS Update

 25 Hessian modes will be used to form the next step
  Hessian Eigenvalues:
     0.032720    0.045002    0.049897    0.072368    0.078260    0.083739
     0.084509    0.084744    0.117173    0.159620    0.160000    0.160167
     0.162697    0.191398    0.232358    0.238138    0.245785    0.301157
     0.335346    0.337241    0.341648    0.346348    0.347463    0.352248
     0.355523

 Minimum Search - Taking Simple RFO Step
 Searching for Lamda that Minimizes Along All modes
 Value Taken    Lamda =  -0.00000486
 Step Taken.  Stepsize is  0.010140

                             Maximum     Tolerance    Cnvgd?
         Gradient           0.000265      0.000300     YES
         Displacement       0.005430      0.001200      NO
         Energy change     -0.000107      0.000001      NO


 New Cartesian Coordinates Obtained by Inverse Iteration

 Displacement from previous Coordinates is:  0.009661
 ----------------------------------------------------------------
             Standard Nuclear Orientation (Angstroms)
    I     Atom           X                Y                Z
 ----------------------------------------------------------------
    1      Cl     -1.2953535192     1.3831962303     0.1762402638
    2      Cl      2.1316619094     0.0938492676     0.8727129802
    3      C      -0.6638168131    -0.1781359744    -0.5096352820
    4      C       0.7497506421    -0.0397431303    -0.9609919109
    5      C      -0.9393841699    -1.3427359526     0.4324568117
    6      H      -1.2319298694    -0.3118565251    -1.4441508927
    7      H       1.1927985577    -0.9346786977    -1.3891354092
    8      H       1.0421261333     0.8940013403    -1.4273465942
    9      H      -0.4044142074    -1.1963167774     1.3717621801
   10      H      -2.0095623428    -1.4274581123     0.6294452967
   11      H      -0.5915793206    -2.2747226684    -0.0265544434
 ----------------------------------------------------------------
 Nuclear Repulsion Energy =   269.6802802480 hartrees
 There are       29 alpha and       29 beta electrons

                       Distance Matrix (Angstroms)
             Cl(  1)   Cl(  2)   C (  3)   C (  4)   C (  5)   H (  6)
   Cl(  2)  3.727187
   C (  3)  1.818522  3.130426
   C (  4)  2.738705  2.300000  1.490318
   C (  5)  2.760990  3.418907  1.523078  2.548071
   H (  6)  2.345825  4.104413  1.101795  2.057801  2.161007
   H (  7)  3.743507  2.656180  2.189269  1.086512  2.833886  2.504045
   H (  8)  2.876563  2.667884  2.214027  1.083904  3.519694  2.574045
   H (  9)  2.979418  2.888816  2.154910  2.848070  1.090837  3.065358
   H ( 10)  2.935177  4.418517  2.160866  3.474054  1.091450  2.479734
   H ( 11)  3.730522  3.719524  2.152733  2.769020  1.095563  2.504490
             H (  7)   H (  8)   H (  9)   H ( 10)
   H (  8)  1.835275
   H (  9)  3.200328  3.781127
   H ( 10)  3.817409  4.351134  1.783525
   H ( 11)  2.614641  3.830408  1.775748  1.777321
 
 Applying Cartesian multipole field
    Component          Value
    ---------          -----
     (2,0,0)        1.00000E-11
     (0,2,0)        2.00000E-11
     (0,0,2)       -3.00000E-10
 Nucleus-field energy     =    -0.0000000238 hartrees
 Requested basis set is 6-31G(d,p)
 There are 40 shells and 113 basis functions
 A cutoff of  1.0D-14 yielded    787 shell pairs
 There are      6450 function pairs
 Smallest overlap matrix eigenvalue = 5.71E-03
 Guess from superposition of atomic densities
 Warning:  Energy on first SCF cycle will be non-variational
 SAD guess density has 58.000000 electrons

 -----------------------------------------------------------------------
  General SCF calculation program by
  Eric Jon Sundstrom, Paul Horn, Yuezhi Mao, Dmitri Zuev, Alec White,
  David Stuck, Shaama M.S., Shane Yost, Joonho Lee, David Small,
  Daniel Levine, Susi Lehtola, Hugh Burton, Evgeny Epifanovsky
 -----------------------------------------------------------------------
 Exchange:     0.2000 Hartree-Fock + 0.0800 Slater + 0.7200 B88
 Correlation:  0.1900 VWN1RPA + 0.8100 LYP
 Using SG-1 standard quadrature grid
 using 12 threads for integral computing
 -------------------------------------------------------
 OpenMP Integral computing Module                
 Release: version 1.0, May 2013, Q-Chem Inc. Pittsburgh 
 -------------------------------------------------------
 -------------------------------------------------------
 OpenMP BLAS3 based DFT computing Module                
 Release: version 1.0, May 2013, Q-Chem Inc. Pittsburgh 
 -------------------------------------------------------
 A unrestricted SCF calculation will be
 performed using DIIS
 SCF converges when DIIS error is below 1.0e-06
 Alpha HF Exchange    Energy =  -7.27711704272117
 Beta HF Exchange     Energy =  -7.27711704272117
 DFT Correlation      Energy =  -2.76400828856050
 DFT Exchange         Energy = -57.33765103005217
 One-Electron (alpha) Energy = -980.80471608709104
 One-Electron (beta)  Energy = -980.80471608709104
 Total Coulomb        Energy = 727.90746048367066
 ---------------------------------------
  Cycle       Energy         DIIS error
 ---------------------------------------
    1   -1038.6775848704      2.68e-02  
 Alpha HF Exchange    Energy =  -7.28958696056444
 Beta HF Exchange     Energy =  -7.28958696056444
 DFT Correlation      Energy =  -2.78578488115251
 DFT Exchange         Energy = -57.84883006746126
 One-Electron (alpha) Energy = -984.17080149615981
 One-Electron (beta)  Energy = -984.17080149615992
 Total Coulomb        Energy = 735.62681672122744
    2   -1038.2482949167      2.78e-03  
 Alpha HF Exchange    Energy =  -7.23769836301876
 Beta HF Exchange     Energy =  -7.23769836301876
 DFT Correlation      Energy =  -2.76884888056967
 DFT Exchange         Energy = -57.43904201179355
 One-Electron (alpha) Energy = -980.88758677522947
 One-Electron (beta)  Energy = -980.88758677522947
 Total Coulomb        Energy = 728.56797202787800
    3   -1038.2102089168      3.59e-03  
 Alpha HF Exchange    Energy =  -7.26123702376826
 Beta HF Exchange     Energy =  -7.26123702376827
 DFT Correlation      Energy =  -2.77490667329092
 DFT Exchange         Energy = -57.61276802617733
 One-Electron (alpha) Energy = -982.37635123402981
 One-Electron (beta)  Energy = -982.37635123403095
 Total Coulomb        Energy = 731.68461229866773
    4   -1038.2979586923      1.06e-03  
 Alpha HF Exchange    Energy =  -7.26210088872349
 Beta HF Exchange     Energy =  -7.26210088872349
 DFT Correlation      Energy =  -2.77678693650768
 DFT Exchange         Energy = -57.62901598251873
 One-Electron (alpha) Energy = -982.52104370461336
 One-Electron (beta)  Energy = -982.52104370461325
 Total Coulomb        Energy = 731.98552449849637
    5   -1038.3062873831      2.43e-04  
 Alpha HF Exchange    Energy =  -7.26285587523605
 Beta HF Exchange     Energy =  -7.26285587523606
 DFT Correlation      Energy =  -2.77665438871247
 DFT Exchange         Energy = -57.63335161628901
 One-Electron (alpha) Energy = -982.54479252951592
 One-Electron (beta)  Energy = -982.54479252951649
 Total Coulomb        Energy = 732.03830013725474
    6   -1038.3067224531      6.19e-05  
 Alpha HF Exchange    Energy =  -7.26254791275956
 Beta HF Exchange     Energy =  -7.26254791275956
 DFT Correlation      Energy =  -2.77660470238779
 DFT Exchange         Energy = -57.63093374541803
 One-Electron (alpha) Energy = -982.52672148993213
 One-Electron (beta)  Energy = -982.52672148993270
 Total Coulomb        Energy = 731.99905028637488
    7   -1038.3067467427      1.77e-05  
 Alpha HF Exchange    Energy =  -7.26254136905708
 Beta HF Exchange     Energy =  -7.26254136905708
 DFT Correlation      Energy =  -2.77659477343704
 DFT Exchange         Energy = -57.63084593342968
 One-Electron (alpha) Energy = -982.52580094051507
 One-Electron (beta)  Energy = -982.52580094051439
 Total Coulomb        Energy = 731.99709649780755
    8   -1038.3067486041      3.77e-06  
 Alpha HF Exchange    Energy =  -7.26256576073952
 Beta HF Exchange     Energy =  -7.26256576073951
 DFT Correlation      Energy =  -2.77660386932606
 DFT Exchange         Energy = -57.63104247173928
 One-Electron (alpha) Energy = -982.52813452518535
 One-Electron (beta)  Energy = -982.52813452518490
 Total Coulomb        Energy = 732.00201799764602
    9   -1038.3067486911      8.69e-07  Convergence criterion met
 ---------------------------------------
 SCF time:   CPU 23.31s  wall 1.00s 
<S^2> =         -0.000000000
 Alpha HF Exchange    Energy =  -7.26256576073952
 Beta HF Exchange     Energy =  -7.26256576073951
 DFT Correlation      Energy =  -2.77660386932606
 DFT Exchange         Energy = -57.63104247173928
 One-Electron (alpha) Energy = -982.52813452518535
 One-Electron (beta)  Energy = -982.52813452518490
 Total Coulomb        Energy = 732.00201799764602
 Nuclear repulsion Energy = 269.68028022414597
 SCF   energy in the final basis set =    -1038.3067486911
 Total energy in the final basis set =    -1038.3067486911
 
 --------------------------------------------------------------
 
                    Orbital Energies (a.u.)
 --------------------------------------------------------------
 
 Alpha MOs
 -- Occupied --
*******-101.517 -10.295 -10.289 -10.208  -9.464  -9.429  -7.228
 -7.218  -7.218  -7.193  -7.184  -7.184  -0.890  -0.791  -0.758
 -0.721  -0.609  -0.503  -0.500  -0.464  -0.414  -0.398  -0.390
 -0.335  -0.314  -0.309  -0.284  -0.282
 -- Virtual --
 -0.097   0.006   0.067   0.113   0.127   0.134   0.156   0.168
  0.186   0.215   0.364   0.399   0.417   0.427   0.451   0.452
  0.486   0.493   0.523   0.533   0.558   0.585   0.590   0.651
  0.660   0.714   0.734   0.774   0.815   0.838   0.855   0.869
  0.879   0.886   0.893   0.906   0.917   0.928   0.960   0.983
  0.992   1.026   1.042   1.176   1.300   1.362   1.406   1.524
  1.535   1.715   1.749   1.797   1.816   1.863   1.988   2.019
  2.022   2.036   2.064   2.100   2.235   2.261   2.342   2.380
  2.429   2.522   2.614   2.623   2.640   2.714   2.806   2.853
  2.882   3.185   3.218   3.308   3.376   3.422   3.459   4.169
  4.262   4.299   4.416   4.555
 
 Beta MOs
 -- Occupied --
*******-101.517 -10.295 -10.289 -10.208  -9.464  -9.429  -7.228
 -7.218  -7.218  -7.193  -7.184  -7.184  -0.890  -0.791  -0.758
 -0.721  -0.609  -0.503  -0.500  -0.464  -0.414  -0.398  -0.390
 -0.335  -0.314  -0.309  -0.284  -0.282
 -- Virtual --
 -0.097   0.006   0.067   0.113   0.127   0.134   0.156   0.168
  0.186   0.215   0.364   0.399   0.417   0.427   0.451   0.452
  0.486   0.493   0.523   0.533   0.558   0.585   0.590   0.651
  0.660   0.714   0.734   0.774   0.815   0.838   0.855   0.869
  0.879   0.886   0.893   0.906   0.917   0.928   0.960   0.983
  0.992   1.026   1.042   1.176   1.300   1.362   1.406   1.524
  1.535   1.715   1.749   1.797   1.816   1.863   1.988   2.019
  2.022   2.036   2.064   2.100   2.235   2.261   2.342   2.380
  2.429   2.522   2.614   2.623   2.640   2.714   2.806   2.853
[...]
     11  H        -0.5879760665   -2.2733832698   -0.0212985920
   Point Group: c1    Number of degrees of freedom:    27


   Energy is  -1038.306753764

              Constraints and their Current Values
                                        Value     Constraint
   Distance(Angs):        2   4             2.300000     2.300000
 Hessian Updated using BFGS Update

 26 Hessian modes will be used to form the next step
  Hessian Eigenvalues:
     0.003841    0.042331    0.045298    0.072428    0.078583    0.083753
     0.084284    0.084921    0.117903    0.159888    0.159943    0.160096
     0.162472    0.166845    0.192140    0.235848    0.243179    0.247246
     0.301678    0.336832    0.339213    0.341652    0.346501    0.348055
     0.353068    0.357383

 Minimum Search - Taking Simple RFO Step
 Searching for Lamda that Minimizes Along All modes
 Value Taken    Lamda =  -0.00000103
 Step Taken.  Stepsize is  0.011155

                             Maximum     Tolerance    Cnvgd?
         Gradient           0.000160      0.000300     YES
         Displacement       0.005795      0.001200      NO
         Energy change     -0.000002      0.000001      NO


 New Cartesian Coordinates Obtained by Inverse Iteration

 Displacement from previous Coordinates is:  0.014258
 ----------------------------------------------------------------
             Standard Nuclear Orientation (Angstroms)
    I     Atom           X                Y                Z
 ----------------------------------------------------------------
    1      Cl     -1.3018812413     1.3833767409     0.1666130910
    2      Cl      2.1346485999     0.0744152118     0.8715162118
    3      C      -0.6647347278    -0.1789263507    -0.5116246197
    4      C       0.7495328343    -0.0373853057    -0.9612287972
    5      C      -0.9383060643    -1.3404283829     0.4352218342
    6      H      -1.2311241295    -0.3203311416    -1.4458730962
    7      H       1.1903595877    -0.9279979715    -1.4003366693
    8      H       1.0427294742     0.9021017415    -1.4151664434
    9      H      -0.4055278222    -1.1886617136     1.3748308007
   10      H      -2.0086841073    -1.4276039653     0.6302249007
   11      H      -0.5867154036    -2.2731598630    -0.0193742126
 ----------------------------------------------------------------
 Nuclear Repulsion Energy =   269.5378795067 hartrees
 There are       29 alpha and       29 beta electrons

                       Distance Matrix (Angstroms)
             Cl(  1)   Cl(  2)   C (  3)   C (  4)   C (  5)   H (  6)
   Cl(  2)  3.744330
   C (  3)  1.818448  3.132700
   C (  4)  2.738410  2.300000  1.490748
   C (  5)  2.761060  3.411039  1.523301  2.548881
   H (  6)  2.346857  4.105429  1.101641  2.058626  2.159828
   H (  7)  3.742866  2.656658  2.189130  1.086432  2.840879  2.496981
   H (  8)  2.868946  2.665759  2.213695  1.083817  3.518150  2.581801
   H (  9)  2.979702  2.881178  2.155335  2.848996  1.090757  3.064633
   H ( 10)  2.935323  4.413784  2.160837  3.474650  1.091483  2.478071
   H ( 11)  3.730458  3.702785  2.152722  2.769718  1.095564  2.502739
             H (  7)   H (  8)   H (  9)   H ( 10)
   H (  8)  1.836104
   H (  9)  3.211909  3.775291
   H ( 10)  3.821867  4.349975  1.783716
   H ( 11)  2.621929  3.832181  1.775605  1.777340
 
 Applying Cartesian multipole field
    Component          Value
    ---------          -----
     (2,0,0)        1.00000E-11
     (0,2,0)        2.00000E-11
     (0,0,2)       -3.00000E-10
 Nucleus-field energy     =    -0.0000000238 hartrees
 Requested basis set is 6-31G(d,p)
 There are 40 shells and 113 basis functions
 A cutoff of  1.0D-14 yielded    787 shell pairs
 There are      6450 function pairs
 Smallest overlap matrix eigenvalue = 5.71E-03
 Guess from superposition of atomic densities
 Warning:  Energy on first SCF cycle will be non-variational
 SAD guess density has 58.000000 electrons

 -----------------------------------------------------------------------
  General SCF calculation program by
  Eric Jon Sundstrom, Paul Horn, Yuezhi Mao, Dmitri Zuev, Alec White,
  David Stuck, Shaama M.S., Shane Yost, Joonho Lee, David Small,
  Daniel Levine, Susi Lehtola, Hugh Burton, Evgeny Epifanovsky
 -----------------------------------------------------------------------
 Exchange:     0.2000 Hartree-Fock + 0.0800 Slater + 0.7200 B88
 Correlation:  0.1900 VWN1RPA + 0.8100 LYP
 Using SG-1 standard quadrature grid
 using 12 threads for integral computing
 -------------------------------------------------------
 OpenMP Integral computing Module                
 Release: version 1.0, May 2013, Q-Chem Inc. Pittsburgh 
 -------------------------------------------------------
 -------------------------------------------------------
 OpenMP BLAS3 based DFT computing Module                
 Release: version 1.0, May 2013, Q-Chem Inc. Pittsburgh 
 -------------------------------------------------------
 A unrestricted SCF calculation will be
 performed using DIIS
 SCF converges when DIIS error is below 1.0e-06
 Alpha HF Exchange    Energy =  -7.27708095239650
 Beta HF Exchange     Energy =  -7.27708095239650
 DFT Correlation      Energy =  -2.76400243891091
 DFT Exchange         Energy = -57.33758192848522
 One-Electron (alpha) Energy = -980.66239625066510
 One-Electron (beta)  Energy = -980.66239625066510
 Total Coulomb        Energy = 727.76548962105142
 ---------------------------------------
  Cycle       Energy         DIIS error
 ---------------------------------------
    1   -1038.6771696695      2.68e-02  
 Alpha HF Exchange    Energy =  -7.28957837706716
 Beta HF Exchange     Energy =  -7.28957837706716
 DFT Correlation      Energy =  -2.78576828176207
 DFT Exchange         Energy = -57.84875234166711
 One-Electron (alpha) Energy = -984.02485800903321
 One-Electron (beta)  Energy = -984.02485800903287
 Total Coulomb        Energy = 735.47715011914158
    2   -1038.2483637935      2.78e-03  
 Alpha HF Exchange    Energy =  -7.23771100821400
 Beta HF Exchange     Energy =  -7.23771100821399
 DFT Correlation      Energy =  -2.76884701506268
 DFT Exchange         Energy = -57.43915203247936
 One-Electron (alpha) Energy = -980.74637602687471
 One-Electron (beta)  Energy = -980.74637602687505
 Total Coulomb        Energy = 728.42791827268400
    3   -1038.2103753621      3.59e-03  
 Alpha HF Exchange    Energy =  -7.26123601269582
 Beta HF Exchange     Energy =  -7.26123601269583
 DFT Correlation      Energy =  -2.77489783628366
 DFT Exchange         Energy = -57.61275306847826
 One-Electron (alpha) Energy = -982.23201515362462
 One-Electron (beta)  Energy = -982.23201515362564
 Total Coulomb        Energy = 731.53828940002404
    4   -1038.2979843544      1.06e-03  
 Alpha HF Exchange    Energy =  -7.26209939645023
 Beta HF Exchange     Energy =  -7.26209939645024
 DFT Correlation      Energy =  -2.77677601846473
 DFT Exchange         Energy = -57.62899015459863
 One-Electron (alpha) Energy = -982.37694451313371
 One-Electron (beta)  Energy = -982.37694451313450
 Total Coulomb        Energy = 731.83968132552718
    5   -1038.3062931838      2.43e-04  
 Alpha HF Exchange    Energy =  -7.26285502234432
 Beta HF Exchange     Energy =  -7.26285502234432
 DFT Correlation      Energy =  -2.77664400459663
 DFT Exchange         Energy = -57.63333226571974
 One-Electron (alpha) Energy = -982.40068476887154
 One-Electron (beta)  Energy = -982.40068476887132
 Total Coulomb        Energy = 731.89244812951904
    6   -1038.3067282403      6.19e-05  
 Alpha HF Exchange    Energy =  -7.26254597627682
 Beta HF Exchange     Energy =  -7.26254597627682
 DFT Correlation      Energy =  -2.77659380413097
 DFT Exchange         Energy = -57.63090507866639
 One-Electron (alpha) Energy = -982.38252001250351
 One-Electron (beta)  Energy = -982.38252001250373
 Total Coulomb        Energy = 731.85299890850104
    7   -1038.3067524689      1.77e-05  
 Alpha HF Exchange    Energy =  -7.26253987397776
 Beta HF Exchange     Energy =  -7.26253987397776
 DFT Correlation      Energy =  -2.77658401427170
 DFT Exchange         Energy = -57.63082086844900
 One-Electron (alpha) Energy = -982.38163542250004
 One-Electron (beta)  Energy = -982.38163542250027
 Total Coulomb        Energy = 731.85112166939780
    8   -1038.3067543233      3.78e-06  
 Alpha HF Exchange    Energy =  -7.26256424128988
 Beta HF Exchange     Energy =  -7.26256424128988
 DFT Correlation      Energy =  -2.77659310871998
 DFT Exchange         Energy = -57.63101722616663
 One-Electron (alpha) Energy = -982.38396643348767
 One-Electron (beta)  Energy = -982.38396643348779
 Total Coulomb        Energy = 731.85603779082908
    9   -1038.3067544107      8.70e-07  Convergence criterion met
 ---------------------------------------
 SCF time:   CPU 23.26s  wall 2.00s 
<S^2> =         -0.000000000
 Alpha HF Exchange    Energy =  -7.26256424128988
 Beta HF Exchange     Energy =  -7.26256424128988
 DFT Correlation      Energy =  -2.77659310871998
 DFT Exchange         Energy = -57.63101722616663
 One-Electron (alpha) Energy = -982.38396643348767
 One-Electron (beta)  Energy = -982.38396643348779
 Total Coulomb        Energy = 731.85603779082908
 Nuclear repulsion Energy = 269.53787948295235
 SCF   energy in the final basis set =    -1038.3067544107
 Total energy in the final basis set =    -1038.3067544107
 
 --------------------------------------------------------------
 
                    Orbital Energies (a.u.)
 --------------------------------------------------------------
 
 Alpha MOs
 -- Occupied --
*******-101.517 -10.295 -10.289 -10.208  -9.464  -9.429  -7.228
 -7.218  -7.218  -7.193  -7.184  -7.184  -0.890  -0.791  -0.758
 -0.721  -0.609  -0.504  -0.500  -0.464  -0.414  -0.398  -0.390
 -0.335  -0.314  -0.309  -0.284  -0.282
 -- Virtual --
 -0.097   0.006   0.067   0.113   0.128   0.134   0.156   0.168
  0.186   0.215   0.364   0.399   0.416   0.427   0.451   0.452
  0.486   0.494   0.523   0.532   0.559   0.584   0.590   0.651
  0.659   0.714   0.734   0.774   0.814   0.838   0.855   0.869
  0.879   0.886   0.893   0.906   0.916   0.929   0.961   0.983
  0.993   1.026   1.041   1.177   1.300   1.360   1.405   1.524
  1.535   1.715   1.749   1.798   1.816   1.863   1.986   2.018
  2.023   2.037   2.065   2.100   2.235   2.262   2.343   2.381
  2.429   2.521   2.614   2.623   2.640   2.714   2.806   2.852
  2.881   3.186   3.219   3.308   3.375   3.422   3.460   4.169
  4.262   4.298   4.416   4.555
 
 Beta MOs
 -- Occupied --
*******-101.517 -10.295 -10.289 -10.208  -9.464  -9.429  -7.228
 -7.218  -7.218  -7.193  -7.184  -7.184  -0.890  -0.791  -0.758
 -0.721  -0.609  -0.504  -0.500  -0.464  -0.414  -0.398  -0.390
 -0.335  -0.314  -0.309  -0.284  -0.282
 -- Virtual --
 -0.097   0.006   0.067   0.113   0.128   0.134   0.156   0.168
  0.186   0.215   0.364   0.399   0.416   0.427   0.451   0.452
  0.486   0.494   0.523   0.532   0.559   0.584   0.590   0.651
  0.659   0.714   0.734   0.774   0.814   0.838   0.855   0.869
  0.879   0.886   0.893   0.906   0.916   0.929   0.961   0.983
  0.993   1.026   1.041   1.177   1.300   1.360   1.405   1.524
  1.535   1.715   1.749   1.798   1.816   1.863   1.986   2.018
  2.023   2.037   2.065   2.100   2.235   2.262   2.343   2.381
  2.429   2.521   2.614   2.623   2.640   2.714   2.806   2.852
  2.881   3.186   3.219   3.308   3.375   3.422   3.460   4.169
  4.262   4.298   4.416   4.555
 --------------------------------------------------------------
 
          Ground-State Mulliken Net Atomic Charges

     Atom                 Charge (a.u.)    Spin (a.u.)
  --------------------------------------------------------
      1 Cl                   -0.047401       0.000000
      2 Cl                   -0.282760      -0.000000
      3 C                    -0.189395      -0.000000
      4 C                    -0.154973      -0.000000
      5 C                    -0.302845       0.000000
      6 H                     0.176386       0.000000
      7 H                     0.182554       0.000000
      8 H                     0.194664      -0.000000
      9 H                     0.172197      -0.000000
     10 H                     0.132831       0.000000
     11 H                     0.118743      -0.000000
  --------------------------------------------------------
  Sum of atomic charges =     0.000000
  Sum of spin   charges =    -0.000000

 -----------------------------------------------------------------
                    Cartesian Multipole Moments
 -----------------------------------------------------------------
    Charge (ESU x 10^10)
                -0.0000
    Dipole Moment (Debye)
         X      -1.9611      Y      -2.0538      Z      -3.2728
       Tot       4.3331
    Quadrupole Moments (Debye-Ang)
        XX     -50.9577     XY       1.8134     YY     -44.7708
        XZ      -3.1911     YZ      -0.0710     ZZ     -42.4730
    Octopole Moments (Debye-Ang^2)
       XXX     -29.7475    XXY      -9.5702    XYY      -5.7316
       YYY     -21.6595    XXZ     -11.6415    XYZ      -0.4341
       YYZ      -7.6340    XZZ      -4.6512    YZZ      -7.4842
       ZZZ     -23.6527
    Hexadecapole Moments (Debye-Ang^3)
      XXXX    -655.8125   XXXY      35.3394   XXYY    -153.1846
      XYYY      27.0975   YYYY    -284.5643   XXXZ     -50.0094
      XXYZ       1.7146   XYYZ     -21.5682   YYYZ       4.5388
      XXZZ    -128.7747   XYZZ      10.9004   YYZZ     -77.5374
      XZZZ     -43.7501   YZZZ      -0.3288   ZZZZ    -177.1523
 -----------------------------------------------------------------
 Calculating analytic gradient of the SCF energy
 Gradient of SCF Energy
            1           2           3           4           5           6
    1   0.0000202   0.0301835  -0.0000974  -0.0300421   0.0000352  -0.0000132
    2  -0.0000109   0.0024340   0.0000625  -0.0024442  -0.0000002  -0.0000275
    3   0.0000104   0.0398593  -0.0000567  -0.0399761   0.0000276   0.0000409
            7           8           9          10          11
    1  -0.0000433  -0.0000462   0.0000171   0.0000062  -0.0000199
    2  -0.0000197   0.0000185  -0.0000152   0.0000049  -0.0000022
    3   0.0000335   0.0000396   0.0000059   0.0000266  -0.0000110
 Max gradient component =       3.998E-02
 RMS gradient           =       1.232E-02
 Gradient time:  CPU 9.60 s  wall 0.84 s
 Geometry Optimization Parameters
   NAtoms,    NIC,     NZ,  NCons,   NDum,   NFix, NCnnct, MaxDiis
       11      68       0       1       0       0       0       0

 Cartesian Hessian Update
 Hessian Updated using BFGS Update


** CONSTRAINED OPTIMIZATION IN DELOCALIZED INTERNAL COORDINATES **
   Searching for a Minimum

   Optimization Cycle:   9

                       Coordinates (Angstroms)
     ATOM                X               Y               Z
      1  Cl       -1.3018812413    1.3833767409    0.1666130910
      2  Cl        2.1346485999    0.0744152118    0.8715162118
      3  C        -0.6647347278   -0.1789263507   -0.5116246197
      4  C         0.7495328343   -0.0373853057   -0.9612287972
      5  C        -0.9383060643   -1.3404283829    0.4352218342
      6  H        -1.2311241295   -0.3203311416   -1.4458730962
      7  H         1.1903595877   -0.9279979715   -1.4003366693
      8  H         1.0427294742    0.9021017415   -1.4151664434
      9  H        -0.4055278222   -1.1886617136    1.3748308007
     10  H        -2.0086841073   -1.4276039653    0.6302249007
     11  H        -0.5867154036   -2.2731598630   -0.0193742126
   Point Group: c1    Number of degrees of freedom:    27


   Energy is  -1038.306754411

              Constraints and their Current Values
                                        Value     Constraint
   Distance(Angs):        2   4             2.300000     2.300000
 Hessian Updated using BFGS Update

 26 Hessian modes will be used to form the next step
  Hessian Eigenvalues:
     0.004165    0.037871    0.045903    0.072230    0.077773    0.083508
     0.084001    0.084429    0.115657    0.151623    0.159898    0.159972
     0.160199    0.162787    0.190220    0.223592    0.237215    0.245416
     0.300717    0.328530    0.336916    0.341650    0.346502    0.348130
     0.351385    0.354631

 Minimum Search - Taking Simple RFO Step
 Searching for Lamda that Minimizes Along All modes
 Value Taken    Lamda =   0.00000000
 Step Taken.  Stepsize is  0.002167

                             Maximum     Tolerance    Cnvgd?
         Gradient           0.000068      0.000300     YES
         Displacement       0.000932      0.001200     YES
         Energy change     -0.000001      0.000001     YES


                       Distance Matrix (Angstroms)
             Cl(  1)   Cl(  2)   C (  3)   C (  4)   C (  5)   H (  6)
   Cl(  2)  3.744330
   C (  3)  1.818448  3.132700
   C (  4)  2.738410  2.300000  1.490748
   C (  5)  2.761060  3.411039  1.523301  2.548881
   H (  6)  2.346857  4.105429  1.101641  2.058626  2.159828
   H (  7)  3.742866  2.656658  2.189130  1.086432  2.840879  2.496981
   H (  8)  2.868946  2.665759  2.213695  1.083817  3.518150  2.581801
   H (  9)  2.979702  2.881178  2.155335  2.848996  1.090757  3.064633
   H ( 10)  2.935323  4.413784  2.160837  3.474650  1.091483  2.478071
   H ( 11)  3.730458  3.702785  2.152722  2.769718  1.095564  2.502739
             H (  7)   H (  8)   H (  9)   H ( 10)
   H (  8)  1.836104
   H (  9)  3.211909  3.775291
   H ( 10)  3.821867  4.349975  1.783716
   H ( 11)  2.621929  3.832181  1.775605  1.777340
 
 Final energy is   -1038.30675441066     


 ******************************
 **  OPTIMIZATION CONVERGED  **
 ******************************

                       Coordinates (Angstroms)
     ATOM                X               Y               Z
      1  Cl       -1.3018812413    1.3833767409    0.1666130910
      2  Cl        2.1346485999    0.0744152118    0.8715162118
      3  C        -0.6647347278   -0.1789263507   -0.5116246197
      4  C         0.7495328343   -0.0373853057   -0.9612287972
      5  C        -0.9383060643   -1.3404283829    0.4352218342
      6  H        -1.2311241295   -0.3203311416   -1.4458730962
      7  H         1.1903595877   -0.9279979715   -1.4003366693
      8  H         1.0427294742    0.9021017415   -1.4151664434
      9  H        -0.4055278222   -1.1886617136    1.3748308007
     10  H        -2.0086841073   -1.4276039653    0.6302249007
     11  H        -0.5867154036   -2.2731598630   -0.0193742126

Z-matrix Print:
$molecule
0 1
Cl
C  1 1.818448
H  2 1.101641 1 104.266925
C  2 1.490748 1 111.304201 3 111.690051 0
H  4 1.083817 2 117.727324 1 -36.518331 0
H  4 1.086432 2 115.404364 1 -178.643034 0
C  2 1.523301 1 111.120382 3 -118.092883 0
H  7 1.090757 2 109.976194 1 -63.382617 0
H  7 1.091483 2 110.369175 1 57.719270 0
H  7 1.095564 2 109.487978 1 177.352273 0
Cl 4 2.300000 2 109.610094 1 73.456660 0
$end

PES scan, value:    2.3000 energy: -1038.3067544107
------- Summary of potential scan: ------ 
    2.3000     -1038.3067544107
----------------------------------------- 
Archival summary:
1\1\hpc0332\JobtypUnspecified\ProcedureUnspecified\6-31G**\l236\knomura\MonMar1123:27:492019MonMar1123:27:492019\0\\#,JobtypUnspecified,ProcedureUnspecified,6-31G**,\\0,1\Cl\C,1,1.81845\H,2,1.10164,1,104.267\C,2,1.49075,1,111.304,3,111.69,0\H,4,1.08382,2,117.727,1,-36.5183,0\H,4,1.08643,2,115.404,1,-178.643,0\C,2,1.5233,1,111.12,3,-118.093,0\H,7,1.09076,2,109.976,1,-63.3826,0\H,7,1.09148,2,110.369,1,57.7193,0\H,7,1.09556,2,109.488,1,177.352,0\Cl,4,2.3,2,109.61,1,73.4567,0\\\@

 Total job time:  29.88s(wall), 342.10s(cpu) 
 Mon Mar 11 23:27:49 2019

        *************************************************************
        *                                                           *
        *  Thank you very much for using Q-Chem.  Have a nice day.  *
        *                                                           *
        *************************************************************


