
Running Job 1 of 1 ruruma/CH3CHClCH2Cl_afterGeo_edge_singlet.xyz.data/inputs/bond_singlet_2.9.in
qchem ruruma/CH3CHClCH2Cl_afterGeo_edge_singlet.xyz.data/inputs/bond_singlet_2.9.in_21355.0 /staging/scratch/2858534/qchem21355/ 1
/usr/usc/qchem/5.1.1/exe/qcprog.exe_s ruruma/CH3CHClCH2Cl_afterGeo_edge_singlet.xyz.data/inputs/bond_singlet_2.9.in_21355.0 /staging/scratch/2858534/qchem21355/
Check license passed

                  Welcome to Q-Chem
     A Quantum Leap Into The Future Of Chemistry


 Q-Chem 5.1, Q-Chem, Inc., Pleasanton, CA (2018)

 Yihan Shao,  Zhengting Gan,  E. Epifanovsky,  A. T. B. Gilbert,  M. Wormit,  
 J. Kussmann,  A. W. Lange,  A. Behn,  Jia Deng,  Xintian Feng,  D. Ghosh,  
 M. Goldey,  P. R. Horn,  L. D. Jacobson,  I. Kaliman,  T. Kus,  A. Landau,  
 Jie Liu,  E. I. Proynov,  R. M. Richard,  R. P. Steele,  E. J. Sundstrom,  
 H. L. Woodcock III,  P. M. Zimmerman,  D. Zuev,  B. Albrecht,  E. Alguire,  
 S. A. Baeppler,  D. Barton,  Z. Benda,  Y. A. Bernard,  E. J. Berquist,  
 K. B. Bravaya,  H. Burton,  D. Casanova,  Chun-Min Chang,  Yunqing Chen,  
 A. Chien,  K. D. Closser,  M. P. Coons,  S. Coriani,  S. Dasgupta,  
 A. L. Dempwolff,  M. Diedenhofen,  Hainam Do,  R. G. Edgar,  Po-Tung Fang,  
 S. Faraji,  S. Fatehi,  Qingguo Feng,  K. D. Fenk,  J. Fosso-Tande,  
 Qinghui Ge,  A. Ghysels,  G. Gidofalvi,  J. Gomes,  J. Gonthier,  A. Gunina,  
 D. Hait,  M. W. D. Hanson-Heine,  P. H. P. Harbach,  A. W. Hauser,  
 J. E. Herr,  E. G. Hohenstein,  Z. C. Holden,  Kerwin Hui,  B. C. Huynh,  
 T.-C. Jagau,  Hyunjun Ji,  B. Kaduk,  K. Khistyaev,  Jaehoon Kim,  
 P. Klunzinger,  K. Koh,  D. Kosenkov,  L. Koulias,  T. Kowalczyk,  
 C. M. Krauter,  A. Kunitsa,  Ka Un Lao,  A. Laurent,  K. V. Lawler,  
 Joonho Lee,  D. Lefrancois,  S. Lehtola,  D. S. Levine,  Yi-Pei Li,  
 You-Sheng Lin,  Fenglai Liu,  E. Livshits,  A. Luenser,  P. Manohar,  
 E. Mansoor,  S. F. Manzer,  Shan-Ping Mao,  Yuezhi Mao,  N. Mardirossian,  
 A. V. Marenich,  T. Markovich,  L. A. Martinez-Martinez,  S. A. Maurer,  
 N. J. Mayhall,  S. C. McKenzie,  J.-M. Mewes,  A. F. Morrison,  
 J. W. Mullinax,  K. Nanda,  T. S. Nguyen-Beck,  R. Olivares-Amaya,  
 J. A. Parkhill,  T. M. Perrine,  F. Plasser,  P. Pokhilko,  S. Prager,  
 A. Prociuk,  E. Ramos,  D. R. Rehn,  F. Rob,  M. Schneider,  N. Sergueev,  
 S. M. Sharada,  S. Sharma,  D. W. Small,  T. Stauch,  T. Stein,  
 Yu-Chuan Su,  A. J. W. Thom,  A. Tkatchenko,  T. Tsuchimochi,  N. M. Tubman,  
 L. Vogt,  M. L. Vidal,  O. Vydrov,  M. A. Watson,  J. Wenzel,  
 M. de Wergifosse,  T. A. Wesolowski,  A. White,  J. Witte,  A. Yamada,  
 Jun Yang,  K. Yao,  S. Yeganeh,  S. R. Yost,  Zhi-Qiang You,  A. Zech,  
 Igor Ying Zhang,  Xing Zhang,  Yan Zhao,  Ying Zhu,  B. R. Brooks,  
 G. K. L. Chan,  C. J. Cramer,  M. S. Gordon,  W. J. Hehre,  A. Klamt,  
 M. W. Schmidt,  C. D. Sherrill,  D. G. Truhlar,  A. Aspuru-Guzik,  R. Baer,  
 A. T. Bell,  N. A. Besley,  Jeng-Da Chai,  A. E. DePrince, III,  
 R. A. DiStasio Jr.,  A. Dreuw,  B. D. Dunietz,  T. R. Furlani,  
 Chao-Ping Hsu,  Yousung Jung,  Jing Kong,  D. S. Lambrecht,  WanZhen Liang,  
 C. Ochsenfeld,  V. A. Rassolov,  L. V. Slipchenko,  J. E. Subotnik,  
 T. Van Voorhis,  J. M. Herbert,  A. I. Krylov,  P. M. W. Gill,  M. Head-Gordon

 Contributors to earlier versions of Q-Chem not listed above: 
 R. D. Adamson,  B. Austin,  J. Baker,  G. J. O. Beran,  K. Brandhorst,  
 S. T. Brown,  E. F. C. Byrd,  A. K. Chakraborty,  C.-L. Cheng,  
 Siu Hung Chien,  D. M. Chipman,  D. L. Crittenden,  H. Dachsel,  
 R. J. Doerksen,  A. D. Dutoi,  L. Fusti-Molnar,  W. A. Goddard III,  
 A. Golubeva-Zadorozhnaya,  S. R. Gwaltney,  G. Hawkins,  A. Heyden,  
 S. Hirata,  G. Kedziora,  F. J. Keil,  C. Kelley,  Jihan Kim,  R. A. King,  
 R. Z. Khaliullin,  P. P. Korambath,  W. Kurlancheek,  A. M. Lee,  M. S. Lee,  
 S. V. Levchenko,  Ching Yeh Lin,  D. Liotard,  R. C. Lochan,  I. Lotan,  
 P. E. Maslen,  N. Nair,  D. P. O'Neill,  D. Neuhauser,  E. Neuscamman,  
 C. M. Oana,  R. Olson,  B. Peters,  R. Peverati,  P. A. Pieniazek,  
 Y. M. Rhee,  J. Ritchie,  M. A. Rohrdanz,  E. Rosta,  N. J. Russ,  
 H. F. Schaefer III,  N. E. Schultz,  N. Shenvi,  A. C. Simmonett,  A. Sodt,  
 D. Stuck,  K. S. Thanthiriwatte,  V. Vanovschi,  Tao Wang,  A. Warshel,  
 C. F. Williams,  Q. Wu,  X. Xu,  W. Zhang

 Please cite Q-Chem as follows:
 Y. Shao et al., Mol. Phys. 113, 184-215 (2015)
 DOI: 10.1080/00268976.2014.952696

 Q-Chem 5.1.1 for Intel X86 EM64T Linux

 Parts of Q-Chem use Armadillo 8.300.2 (Tropical Shenanigans).
 http://arma.sourceforge.net/

 Q-Chem begins on Mon Mar 11 23:30:27 2019  

Host: 
0

     Scratch files written to /staging/scratch/2858534/qchem21355//
 Aug318 |scratch|qcdevops|jenkins|workspace|build_RNUM 6013   
Processing $rem in /usr/usc/qchem/5.1.1/config/preferences.
 MEM_TOTAL  2000 
Input Ideriv = 2
Curr. Ideriv = -1
Max.  Ideriv = 2

Checking the input file for inconsistencies... 	...done.

--------------------------------------------------------------
User input:
--------------------------------------------------------------

$comment
potential surface scanner
$end

$rem
JOBTYPE  PES_SCAN
UNRESTRICTED TRUE
SYM_IGNORE  TRUE
GEOM_OPT_MAX_CYCLES 400
SCF_MAX_CYCLES 400
METHOD   B3LYP
BASIS   6-31G**
PDB_PRINT 2
SCF_CONVERGENCE 6
THRESH 14
SCF_PRINT 1
$end
$molecule
0 1
Cl -1.376174 1.389287 0.071835
Cl 2.310921 -0.069014 1.171724
C -0.717181 -0.173960 -0.564515
C 0.650167 -0.025147 -1.082155
C -0.911770 -1.317910 0.432606
H -1.318978 -0.382932 -1.469995
H 1.152420 -0.909797 -1.460703
H 1.039316 0.942775 -1.373945
H -0.312242 -1.118998 1.322256
H -1.966745 -1.412887 0.694130
H -0.569435 -2.256019 -0.016437
$end
$scan
stre 2 4 2.900000 2.901000 0.100000
$end
--------------------------------------------------------------
 ----------------------------------------------------------------
             Standard Nuclear Orientation (Angstroms)
    I     Atom           X                Y                Z
 ----------------------------------------------------------------
    1      Cl     -1.3761740000     1.3892870000     0.0718350000
    2      Cl      2.3109210000    -0.0690140000     1.1717240000
    3      C      -0.7171810000    -0.1739600000    -0.5645150000
    4      C       0.6501670000    -0.0251470000    -1.0821550000
    5      C      -0.9117700000    -1.3179100000     0.4326060000
    6      H      -1.3189780000    -0.3829320000    -1.4699950000
    7      H       1.1524200000    -0.9097970000    -1.4607030000
    8      H       1.0393160000     0.9427750000    -1.3739450000
    9      H      -0.3122420000    -1.1189980000     1.3222560000
   10      H      -1.9667450000    -1.4128870000     0.6941300000
   11      H      -0.5694350000    -2.2560190000    -0.0164370000
 ----------------------------------------------------------------
 Nuclear Repulsion Energy =   258.6394358383 hartrees
 There are       29 alpha and       29 beta electrons
 Requested basis set is 6-31G(d,p)
 There are 40 shells and 113 basis functions

 Total QAlloc Memory Limit   2000 MB
 Mega-Array Size       188 MB
 MEM_STATIC part       192 MB
A total of 1 constraints
  
            1
    1   1.0100000
    2   2.0100000
    3   4.0100000
    4   2.9000000
    5   2.9010000
    6   0.1000000
    7   0.0000000
    8   0.0000000
    9   0.0000000
   10   0.0000000

                       Distance Matrix (Angstroms)
             Cl(  1)   Cl(  2)   C (  3)   C (  4)   C (  5)   H (  6)
   Cl(  2)  4.114738
   C (  3)  1.811892  3.492126
   C (  4)  2.727338  2.800000  1.469604
   C (  5)  2.770333  3.534370  1.529947  2.530886
   H (  6)  2.349739  4.500377  1.107124  2.038618  2.158678
   H (  7)  3.745430  2.996450  2.200004  1.085432  2.830557  2.526951
   H (  8)  2.850306  3.020120  2.233284  1.083260  3.490137  2.707079
   H (  9)  2.997832  2.829507  2.148715  2.811393  1.091090  3.058100
   H ( 10)  2.930564  4.509159  2.163455  3.453873  1.091049  2.482709
   H ( 11)  3.734552  3.806727  2.158052  2.756805  1.094934  2.486584
             H (  7)   H (  8)   H (  9)   H ( 10)
   H (  8)  1.858048
   H (  9)  3.151803  3.653371
   H ( 10)  3.824342  4.343096  1.793960
   H ( 11)  2.619733  3.829255  1.775124  1.779959
 
 A cutoff of  1.0D-14 yielded    781 shell pairs
 There are      6385 function pairs
 
 -------------------------------------------------------
 OpenMP Integral Computing Module                       
 Release: version 1.0, May 2013, Q-Chem Inc. Pittsburgh 
 -------------------------------------------------------
 Integral Job Info:
 Integral job number is                      11
 Integral operator is                         1
 short-range coefficients                     0
 long-range coefficients              100000000
 Omega coefficients                           0
 if combine SR and LR in K                    0
 Integral screening is                        0
 Integral computing path is                   2
 max size of driver memory is            800000
 size of driver memory is                593474
 size of scratch memory is             15267112
 max col of scratch BK array               1296
 max len of scratch array in speh3          155
 max len of scratch index in speh4           18
 max int batch size is                      520
 min int batch size is                       52
 fixed nKL is                                52
 max L of basis functions is                  2
 order of int derivative is                   0
 number of shells is                         40
 number of basis is                         113
 number of cartesian basis is               113
 number of contracted shell pairs           781
 number of primitive shell pairs           3171
 maxK2 (contraction) of shell pair           36
 max number of K2 of shell pair               1
 max number of CS2 of shell pair             62
 max number of PS2 of shell pair            372
 mem total for path MDJ                  519084
 -------------------------------------------------------
 Smallest overlap matrix eigenvalue = 5.71E-03

 Scale SEOQF with 1.000000e-01/1.000000e-01/1.000000e-01

 Standard Electronic Orientation quadrupole field applied
 Nucleus-field energy     =     0.0000000044 hartrees
 Guess from superposition of atomic densities
 Warning:  Energy on first SCF cycle will be non-variational
 SAD guess density has 58.000000 electrons

 -----------------------------------------------------------------------
  General SCF calculation program by
  Eric Jon Sundstrom, Paul Horn, Yuezhi Mao, Dmitri Zuev, Alec White,
  David Stuck, Shaama M.S., Shane Yost, Joonho Lee, David Small,
  Daniel Levine, Susi Lehtola, Hugh Burton, Evgeny Epifanovsky
 -----------------------------------------------------------------------
 Exchange:     0.2000 Hartree-Fock + 0.0800 Slater + 0.7200 B88
 Correlation:  0.1900 VWN1RPA + 0.8100 LYP
 Using SG-1 standard quadrature grid
 using 12 threads for integral computing
 -------------------------------------------------------
 OpenMP Integral computing Module                
 Release: version 1.0, May 2013, Q-Chem Inc. Pittsburgh 
 -------------------------------------------------------
 -------------------------------------------------------
 OpenMP BLAS3 based DFT computing Module                
 Release: version 1.0, May 2013, Q-Chem Inc. Pittsburgh 
 -------------------------------------------------------
 A unrestricted SCF calculation will be
 performed using DIIS
 SCF converges when DIIS error is below 1.0e-06
 Alpha HF Exchange    Energy =  -7.26991253413749
 Beta HF Exchange     Energy =  -7.26991253413749
 DFT Correlation      Energy =  -2.75885060062882
 DFT Exchange         Energy = -57.32481663747361
 One-Electron (alpha) Energy = -969.76130182315842
 One-Electron (beta)  Energy = -969.76130182315842
 Total Coulomb        Energy = 716.88327214917138
 ---------------------------------------
  Cycle       Energy         DIIS error
 ---------------------------------------
    1   -1038.6233879609      2.66e-02  
 Alpha HF Exchange    Energy =  -7.29251931838604
 Beta HF Exchange     Energy =  -7.29251931838604
 DFT Correlation      Energy =  -2.78111461654410
 DFT Exchange         Energy = -57.86200225292350
 One-Electron (alpha) Energy = -973.33362818815101
 One-Electron (beta)  Energy = -973.33362818815044
 Total Coulomb        Energy = 725.09832733299152
    2   -1038.1576487069      3.29e-03  
 Alpha HF Exchange    Energy =  -7.23526083684354
 Beta HF Exchange     Energy =  -7.23526083684354
 DFT Correlation      Energy =  -2.76562741590626
 DFT Exchange         Energy = -57.41259201928483
 One-Electron (alpha) Energy = -969.01124599049683
 One-Electron (beta)  Energy = -969.01124599049763
 Total Coulomb        Energy = 716.50100473495445
    3   -1037.5307925122      8.32e-03  
 Alpha HF Exchange    Energy =  -7.25136123343303
 Beta HF Exchange     Energy =  -7.25136123343303
 DFT Correlation      Energy =  -2.76663566430563
 DFT Exchange         Energy = -57.53653475645132
 One-Electron (alpha) Energy = -970.85210013478650
 One-Electron (beta)  Energy = -970.85210013478604
 Total Coulomb        Energy = 719.63980410772183
    4   -1038.2308532068      1.98e-03  
 Alpha HF Exchange    Energy =  -7.25578384029389
 Beta HF Exchange     Energy =  -7.25578384029389
 DFT Correlation      Energy =  -2.77178617476969
 DFT Exchange         Energy = -57.59971733714580
 One-Electron (alpha) Energy = -971.36550504539844
 One-Electron (beta)  Energy = -971.36550504539878
 Total Coulomb        Energy = 720.71318957266112
    5   -1038.2614558680      5.06e-04  
 Alpha HF Exchange    Energy =  -7.25798058231367
 Beta HF Exchange     Energy =  -7.25798058231367
 DFT Correlation      Energy =  -2.77183098431752
 DFT Exchange         Energy = -57.61358318540570
 One-Electron (alpha) Energy = -971.47069819863555
 One-Electron (beta)  Energy = -971.47069819863577
 Total Coulomb        Energy = 720.93988861094454
    6   -1038.2634472780      1.65e-04  
 Alpha HF Exchange    Energy =  -7.25730165586764
 Beta HF Exchange     Energy =  -7.25730165586764
 DFT Correlation      Energy =  -2.77167160471775
 DFT Exchange         Energy = -57.60789769102920
 One-Electron (alpha) Energy = -971.42748018180350
 One-Electron (beta)  Energy = -971.42748018180362
 Total Coulomb        Energy = 720.84611250901355
    7   -1038.2635846194      7.93e-05  
 Alpha HF Exchange    Energy =  -7.25736953699890
 Beta HF Exchange     Energy =  -7.25736953699890
 DFT Correlation      Energy =  -2.77163472052541
 DFT Exchange         Energy = -57.60794987581699
 One-Electron (alpha) Energy = -971.42780253845046
 One-Electron (beta)  Energy = -971.42780253845058
 Total Coulomb        Energy = 720.84686185140083
    8   -1038.2636310532      3.63e-05  
 Alpha HF Exchange    Energy =  -7.25756373060912
 Beta HF Exchange     Energy =  -7.25756373060911
 DFT Correlation      Energy =  -2.77165862121884
 DFT Exchange         Energy = -57.60909816330856
 One-Electron (alpha) Energy = -971.43934179152996
 One-Electron (beta)  Energy = -971.43934179152961
 Total Coulomb        Energy = 720.87148839262045
    9   -1038.2636435935      4.86e-06  
 Alpha HF Exchange    Energy =  -7.25754443709121
 Beta HF Exchange     Energy =  -7.25754443709121
 DFT Correlation      Energy =  -2.77164895402876
 DFT Exchange         Energy = -57.60893386375864
 One-Electron (alpha) Energy = -971.43690829851823
 One-Electron (beta)  Energy = -971.43690829851812
 Total Coulomb        Energy = 720.86640870143810
   10   -1038.2636437449      1.04e-06  
 Alpha HF Exchange    Energy =  -7.25754723390721
 Beta HF Exchange     Energy =  -7.25754723390720
 DFT Correlation      Energy =  -2.77164953501580
 DFT Exchange         Energy = -57.60895125681431
 One-Electron (alpha) Energy = -971.43714059215108
 One-Electron (beta)  Energy = -971.43714059215074
 Total Coulomb        Energy = 720.86689684893020
   11   -1038.2636437523      3.18e-07  Convergence criterion met
 ---------------------------------------
 SCF time:   CPU 29.50s  wall 2.00s 
<S^2> =         -0.000000000
 Alpha HF Exchange    Energy =  -7.25754723390721
 Beta HF Exchange     Energy =  -7.25754723390720
 DFT Correlation      Energy =  -2.77164953501580
 DFT Exchange         Energy = -57.60895125681431
 One-Electron (alpha) Energy = -971.43714059215108
 One-Electron (beta)  Energy = -971.43714059215074
 Total Coulomb        Energy = 720.86689684893020
 Nuclear repulsion Energy = 258.63943584267236
 SCF   energy in the final basis set =    -1038.2636437523
 Total energy in the final basis set =    -1038.2636437523
 
 --------------------------------------------------------------
 
                    Orbital Energies (a.u.)
 --------------------------------------------------------------
 
 Alpha MOs
 -- Occupied --
*******-101.493 -10.315 -10.305 -10.216  -9.476  -9.404  -7.240
 -7.230  -7.230  -7.168  -7.159  -7.159  -0.904  -0.799  -0.739
 -0.727  -0.624  -0.522  -0.511  -0.477  -0.425  -0.410  -0.399
 -0.326  -0.323  -0.287  -0.261  -0.260
 -- Virtual --
 -0.152  -0.007   0.060   0.094   0.125   0.129   0.148   0.168
  0.181   0.209   0.361   0.397   0.407   0.422   0.440   0.455
  0.483   0.491   0.514   0.530   0.543   0.571   0.584   0.637
  0.654   0.713   0.742   0.783   0.798   0.839   0.855   0.861
  0.870   0.891   0.903   0.905   0.931   0.937   0.947   0.966
  0.998   1.002   1.014   1.117   1.236   1.294   1.394   1.489
  1.516   1.684   1.714   1.787   1.816   1.870   1.944   1.995
  2.014   2.026   2.056   2.083   2.227   2.276   2.319   2.383
  2.420   2.495   2.573   2.626   2.634   2.687   2.784   2.842
  2.876   3.183   3.206   3.295   3.369   3.413   3.452   4.154
  4.253   4.298   4.379   4.536
 
 Beta MOs
 -- Occupied --
*******-101.493 -10.315 -10.305 -10.216  -9.476  -9.404  -7.240
 -7.230  -7.230  -7.168  -7.159  -7.159  -0.904  -0.799  -0.739
 -0.727  -0.624  -0.522  -0.511  -0.477  -0.425  -0.410  -0.399
 -0.326  -0.323  -0.287  -0.261  -0.260
 -- Virtual --
 -0.152  -0.007   0.060   0.094   0.125   0.129   0.148   0.168
  0.181   0.209   0.361   0.397   0.407   0.422   0.440   0.455
  0.483   0.491   0.514   0.530   0.543   0.571   0.584   0.637
  0.654   0.713   0.742   0.783   0.798   0.839   0.855   0.861
  0.870   0.891   0.903   0.905   0.931   0.937   0.947   0.966
  0.998   1.002   1.014   1.117   1.236   1.294   1.394   1.489
  1.516   1.684   1.714   1.787   1.816   1.870   1.944   1.995
  2.014   2.026   2.056   2.083   2.227   2.276   2.319   2.383
  2.420   2.495   2.573   2.626   2.634   2.687   2.784   2.842
  2.876   3.183   3.206   3.295   3.369   3.413   3.452   4.154
  4.253   4.298   4.379   4.536
 --------------------------------------------------------------
 
          Ground-State Mulliken Net Atomic Charges

     Atom                 Charge (a.u.)    Spin (a.u.)
  --------------------------------------------------------
      1 Cl                   -0.026200      -0.000000
      2 Cl                   -0.417856      -0.000000
      3 C                    -0.218051      -0.000000
      4 C                    -0.077462       0.000000
      5 C                    -0.303569       0.000000
      6 H                     0.191931      -0.000000
      7 H                     0.193215       0.000000
      8 H                     0.207248       0.000000
      9 H                     0.190783      -0.000000
     10 H                     0.136042       0.000000
     11 H                     0.123919       0.000000
  --------------------------------------------------------
  Sum of atomic charges =    -0.000000
  Sum of spin   charges =    -0.000000

 -----------------------------------------------------------------
                    Cartesian Multipole Moments
 -----------------------------------------------------------------
    Charge (ESU x 10^10)
                 0.0000
    Dipole Moment (Debye)
         X      -3.3103      Y      -1.8146      Z      -4.5458
       Tot       5.9089
    Quadrupole Moments (Debye-Ang)
        XX     -54.0282     XY       2.3832     YY     -44.3051
        XZ      -5.7396     YZ       0.2619     ZZ     -43.1508
    Octopole Moments (Debye-Ang^2)
       XXX     -43.3573    XXY      -6.9588    XYY      -7.6399
       YYY     -16.5625    XXZ     -19.7396    XYZ      -0.4462
       YYZ     -10.1189    XZZ      -9.1305    YZZ      -6.2928
       ZZZ     -33.3415
    Hexadecapole Moments (Debye-Ang^3)
      XXXX    -759.0257   XXXY      54.6118   XXYY    -165.6074
      XYYY      44.6492   YYYY    -279.6767   XXXZ    -105.7382
      XXYZ       5.6397   XYYZ     -36.6413   YYYZ      14.4863
      XXZZ    -157.0738   XYZZ      17.0019   YYZZ     -86.7173
      XZZZ     -89.4749   YZZZ      10.4747   ZZZZ    -234.7269
 -----------------------------------------------------------------
 Calculating analytic gradient of the SCF energy
 Gradient of SCF Energy
            1           2           3           4           5           6
    1   0.0000164   0.0233788  -0.0000297  -0.0232065   0.0000142  -0.0000434
    2  -0.0000208  -0.0005774   0.0000110   0.0006341   0.0000741   0.0000025
    3   0.0000080   0.0317254   0.0000432  -0.0318961  -0.0000203   0.0000439
            7           8           9          10          11
    1  -0.0001169  -0.0001340   0.0000744   0.0000258   0.0000208
    2   0.0000225  -0.0000954  -0.0000624   0.0000171  -0.0000053
    3   0.0000358  -0.0000863   0.0000137   0.0000778   0.0000547
 Max gradient component =       3.190E-02
 RMS gradient           =       9.708E-03
 Gradient time:  CPU 9.66 s  wall 0.85 s
 Geometry Optimization Parameters
   NAtoms,    NIC,     NZ,  NCons,   NDum,   NFix, NCnnct, MaxDiis
       11     101       0       1       0       0       0       0


** CONSTRAINED OPTIMIZATION IN DELOCALIZED INTERNAL COORDINATES **
   Searching for a Minimum

   Optimization Cycle:   1

                       Coordinates (Angstroms)
     ATOM                X               Y               Z
      1  Cl       -1.3761740000    1.3892870000    0.0718350000
      2  Cl        2.3109210000   -0.0690140000    1.1717240000
      3  C        -0.7171810000   -0.1739600000   -0.5645150000
      4  C         0.6501670000   -0.0251470000   -1.0821550000
      5  C        -0.9117700000   -1.3179100000    0.4326060000
      6  H        -1.3189780000   -0.3829320000   -1.4699950000
      7  H         1.1524200000   -0.9097970000   -1.4607030000
      8  H         1.0393160000    0.9427750000   -1.3739450000
      9  H        -0.3122420000   -1.1189980000    1.3222560000
     10  H        -1.9667450000   -1.4128870000    0.6941300000
     11  H        -0.5694350000   -2.2560190000   -0.0164370000
   Point Group: c1    Number of degrees of freedom:    27


   Energy is  -1038.263643752

              Constraints and their Current Values
                                        Value     Constraint
   Distance(Angs):        2   4             2.800000     2.900000

 Attempting to Generate Delocalized Internal Coordinates

   Using Lagrange Multiplier Algorithm


 28 Hessian modes will be used to form the next step
  Hessian Eigenvalues:
    -0.983941    0.028120    0.046503    0.047210    0.052920    0.055216
     0.069433    0.074679    0.075367    0.079546    0.081448    0.087401
     0.101434    0.118378    0.123065    0.135039    0.153301    0.184929
     0.252018    0.275698    0.304796    0.309901    0.322566    0.329065
     0.340592    0.342486    0.346917    1.016322

 Minimum Search - Taking P-RFO Step
 Searching for Lamda that Maximizes Along the Constraint modes Only
 Value Taken    Lamda =   0.02610554
 Searching for Lamda that Minimizes Along All other modes
 Value Taken    Lamda =  -0.01061498
 Step Taken.  Stepsize is  0.185234

                             Maximum     Tolerance    Cnvgd?
         Gradient            0.188973       0.000300      NO
         Displacement        0.185225       0.001200      NO
         Energy change     *********       0.000001      NO


 New Cartesian Coordinates Obtained by Inverse Iteration

 Displacement from previous Coordinates is:  0.186972
 ----------------------------------------------------------------
             Standard Nuclear Orientation (Angstroms)
    I     Atom           X                Y                Z
 ----------------------------------------------------------------
    1      Cl     -1.3909915864     1.3939567439     0.0556202040
    2      Cl      2.3557712170    -0.0836359029     1.2279636848
    3      C      -0.7328066311    -0.1690899180    -0.5821849025
    4      C       0.6281236098    -0.0281623070    -1.0981178710
    5      C      -0.9027854215    -1.3127081780     0.4255482082
    6      H      -1.3424926077    -0.3788835219    -1.4822036108
    7      H       1.1380789565    -0.9026598318    -1.4514269066
    8      H       1.0321701278     0.9237295794    -1.3671438115
    9      H      -0.2883680513    -1.1173441054     1.3238128243
   10      H      -1.9550925963    -1.4090113144     0.6971199308
   11      H      -0.5613080170    -2.2507932438    -0.0241867497
 ----------------------------------------------------------------
 Nuclear Repulsion Energy =   256.6346002305 hartrees
 There are       29 alpha and       29 beta electrons

                       Distance Matrix (Angstroms)
             Cl(  1)   Cl(  2)   C (  3)   C (  4)   C (  5)   H (  6)
   Cl(  2)  4.194747
   C (  3)  1.811938  3.580957
   C (  4)  2.725869  2.898016  1.462251
   C (  5)  2.775108  3.573889  1.533715  2.513026
   H (  6)  2.347385  4.594489  1.107142  2.038101  2.169075
   H (  7)  3.733877  3.054948  2.189502  1.072207  2.802910  2.535453
   H (  8)  2.849050  3.082416  2.219360  1.068516  3.458244  2.710915
   H (  9)  3.021709  2.840636  2.174750  2.809274  1.105692  3.087107
   H ( 10)  2.930249  4.541141  2.160558  3.435495  1.091043  2.487146
   H ( 11)  3.738843  3.843670  2.162004  2.740103  1.094930  2.498021
             H (  7)   H (  8)   H (  9)   H ( 10)
   H (  8)  1.831398
   H (  9)  3.127746  3.626438
   H ( 10)  3.800047  4.315855  1.804379
   H ( 11)  2.596612  3.797407  1.782219  1.780875
 
 Applying Cartesian multipole field
    Component          Value
    ---------          -----
     (2,0,0)        1.00000E-11
     (0,2,0)        2.00000E-11
     (0,0,2)       -3.00000E-11
 Nucleus-field energy     =     0.0000000043 hartrees
 Requested basis set is 6-31G(d,p)
 There are 40 shells and 113 basis functions
 A cutoff of  1.0D-14 yielded    776 shell pairs
 There are      6337 function pairs
 Smallest overlap matrix eigenvalue = 5.69E-03
 Guess from superposition of atomic densities
 Warning:  Energy on first SCF cycle will be non-variational
 SAD guess density has 58.000000 electrons

 -----------------------------------------------------------------------
  General SCF calculation program by
  Eric Jon Sundstrom, Paul Horn, Yuezhi Mao, Dmitri Zuev, Alec White,
  David Stuck, Shaama M.S., Shane Yost, Joonho Lee, David Small,
  Daniel Levine, Susi Lehtola, Hugh Burton, Evgeny Epifanovsky
 -----------------------------------------------------------------------
 Exchange:     0.2000 Hartree-Fock + 0.0800 Slater + 0.7200 B88
 Correlation:  0.1900 VWN1RPA + 0.8100 LYP
 Using SG-1 standard quadrature grid
 using 12 threads for integral computing
 -------------------------------------------------------
 OpenMP Integral computing Module                
 Release: version 1.0, May 2013, Q-Chem Inc. Pittsburgh 
 -------------------------------------------------------
 -------------------------------------------------------
 OpenMP BLAS3 based DFT computing Module                
 Release: version 1.0, May 2013, Q-Chem Inc. Pittsburgh 
 -------------------------------------------------------
 A unrestricted SCF calculation will be
 performed using DIIS
 SCF converges when DIIS error is below 1.0e-06
 Alpha HF Exchange    Energy =  -7.27028531985767
 Beta HF Exchange     Energy =  -7.27028531985767
 DFT Correlation      Energy =  -2.75832219864072
 DFT Exchange         Energy = -57.32610264405000
 One-Electron (alpha) Energy = -967.74642927354398
 One-Electron (beta)  Energy = -967.74642927354398
 Total Coulomb        Energy = 714.85708731400541
 ---------------------------------------
  Cycle       Energy         DIIS error
 ---------------------------------------
    1   -1038.6261664807      2.66e-02  
 Alpha HF Exchange    Energy =  -7.29391799896740
 Beta HF Exchange     Energy =  -7.29391799896740
 DFT Correlation      Energy =  -2.78075065056756
 DFT Exchange         Energy = -57.87048469174654
 One-Electron (alpha) Energy = -971.33282494256855
 One-Electron (beta)  Energy = -971.33282494256878
 Total Coulomb        Energy = 723.12703382876418
    2   -1038.1430871618      3.31e-03  
 Alpha HF Exchange    Energy =  -7.23720419736125
 Beta HF Exchange     Energy =  -7.23720419736125
 DFT Correlation      Energy =  -2.76545245307337
 DFT Exchange         Energy = -57.42116196597493
 One-Electron (alpha) Energy = -966.93136407385884
 One-Electron (beta)  Energy = -966.93136407385907
 Total Coulomb        Energy = 714.47538577867465
    3   -1037.4137649480      8.66e-03  
 Alpha HF Exchange    Energy =  -7.25114772238124
 Beta HF Exchange     Energy =  -7.25114772238123
 DFT Correlation      Energy =  -2.76597823217511
 DFT Exchange         Energy = -57.53508049702419
 One-Electron (alpha) Energy = -968.79237192206710
 One-Electron (beta)  Energy = -968.79237192206699
 Total Coulomb        Energy = 717.53200553816737
    4   -1038.2214922451      2.01e-03  
 Alpha HF Exchange    Energy =  -7.25537118416916
 Beta HF Exchange     Energy =  -7.25537118416915
 DFT Correlation      Energy =  -2.77136988168168
 DFT Exchange         Energy = -57.60086381197767
 One-Electron (alpha) Energy = -969.32044028735834
 One-Electron (beta)  Energy = -969.32044028735834
 Total Coulomb        Energy = 718.63675939125255
    5   -1038.2524970106      6.31e-04  
 Alpha HF Exchange    Energy =  -7.25788573026600
 Beta HF Exchange     Energy =  -7.25788573026600
 DFT Correlation      Energy =  -2.77141167586271
 DFT Exchange         Energy = -57.61610667557296
 One-Electron (alpha) Energy = -969.44160553622794
 One-Electron (beta)  Energy = -969.44160553622828
 Total Coulomb        Energy = 718.89614190293867
    6   -1038.2557587466      1.93e-04  
 Alpha HF Exchange    Energy =  -7.25715730513797
 Beta HF Exchange     Energy =  -7.25715730513797
 DFT Correlation      Energy =  -2.77122571449952
 DFT Exchange         Energy = -57.60991969302349
 One-Electron (alpha) Energy = -969.39324587046929
 One-Electron (beta)  Energy = -969.39324587046951
 Total Coulomb        Energy = 718.79143883561176
    7   -1038.2559126883      1.15e-04  
 Alpha HF Exchange    Energy =  -7.25734798778073
 Beta HF Exchange     Energy =  -7.25734798778073
 DFT Correlation      Energy =  -2.77118888979925
 DFT Exchange         Energy = -57.61056526243424
 One-Electron (alpha) Energy = -969.39901002222348
 One-Electron (beta)  Energy = -969.39901002222382
 Total Coulomb        Energy = 718.80384845288518
    8   -1038.2560214845      4.62e-05  
 Alpha HF Exchange    Energy =  -7.25761933186878
 Beta HF Exchange     Energy =  -7.25761933186878
 DFT Correlation      Energy =  -2.77122128459431
 DFT Exchange         Energy = -57.61214349121141
 One-Electron (alpha) Energy = -969.41424947122925
 One-Electron (beta)  Energy = -969.41424947122937
 Total Coulomb        Energy = 718.83646084944621
    9   -1038.2560412977      7.44e-06  
 Alpha HF Exchange    Energy =  -7.25758120561041
 Beta HF Exchange     Energy =  -7.25758120561040
 DFT Correlation      Energy =  -2.77120922586627
 DFT Exchange         Energy = -57.61187777289981
 One-Electron (alpha) Energy = -969.41069376707549
 One-Electron (beta)  Energy = -969.41069376707526
 Total Coulomb        Energy = 718.82899496592427
   10   -1038.2560417434      1.33e-06  
 Alpha HF Exchange    Energy =  -7.25758269587092
 Beta HF Exchange     Energy =  -7.25758269587091
 DFT Correlation      Energy =  -2.77120982085660
 DFT Exchange         Energy = -57.61188711145005
 One-Electron (alpha) Energy = -969.41087160401685
 One-Electron (beta)  Energy = -969.41087160401651
 Total Coulomb        Energy = 718.82936354326159
   11   -1038.2560417540      4.75e-07  Convergence criterion met
 ---------------------------------------
 SCF time:   CPU 28.48s  wall 3.00s 
<S^2> =          0.000000000
 Alpha HF Exchange    Energy =  -7.25758269587092
 Beta HF Exchange     Energy =  -7.25758269587091
 DFT Correlation      Energy =  -2.77120982085660
 DFT Exchange         Energy = -57.61188711145005
 One-Electron (alpha) Energy = -969.41087160401685
 One-Electron (beta)  Energy = -969.41087160401651
 Total Coulomb        Energy = 718.82936354326159
 Nuclear repulsion Energy = 256.63460023483623
 SCF   energy in the final basis set =    -1038.2560417540
 Total energy in the final basis set =    -1038.2560417540
 
 --------------------------------------------------------------
 
                    Orbital Energies (a.u.)
 --------------------------------------------------------------
 
 Alpha MOs
 -- Occupied --
*******-101.489 -10.315 -10.307 -10.220  -9.478  -9.401  -7.242
 -7.232  -7.232  -7.164  -7.156  -7.156  -0.907  -0.802  -0.739
 -0.724  -0.629  -0.526  -0.515  -0.480  -0.427  -0.412  -0.399
 -0.328  -0.325  -0.281  -0.258  -0.257
 -- Virtual --
 -0.159  -0.010   0.060   0.094   0.123   0.131   0.147   0.164
  0.182   0.208   0.360   0.394   0.405   0.421   0.439   0.457
  0.481   0.490   0.513   0.527   0.537   0.571   0.581   0.634
  0.656   0.709   0.743   0.784   0.803   0.840   0.853   0.865
  0.869   0.890   0.904   0.910   0.934   0.939   0.945   0.962
  0.996   0.996   1.011   1.098   1.222   1.291   1.392   1.488
  1.515   1.682   1.707   1.784   1.815   1.875   1.953   1.995
  2.008   2.027   2.045   2.080   2.227   2.283   2.314   2.381
  2.432   2.501   2.574   2.623   2.636   2.683   2.805   2.829
  2.874   3.169   3.216   3.313   3.387   3.411   3.447   4.153
  4.246   4.298   4.375   4.533
 
 Beta MOs
 -- Occupied --
*******-101.489 -10.315 -10.307 -10.220  -9.478  -9.401  -7.242
 -7.232  -7.232  -7.164  -7.156  -7.156  -0.907  -0.802  -0.739
 -0.724  -0.629  -0.526  -0.515  -0.480  -0.427  -0.412  -0.399
 -0.328  -0.325  -0.281  -0.258  -0.257
 -- Virtual --
 -0.159  -0.010   0.060   0.094   0.123   0.131   0.147   0.164
  0.182   0.208   0.360   0.394   0.405   0.421   0.439   0.457
  0.481   0.490   0.513   0.527   0.537   0.571   0.581   0.634
  0.656   0.709   0.743   0.784   0.803   0.840   0.853   0.865
  0.869   0.890   0.904   0.910   0.934   0.939   0.945   0.962
  0.996   0.996   1.011   1.098   1.222   1.291   1.392   1.488
  1.515   1.682   1.707   1.784   1.815   1.875   1.953   1.995
  2.008   2.027   2.045   2.080   2.227   2.283   2.314   2.381
  2.432   2.501   2.574   2.623   2.636   2.683   2.805   2.829
  2.874   3.169   3.216   3.313   3.387   3.411   3.447   4.153
  4.246   4.298   4.375   4.533
 --------------------------------------------------------------
 
          Ground-State Mulliken Net Atomic Charges

     Atom                 Charge (a.u.)    Spin (a.u.)
  --------------------------------------------------------
      1 Cl                   -0.022796       0.000000
      2 Cl                   -0.432212       0.000000
      3 C                    -0.223942      -0.000000
      4 C                    -0.068502      -0.000000
      5 C                    -0.305371       0.000000
      6 H                     0.195673       0.000000
      7 H                     0.194960       0.000000
      8 H                     0.207866      -0.000000
      9 H                     0.192474      -0.000000
     10 H                     0.136580      -0.000000
     11 H                     0.125270       0.000000
  --------------------------------------------------------
  Sum of atomic charges =     0.000000
  Sum of spin   charges =     0.000000

 -----------------------------------------------------------------
                    Cartesian Multipole Moments
 -----------------------------------------------------------------
    Charge (ESU x 10^10)
                 0.0000
    Dipole Moment (Debye)
         X      -3.5537      Y      -1.7919      Z      -4.7554
       Tot       6.2010
    Quadrupole Moments (Debye-Ang)
        XX     -54.6325     XY       2.4291     YY     -44.2957
        XZ      -6.1616     YZ       0.3266     ZZ     -43.3451
    Octopole Moments (Debye-Ang^2)
       XXX     -46.3599    XXY      -6.6124    XYY      -8.0717
       YYY     -16.2079    XXZ     -21.5491    XYZ      -0.3998
       YYZ     -10.4451    XZZ     -10.4090    YZZ      -6.2056
       ZZZ     -35.3501
    Hexadecapole Moments (Debye-Ang^3)
      XXXX    -784.2027   XXXY      57.9513   XXYY    -169.1453
      XYYY      47.4368   YYYY    -279.7486   XXXZ    -118.3923
      XXYZ       6.4516   XYYZ     -39.8856   YYYZ      16.0223
      XXZZ    -164.0970   XYZZ      18.1242   YYZZ     -88.9406
      XZZZ     -99.9709   YZZZ      11.9869   ZZZZ    -247.2009
 -----------------------------------------------------------------
 Calculating analytic gradient of the SCF energy
 Gradient of SCF Energy
            1           2           3           4           5           6
    1  -0.0001132   0.0221744  -0.0003975  -0.0169040  -0.0019876   0.0000621
    2   0.0001239  -0.0005625   0.0008709   0.0005563  -0.0007475   0.0012108
    3   0.0001562   0.0293858  -0.0038811  -0.0330016  -0.0064183  -0.0003481
            7           8           9          10          11
    1  -0.0039330  -0.0039788   0.0047411   0.0000287   0.0003079
    2   0.0083540  -0.0101989  -0.0001481   0.0006542  -0.0001131
    3   0.0031548   0.0025940   0.0083011  -0.0003232   0.0003804
 Max gradient component =       3.300E-02
 RMS gradient           =       9.705E-03
 Gradient time:  CPU 9.47 s  wall 0.83 s
 Geometry Optimization Parameters
   NAtoms,    NIC,     NZ,  NCons,   NDum,   NFix, NCnnct, MaxDiis
       11     101       0       1       0       0       0       0

 Cartesian Hessian Update
 Hessian Updated using BFGS Update


** CONSTRAINED OPTIMIZATION IN DELOCALIZED INTERNAL COORDINATES **
   Searching for a Minimum

   Optimization Cycle:   2

                       Coordinates (Angstroms)
     ATOM                X               Y               Z
      1  Cl       -1.3909915864    1.3939567439    0.0556202040
      2  Cl        2.3557712170   -0.0836359029    1.2279636848
      3  C        -0.7328066311   -0.1690899180   -0.5821849025
      4  C         0.6281236098   -0.0281623070   -1.0981178710
      5  C        -0.9027854215   -1.3127081780    0.4255482082
      6  H        -1.3424926077   -0.3788835219   -1.4822036108
      7  H         1.1380789565   -0.9026598318   -1.4514269066
      8  H         1.0321701278    0.9237295794   -1.3671438115
      9  H        -0.2883680513   -1.1173441054    1.3238128243
     10  H        -1.9550925963   -1.4090113144    0.6971199308
     11  H        -0.5613080170   -2.2507932438   -0.0241867497
   Point Group: c1    Number of degrees of freedom:    27


   Energy is  -1038.256041754

              Constraints and their Current Values
                                        Value     Constraint
   Distance(Angs):        2   4             2.898016     2.900000
 Hessian Updated using BFGS Update

   Using Lagrange Multiplier Algorithm


 28 Hessian modes will be used to form the next step
  Hessian Eigenvalues:
    -0.993505    0.028328    0.046543    0.047293    0.052950    0.055231
     0.069636    0.074754    0.076004    0.079585    0.081476    0.087402
     0.101524    0.118651    0.123074    0.135056    0.162376    0.187053
     0.252028    0.275879    0.304892    0.322234    0.329064    0.339754
     0.342486    0.346913    0.744300    1.024564

 Minimum Search - Taking P-RFO Step
 Searching for Lamda that Maximizes Along the Constraint modes Only
 Value Taken    Lamda =   0.00000273
 Searching for Lamda that Minimizes Along All other modes
 Value Taken    Lamda =  -0.00040226
 Step Taken.  Stepsize is  0.026513

                             Maximum     Tolerance    Cnvgd?
         Gradient            0.011560       0.000300      NO
         Displacement        0.016372       0.001200      NO
         Energy change      0.007602       0.000001      NO


 New Cartesian Coordinates Obtained by Inverse Iteration

 Displacement from previous Coordinates is:  0.026405
 ----------------------------------------------------------------
             Standard Nuclear Orientation (Angstroms)
    I     Atom           X                Y                Z
 ----------------------------------------------------------------
    1      Cl     -1.3901896292     1.3929641276     0.0569796723
    2      Cl      2.3580346632    -0.0821031605     1.2283578453
    3      C      -0.7319245674    -0.1701018702    -0.5803320966
    4      C       0.6292365537    -0.0267804292    -1.0993431258
    5      C      -0.9051900000    -1.3134059823     0.4264118494
    6      H      -1.3425829493    -0.3823075297    -1.4791246443
    7      H       1.1419235635    -0.9053524670    -1.4541558709
    8      H       1.0351590203     0.9306840282    -1.3690956107
    9      H      -0.2922668869    -1.1165289928     1.3195855537
   10      H      -1.9572785927    -1.4099956036     0.6990696950
   11      H      -0.5646221753    -2.2516741205    -0.0235522674
 ----------------------------------------------------------------
 Nuclear Repulsion Energy =   256.5324086917 hartrees
 There are       29 alpha and       29 beta electrons

                       Distance Matrix (Angstroms)
             Cl(  1)   Cl(  2)   C (  3)   C (  4)   C (  5)   H (  6)
   Cl(  2)  4.194894
   C (  3)  1.811810  3.581473
   C (  4)  2.725957  2.899999  1.463787
   C (  5)  2.774192  3.578807  1.533199  2.517498
   H (  6)  2.348078  4.595123  1.107142  2.039290  2.165485
   H (  7)  3.738634  3.058193  2.194418  1.077325  2.809576  2.539089
   H (  8)  2.851265  3.085855  2.226311  1.074373  3.467671  2.718402
   H (  9)  3.016150  2.846482  2.167651  2.808547  1.100997  3.078153
   H ( 10)  2.930947  4.545918  2.162336  3.440586  1.091129  2.485664
   H ( 11)  3.737838  3.849187  2.161235  2.744590  1.094898  2.493681
             H (  7)   H (  8)   H (  9)   H ( 10)
   H (  8)  1.841104
   H (  9)  3.129719  3.630723
   H ( 10)  3.807374  4.325595  1.800952
   H ( 11)  2.602212  3.807518  1.779537  1.780477
 
 Applying Cartesian multipole field
    Component          Value
    ---------          -----
     (2,0,0)        1.00000E-11
     (0,2,0)        2.00000E-11
     (0,0,2)       -3.00000E-11
 Nucleus-field energy     =     0.0000000043 hartrees
 Requested basis set is 6-31G(d,p)
 There are 40 shells and 113 basis functions
 A cutoff of  1.0D-14 yielded    775 shell pairs
 There are      6336 function pairs
 Smallest overlap matrix eigenvalue = 5.70E-03
 Guess from superposition of atomic densities
 Warning:  Energy on first SCF cycle will be non-variational
 SAD guess density has 58.000000 electrons

 -----------------------------------------------------------------------
  General SCF calculation program by
  Eric Jon Sundstrom, Paul Horn, Yuezhi Mao, Dmitri Zuev, Alec White,
  David Stuck, Shaama M.S., Shane Yost, Joonho Lee, David Small,
  Daniel Levine, Susi Lehtola, Hugh Burton, Evgeny Epifanovsky
 -----------------------------------------------------------------------
 Exchange:     0.2000 Hartree-Fock + 0.0800 Slater + 0.7200 B88
 Correlation:  0.1900 VWN1RPA + 0.8100 LYP
 Using SG-1 standard quadrature grid
 using 12 threads for integral computing
 -------------------------------------------------------
 OpenMP Integral computing Module                
 Release: version 1.0, May 2013, Q-Chem Inc. Pittsburgh 
 -------------------------------------------------------
 -------------------------------------------------------
 OpenMP BLAS3 based DFT computing Module                
 Release: version 1.0, May 2013, Q-Chem Inc. Pittsburgh 
 -------------------------------------------------------
 A unrestricted SCF calculation will be
 performed using DIIS
 SCF converges when DIIS error is below 1.0e-06
 Alpha HF Exchange    Energy =  -7.26976656794393
 Beta HF Exchange     Energy =  -7.26976656794393
 DFT Correlation      Energy =  -2.75818259725774
 DFT Exchange         Energy = -57.32497077139960
 One-Electron (alpha) Energy = -967.64863331668118
 One-Electron (beta)  Energy = -967.64863331668118
 Total Coulomb        Energy = 714.76498475051062
 ---------------------------------------
  Cycle       Energy         DIIS error
 ---------------------------------------
    1   -1038.6225596914      2.66e-02  
 Alpha HF Exchange    Energy =  -7.29367893649164
 Beta HF Exchange     Energy =  -7.29367893649164
 DFT Correlation      Energy =  -2.78059387922145
 DFT Exchange         Energy = -57.86841696884233
 One-Electron (alpha) Energy = -971.23748712795543
 One-Electron (beta)  Energy = -971.23748712795566
 Total Coulomb        Energy = 723.03683987653051
    2   -1038.1420944045      3.33e-03  
 Alpha HF Exchange    Energy =  -7.23701198947985
 Beta HF Exchange     Energy =  -7.23701198947986
 DFT Correlation      Energy =  -2.76532584752934
 DFT Exchange         Energy = -57.41958958862666
 One-Electron (alpha) Energy = -966.82680355738398
 One-Electron (beta)  Energy = -966.82680355738466
 Total Coulomb        Energy = 714.37511535472049
    3   -1037.4050224792      8.71e-03  
 Alpha HF Exchange    Energy =  -7.25077541161339
 Beta HF Exchange     Energy =  -7.25077541161339
 DFT Correlation      Energy =  -2.76580550554148
 DFT Exchange         Energy = -57.53243392924740
 One-Electron (alpha) Energy = -968.69082819515461
 One-Electron (beta)  Energy = -968.69082819515472
 Total Coulomb        Energy = 717.42733299580289
    4   -1038.2217049566      2.01e-03  
 Alpha HF Exchange    Energy =  -7.25502961412866
 Beta HF Exchange     Energy =  -7.25502961412866
 DFT Correlation      Energy =  -2.77122030006815
 DFT Exchange         Energy = -57.59857194452006
 One-Electron (alpha) Energy = -969.22142599218535
 One-Electron (beta)  Energy = -969.22142599218500
 Total Coulomb        Energy = 718.53775165817274
    5   -1038.2525431031      6.40e-04  
 Alpha HF Exchange    Energy =  -7.25755671917307
 Beta HF Exchange     Energy =  -7.25755671917306
 DFT Correlation      Energy =  -2.77125705507784
 DFT Exchange         Energy = -57.61381645521916
 One-Electron (alpha) Energy = -969.34301293769886
 One-Electron (beta)  Energy = -969.34301293769863
 Total Coulomb        Energy = 718.79788902292387
    6   -1038.2559151052      1.94e-04  
 Alpha HF Exchange    Energy =  -7.25682205111644
 Beta HF Exchange     Energy =  -7.25682205111644
 DFT Correlation      Energy =  -2.77106796826618
 DFT Exchange         Energy = -57.60757548506977
 One-Electron (alpha) Energy = -969.29423435433876
 One-Electron (beta)  Energy = -969.29423435433887
 Total Coulomb        Energy = 718.69227773127727
    7   -1038.2560698370      1.16e-04  
 Alpha HF Exchange    Energy =  -7.25701905077399
 Beta HF Exchange     Energy =  -7.25701905077400
 DFT Correlation      Energy =  -2.77103066020123
 DFT Exchange         Energy = -57.60824768226992
 One-Electron (alpha) Energy = -969.30021481830875
 One-Electron (beta)  Energy = -969.30021481830943
 Total Coulomb        Energy = 718.70515496846940
    8   -1038.2561824162      4.61e-05  
 Alpha HF Exchange    Energy =  -7.25729231811033
 Beta HF Exchange     Energy =  -7.25729231811033
 DFT Correlation      Energy =  -2.77106363679761
 DFT Exchange         Energy = -57.60984089577954
 One-Electron (alpha) Energy = -969.31559769478997
 One-Electron (beta)  Energy = -969.31559769479054
 Total Coulomb        Energy = 718.73807378320612
    9   -1038.2562020792      7.56e-06  
 Alpha HF Exchange    Energy =  -7.25725325517148
 Beta HF Exchange     Energy =  -7.25725325517148
 DFT Correlation      Energy =  -2.77105155595866
 DFT Exchange         Energy = -57.60957068861958
 One-Electron (alpha) Energy = -969.31200072549802
 One-Electron (beta)  Energy = -969.31200072549780
 Total Coulomb        Energy = 718.73051896388483
   10   -1038.2562025461      1.33e-06  
 Alpha HF Exchange    Energy =  -7.25725467414511
 Beta HF Exchange     Energy =  -7.25725467414511
 DFT Correlation      Energy =  -2.77105215789910
 DFT Exchange         Energy = -57.60957966208281
 One-Electron (alpha) Energy = -969.31217523121040
 One-Electron (beta)  Energy = -969.31217523121006
 Total Coulomb        Energy = 718.73088037803643
   11   -1038.2562025567      4.76e-07  Convergence criterion met
 ---------------------------------------
 SCF time:   CPU 28.49s  wall 2.00s 
<S^2> =          0.000000000
 Alpha HF Exchange    Energy =  -7.25725467414511
 Beta HF Exchange     Energy =  -7.25725467414511
 DFT Correlation      Energy =  -2.77105215789910
 DFT Exchange         Energy = -57.60957966208281
 One-Electron (alpha) Energy = -969.31217523121040
 One-Electron (beta)  Energy = -969.31217523121006
 Total Coulomb        Energy = 718.73088037803643
 Nuclear repulsion Energy = 256.53240869595294
 SCF   energy in the final basis set =    -1038.2562025567
 Total energy in the final basis set =    -1038.2562025567
 
 --------------------------------------------------------------
 
                    Orbital Energies (a.u.)
 --------------------------------------------------------------
 
 Alpha MOs
 -- Occupied --
*******-101.489 -10.316 -10.307 -10.219  -9.478  -9.401  -7.242
 -7.232  -7.232  -7.164  -7.156  -7.156  -0.907  -0.802  -0.739
 -0.724  -0.628  -0.525  -0.515  -0.480  -0.427  -0.412  -0.400
 -0.328  -0.325  -0.280  -0.258  -0.257
 -- Virtual --
 -0.159  -0.010   0.060   0.093   0.123   0.130   0.147   0.165
  0.181   0.207   0.361   0.394   0.405   0.421   0.439   0.456
  0.481   0.490   0.513   0.527   0.537   0.571   0.581   0.634
  0.655   0.708   0.742   0.784   0.802   0.840   0.853   0.863
  0.869   0.890   0.904   0.910   0.934   0.939   0.945   0.962
  0.996   0.996   1.011   1.098   1.222   1.291   1.392   1.487
  1.514   1.680   1.708   1.784   1.815   1.873   1.948   1.993
  2.009   2.025   2.048   2.079   2.228   2.281   2.314   2.378
  2.429   2.499   2.570   2.623   2.635   2.683   2.797   2.832
  2.874   3.173   3.211   3.304   3.381   3.411   3.446   4.152
  4.246   4.298   4.376   4.533
 
 Beta MOs
 -- Occupied --
*******-101.489 -10.316 -10.307 -10.219  -9.478  -9.401  -7.242
 -7.232  -7.232  -7.164  -7.156  -7.156  -0.907  -0.802  -0.739
 -0.724  -0.628  -0.525  -0.515  -0.480  -0.427  -0.412  -0.400
 -0.328  -0.325  -0.280  -0.258  -0.257
 -- Virtual --
 -0.159  -0.010   0.060   0.093   0.123   0.130   0.147   0.165
  0.181   0.207   0.361   0.394   0.405   0.421   0.439   0.456
  0.481   0.490   0.513   0.527   0.537   0.571   0.581   0.634
  0.655   0.708   0.742   0.784   0.802   0.840   0.853   0.863
  0.869   0.890   0.904   0.910   0.934   0.939   0.945   0.962
  0.996   0.996   1.011   1.098   1.222   1.291   1.392   1.487
  1.514   1.680   1.708   1.784   1.815   1.873   1.948   1.993
  2.009   2.025   2.048   2.079   2.228   2.281   2.314   2.378
  2.429   2.499   2.570   2.623   2.635   2.683   2.797   2.832
  2.874   3.173   3.211   3.304   3.381   3.411   3.446   4.152
  4.246   4.298   4.376   4.533
 --------------------------------------------------------------
 
          Ground-State Mulliken Net Atomic Charges

     Atom                 Charge (a.u.)    Spin (a.u.)
  --------------------------------------------------------
      1 Cl                   -0.022847      -0.000000
      2 Cl                   -0.432603       0.000000
      3 C                    -0.223443      -0.000000
      4 C                    -0.069605       0.000000
      5 C                    -0.305259      -0.000000
      6 H                     0.195537      -0.000000
      7 H                     0.195059      -0.000000
      8 H                     0.208470       0.000000
      9 H                     0.192719       0.000000
     10 H                     0.136786      -0.000000
     11 H                     0.125186       0.000000
  --------------------------------------------------------
  Sum of atomic charges =     0.000000
  Sum of spin   charges =    -0.000000

 -----------------------------------------------------------------
                    Cartesian Multipole Moments
 -----------------------------------------------------------------
    Charge (ESU x 10^10)
                 0.0000
    Dipole Moment (Debye)
         X      -3.5604      Y      -1.7935      Z      -4.7598
       Tot       6.2088
    Quadrupole Moments (Debye-Ang)
        XX     -54.6479     XY       2.4428     YY     -44.2765
        XZ      -6.1973     YZ       0.3209     ZZ     -43.3682
    Octopole Moments (Debye-Ang^2)
       XXX     -46.6009    XXY      -6.6572    XYY      -8.1175
       YYY     -16.2365    XXZ     -21.6011    XYZ      -0.4037
       YYZ     -10.4985    XZZ     -10.4475    YZZ      -6.2050
       ZZZ     -35.3935
    Hexadecapole Moments (Debye-Ang^3)
      XXXX    -785.4411   XXXY      57.6141   XXYY    -169.2252
      XYYY      47.1421   YYYY    -279.6222   XXXZ    -118.4719
      XXYZ       6.3802   XYYZ     -39.9135   YYYZ      15.8821
      XXZZ    -164.3135   XYZZ      18.0262   YYZZ     -88.9181
      XZZZ     -99.9807   YZZZ      11.8857   ZZZZ    -247.5185
 -----------------------------------------------------------------
 Calculating analytic gradient of the SCF energy
 Gradient of SCF Energy
            1           2           3           4           5           6
    1  -0.0000661   0.0222003  -0.0003696  -0.0193375  -0.0013640  -0.0000390
    2   0.0000810  -0.0005345   0.0005417   0.0003881  -0.0003713   0.0008682
    3   0.0001436   0.0293477  -0.0028897  -0.0314391  -0.0044760  -0.0001292
            7           8           9          10          11
    1  -0.0022255  -0.0021967   0.0031808  -0.0000081   0.0002255
    2   0.0051844  -0.0062274  -0.0002394   0.0003831  -0.0000738
    3   0.0020141   0.0015277   0.0056968  -0.0001183   0.0003223
 Max gradient component =       3.144E-02
 RMS gradient           =       9.331E-03
 Gradient time:  CPU 9.45 s  wall 0.83 s
 Geometry Optimization Parameters
   NAtoms,    NIC,     NZ,  NCons,   NDum,   NFix, NCnnct, MaxDiis
       11     101       0       1       0       0       0       0

 Cartesian Hessian Update
 Hessian Updated using BFGS Update


** CONSTRAINED OPTIMIZATION IN DELOCALIZED INTERNAL COORDINATES **
   Searching for a Minimum

   Optimization Cycle:   3

                       Coordinates (Angstroms)
     ATOM                X               Y               Z
      1  Cl       -1.3901896292    1.3929641276    0.0569796723
      2  Cl        2.3580346632   -0.0821031605    1.2283578453
      3  C        -0.7319245674   -0.1701018702   -0.5803320966
      4  C         0.6292365537   -0.0267804292   -1.0993431258
      5  C        -0.9051900000   -1.3134059823    0.4264118494
      6  H        -1.3425829493   -0.3823075297   -1.4791246443
      7  H         1.1419235635   -0.9053524670   -1.4541558709
      8  H         1.0351590203    0.9306840282   -1.3690956107
      9  H        -0.2922668869   -1.1165289928    1.3195855537
     10  H        -1.9572785927   -1.4099956036    0.6990696950
     11  H        -0.5646221753   -2.2516741205   -0.0235522674
   Point Group: c1    Number of degrees of freedom:    27


   Energy is  -1038.256202557

              Constraints and their Current Values
                                        Value     Constraint
   Distance(Angs):        2   4             2.899999     2.900000
 Hessian Updated using BFGS Update

   Using Lagrange Multiplier Algorithm


 28 Hessian modes will be used to form the next step
  Hessian Eigenvalues:
    -0.984479    0.028290    0.046222    0.046954    0.052875    0.055226
     0.069264    0.074072    0.074950    0.079576    0.081396    0.087374
     0.101545    0.118455    0.122936    0.134863    0.148593    0.184034
     0.252020    0.274606    0.304899    0.308592    0.328943    0.338681
     0.342431    0.345412    0.349634    1.026281

 Minimum Search - Taking P-RFO Step
 Searching for Lamda that Maximizes Along the Constraint modes Only
 Value Taken    Lamda =   0.00000031
 Searching for Lamda that Minimizes Along All other modes
 Value Taken    Lamda =  -0.00042985
 Step Taken.  Stepsize is  0.048281

                             Maximum     Tolerance    Cnvgd?
         Gradient            0.007097       0.000300      NO
         Displacement        0.027511       0.001200      NO
         Energy change     -0.000161       0.000001      NO


 New Cartesian Coordinates Obtained by Inverse Iteration

 Displacement from previous Coordinates is:  0.049492
 ----------------------------------------------------------------
             Standard Nuclear Orientation (Angstroms)
    I     Atom           X                Y                Z
 ----------------------------------------------------------------
    1      Cl     -1.3874620271     1.3908389221     0.0599746754
    2      Cl      2.3585719219    -0.0801902735     1.2280062554
    3      C      -0.7285204454    -0.1724500205    -0.5752434592
    4      C       0.6322052685    -0.0238812882    -1.1014750581
    5      C      -0.9091440030    -1.3148701640     0.4288595755
    6      H      -1.3395630387    -0.3899323389    -1.4727905109
    7      H       1.1475677990    -0.9091449983    -1.4607446226
    8      H       1.0382855981     0.9430605792    -1.3726309207
    9      H      -0.2997911360    -1.1139715797     1.3111116798
   10      H      -1.9611780601    -1.4105730732     0.7017343618
   11      H      -0.5706728772    -2.2534877650    -0.0220009765
 ----------------------------------------------------------------
 Nuclear Repulsion Energy =   256.5050740276 hartrees
 There are       29 alpha and       29 beta electrons

                       Distance Matrix (Angstroms)
             Cl(  1)   Cl(  2)   C (  3)   C (  4)   C (  5)   H (  6)
   Cl(  2)  4.190584
   C (  3)  1.811513  3.576361
   C (  4)  2.725703  2.899999  1.466481
   C (  5)  2.772314  3.583439  1.531656  2.526724
   H (  6)  2.350066  4.589820  1.107367  2.039544  2.158018
   H (  7)  3.745516  3.063181  2.201486  1.085525  2.822283  2.540777
   H (  8)  2.852563  3.090876  2.236469  1.083237  3.483691  2.727832
   H (  9)  3.003739  2.853507  2.151420  2.806686  1.090890  3.058671
   H ( 10)  2.930685  4.550508  2.164039  3.449654  1.091052  2.481264
   H ( 11)  3.735637  3.855673  2.159100  2.753784  1.094916  2.483711
             H (  7)   H (  8)   H (  9)   H ( 10)
   H (  8)  1.857518
   H (  9)  3.133686  3.636524
   H ( 10)  3.819954  4.340434  1.794302
   H ( 11)  2.613349  3.825032  1.774560  1.779832
 
 Applying Cartesian multipole field
    Component          Value
    ---------          -----
     (2,0,0)        1.00000E-11
     (0,2,0)        2.00000E-11
     (0,0,2)       -3.00000E-11
 Nucleus-field energy     =     0.0000000043 hartrees
 Requested basis set is 6-31G(d,p)
 There are 40 shells and 113 basis functions
 A cutoff of  1.0D-14 yielded    775 shell pairs
 There are      6336 function pairs
 Smallest overlap matrix eigenvalue = 5.70E-03
 Guess from superposition of atomic densities
 Warning:  Energy on first SCF cycle will be non-variational
 SAD guess density has 58.000000 electrons

 -----------------------------------------------------------------------
  General SCF calculation program by
  Eric Jon Sundstrom, Paul Horn, Yuezhi Mao, Dmitri Zuev, Alec White,
  David Stuck, Shaama M.S., Shane Yost, Joonho Lee, David Small,
  Daniel Levine, Susi Lehtola, Hugh Burton, Evgeny Epifanovsky
 -----------------------------------------------------------------------
 Exchange:     0.2000 Hartree-Fock + 0.0800 Slater + 0.7200 B88
 Correlation:  0.1900 VWN1RPA + 0.8100 LYP
 Using SG-1 standard quadrature grid
 using 12 threads for integral computing
 -------------------------------------------------------
 OpenMP Integral computing Module                
 Release: version 1.0, May 2013, Q-Chem Inc. Pittsburgh 
 -------------------------------------------------------
 -------------------------------------------------------
 OpenMP BLAS3 based DFT computing Module                
 Release: version 1.0, May 2013, Q-Chem Inc. Pittsburgh 
 -------------------------------------------------------
 A unrestricted SCF calculation will be
 performed using DIIS
 SCF converges when DIIS error is below 1.0e-06
 Alpha HF Exchange    Energy =  -7.26924976790447
 Beta HF Exchange     Energy =  -7.26924976790447
 DFT Correlation      Energy =  -2.75804944234821
 DFT Exchange         Energy = -57.32378508237618
 One-Electron (alpha) Energy = -967.62614358850624
 One-Electron (beta)  Energy = -967.62614358850624
 Total Coulomb        Energy = 714.74863518076552
 ---------------------------------------
  Cycle       Energy         DIIS error
 ---------------------------------------
    1   -1038.6189120249      2.66e-02  
 Alpha HF Exchange    Energy =  -7.29343920657655
 Beta HF Exchange     Energy =  -7.29343920657655
 DFT Correlation      Energy =  -2.78045055053445
 DFT Exchange         Energy = -57.86628237615314
 One-Electron (alpha) Energy = -971.22185782987935
 One-Electron (beta)  Energy = -971.22185782987913
 Total Coulomb        Energy = 723.03162506338072
    2   -1038.1406279044      3.36e-03  
 Alpha HF Exchange    Energy =  -7.23677453835890
 Beta HF Exchange     Energy =  -7.23677453835890
 DFT Correlation      Energy =  -2.76519330008519
 DFT Exchange         Energy = -57.41774255212488
 One-Electron (alpha) Energy = -966.79283588157466
 One-Electron (beta)  Energy = -966.79283588157500
 Total Coulomb        Energy = 714.34199856210648
    3   -1037.3950840981      8.77e-03  
 Alpha HF Exchange    Energy =  -7.25039441026448
 Beta HF Exchange     Energy =  -7.25039441026448
 DFT Correlation      Energy =  -2.76563350187705
 DFT Exchange         Energy = -57.52966214014989
 One-Electron (alpha) Energy = -968.66706922065839
 One-Electron (beta)  Energy = -968.66706922065794
 Total Coulomb        Energy = 717.40333264794538
    4   -1038.2218162241      2.01e-03  
 Alpha HF Exchange    Energy =  -7.25466588697342
 Beta HF Exchange     Energy =  -7.25466588697342
 DFT Correlation      Energy =  -2.77107029212068
 DFT Exchange         Energy = -57.59604511530817
 One-Electron (alpha) Energy = -969.19881802046928
 One-Electron (beta)  Energy = -969.19881802046893
 Total Coulomb        Energy = 718.51632999310038
    5   -1038.2526791974      6.48e-04  
 Alpha HF Exchange    Energy =  -7.25720375941263
 Beta HF Exchange     Energy =  -7.25720375941264
 DFT Correlation      Energy =  -2.77110368910828
 DFT Exchange         Energy = -57.61129804612527
 One-Electron (alpha) Energy = -969.32087699277361
 One-Electron (beta)  Energy = -969.32087699277383
 Total Coulomb        Energy = 718.77735586082338
    6   -1038.2561333469      1.95e-04  
 Alpha HF Exchange    Energy =  -7.25646071247006
 Beta HF Exchange     Energy =  -7.25646071247006
 DFT Correlation      Energy =  -2.77091126289642
 DFT Exchange         Energy = -57.60499067809015
 One-Electron (alpha) Energy = -969.27170923986853
 One-Electron (beta)  Energy = -969.27170923986864
 Total Coulomb        Energy = 718.67087891341657
    7   -1038.2562889004      1.17e-04  
 Alpha HF Exchange    Energy =  -7.25665858745780
 Beta HF Exchange     Energy =  -7.25665858745782
 DFT Correlation      Energy =  -2.77087285661945
 DFT Exchange         Energy = -57.60565707668137
 One-Electron (alpha) Energy = -969.27760295896223
 One-Electron (beta)  Energy = -969.27760295896314
 Total Coulomb        Energy = 718.68357546490211
    8   -1038.2564035294      4.60e-05  
 Alpha HF Exchange    Energy =  -7.25693408665834
 Beta HF Exchange     Energy =  -7.25693408665833
 DFT Correlation      Energy =  -2.77090653918055
 DFT Exchange         Energy = -57.60726843156831
 One-Electron (alpha) Energy = -969.29319981868218
 One-Electron (beta)  Energy = -969.29319981868161
 Total Coulomb        Energy = 718.71694570147451
    9   -1038.2564230481      7.64e-06  
 Alpha HF Exchange    Energy =  -7.25689413949422
 Beta HF Exchange     Energy =  -7.25689413949423
 DFT Correlation      Energy =  -2.77089444969130
 DFT Exchange         Energy = -57.60699383848485
 One-Electron (alpha) Energy = -969.28956109017190
 One-Electron (beta)  Energy = -969.28956109017224
 Total Coulomb        Energy = 718.70930118269359
   10   -1038.2564235330      1.33e-06  
 Alpha HF Exchange    Energy =  -7.25689548915513
 Beta HF Exchange     Energy =  -7.25689548915513
 DFT Correlation      Energy =  -2.77089506540172
 DFT Exchange         Energy = -57.60700255765888
 One-Electron (alpha) Energy = -969.28973310649542
 One-Electron (beta)  Energy = -969.28973310649565
 Total Coulomb        Energy = 718.70965723896370
   11   -1038.2564235435      4.72e-07  Convergence criterion met
 ---------------------------------------
 SCF time:   CPU 28.01s  wall 3.00s 
<S^2> =          0.000000000
 Alpha HF Exchange    Energy =  -7.25689548915513
 Beta HF Exchange     Energy =  -7.25689548915513
 DFT Correlation      Energy =  -2.77089506540172
 DFT Exchange         Energy = -57.60700255765888
 One-Electron (alpha) Energy = -969.28973310649542
 One-Electron (beta)  Energy = -969.28973310649565
 Total Coulomb        Energy = 718.70965723896370
 Nuclear repulsion Energy = 256.50507403185327
 SCF   energy in the final basis set =    -1038.2564235435
 Total energy in the final basis set =    -1038.2564235435
 
 --------------------------------------------------------------
 
                    Orbital Energies (a.u.)
 --------------------------------------------------------------
 
 Alpha MOs
 -- Occupied --
*******-101.489 -10.318 -10.307 -10.218  -9.478  -9.400  -7.242
 -7.232  -7.232  -7.164  -7.156  -7.155  -0.907  -0.801  -0.740
 -0.724  -0.627  -0.524  -0.514  -0.480  -0.427  -0.412  -0.401
 -0.328  -0.325  -0.280  -0.258  -0.257
 -- Virtual --
 -0.159  -0.010   0.059   0.091   0.124   0.128   0.146   0.167
  0.180   0.208   0.361   0.394   0.406   0.421   0.439   0.455
  0.481   0.489   0.513   0.527   0.537   0.570   0.582   0.634
  0.655   0.708   0.741   0.784   0.800   0.839   0.854   0.860
  0.869   0.890   0.905   0.910   0.934   0.939   0.945   0.963
  0.996   0.997   1.013   1.099   1.223   1.292   1.392   1.486
  1.514   1.677   1.709   1.783   1.815   1.872   1.940   1.989
  2.011   2.023   2.054   2.078   2.229   2.276   2.315   2.374
  2.425   2.496   2.564   2.623   2.635   2.683   2.783   2.840
  2.875   3.182   3.202   3.292   3.370   3.411   3.451   4.151
  4.246   4.298   4.377   4.533
 
 Beta MOs
 -- Occupied --
*******-101.489 -10.318 -10.307 -10.218  -9.478  -9.400  -7.242
 -7.232  -7.232  -7.164  -7.156  -7.155  -0.907  -0.801  -0.740
 -0.724  -0.627  -0.524  -0.514  -0.480  -0.427  -0.412  -0.401
 -0.328  -0.325  -0.280  -0.258  -0.257
 -- Virtual --
 -0.159  -0.010   0.059   0.091   0.124   0.128   0.146   0.167
  0.180   0.208   0.361   0.394   0.406   0.421   0.439   0.455
  0.481   0.489   0.513   0.527   0.537   0.570   0.582   0.634
  0.655   0.708   0.741   0.784   0.800   0.839   0.854   0.860
  0.869   0.890   0.905   0.910   0.934   0.939   0.945   0.963
  0.996   0.997   1.013   1.099   1.223   1.292   1.392   1.486
  1.514   1.677   1.709   1.783   1.815   1.872   1.940   1.989
  2.011   2.023   2.054   2.078   2.229   2.276   2.315   2.374
  2.425   2.496   2.564   2.623   2.635   2.683   2.783   2.840
  2.875   3.182   3.202   3.292   3.370   3.411   3.451   4.151
  4.246   4.298   4.377   4.533
 --------------------------------------------------------------
 
          Ground-State Mulliken Net Atomic Charges

     Atom                 Charge (a.u.)    Spin (a.u.)
  --------------------------------------------------------
      1 Cl                   -0.023056      -0.000000
      2 Cl                   -0.433023      -0.000000
      3 C                    -0.222553       0.000000
      4 C                    -0.071278       0.000000
      5 C                    -0.304637      -0.000000
      6 H                     0.194971       0.000000
      7 H                     0.194970      -0.000000
      8 H                     0.209315      -0.000000
      9 H                     0.193223       0.000000
     10 H                     0.137133      -0.000000
     11 H                     0.124936       0.000000
  --------------------------------------------------------
  Sum of atomic charges =    -0.000000
  Sum of spin   charges =    -0.000000

 -----------------------------------------------------------------
                    Cartesian Multipole Moments
 -----------------------------------------------------------------
    Charge (ESU x 10^10)
                 0.0000
    Dipole Moment (Debye)
         X      -3.5644      Y      -1.7945      Z      -4.7636
       Tot       6.2143
    Quadrupole Moments (Debye-Ang)
        XX     -54.6502     XY       2.4698     YY     -44.2386
        XZ      -6.2477     YZ       0.3157     ZZ     -43.4021
    Octopole Moments (Debye-Ang^2)
       XXX     -46.8788    XXY      -6.7173    XYY      -8.1882
       YYY     -16.2385    XXZ     -21.6329    XYZ      -0.4101
       YYZ     -10.6142    XZZ     -10.4616    YZZ      -6.1864
       ZZZ     -35.4736
    Hexadecapole Moments (Debye-Ang^3)
      XXXX    -785.6309   XXXY      56.9930   XXYY    -169.0620
      XYYY      46.6058   YYYY    -279.3062   XXXZ    -118.1427
      XXYZ       6.2574   XYYZ     -39.8155   YYYZ      15.6591
      XXZZ    -164.3439   XYZZ      17.8349   YYZZ     -88.8218
      XZZZ     -99.6094   YZZZ      11.7373   ZZZZ    -247.7754
 -----------------------------------------------------------------
 Calculating analytic gradient of the SCF energy
 Gradient of SCF Energy
            1           2           3           4           5           6
    1   0.0000533   0.0222095  -0.0001093  -0.0226254   0.0002242  -0.0001206
    2   0.0000402  -0.0005261  -0.0002350   0.0007722   0.0004323   0.0001208
    3   0.0001054   0.0294026  -0.0004818  -0.0296571   0.0000764   0.0002059
            7           8           9          10          11
    1   0.0002659   0.0002899  -0.0002608   0.0000205   0.0000528
    2   0.0001832  -0.0003589  -0.0003845  -0.0000182  -0.0000261
    3   0.0002890   0.0000383  -0.0001574   0.0000935   0.0000853
 Max gradient component =       2.966E-02
 RMS gradient           =       9.131E-03
 Gradient time:  CPU 9.44 s  wall 0.82 s
 Geometry Optimization Parameters
   NAtoms,    NIC,     NZ,  NCons,   NDum,   NFix, NCnnct, MaxDiis
       11     101       0       1       0       0       0       0

 Cartesian Hessian Update
 Hessian Updated using BFGS Update


** CONSTRAINED OPTIMIZATION IN DELOCALIZED INTERNAL COORDINATES **
   Searching for a Minimum

   Optimization Cycle:   4

                       Coordinates (Angstroms)
     ATOM                X               Y               Z
      1  Cl       -1.3874620271    1.3908389221    0.0599746754
      2  Cl        2.3585719219   -0.0801902735    1.2280062554
      3  C        -0.7285204454   -0.1724500205   -0.5752434592
      4  C         0.6322052685   -0.0238812882   -1.1014750581
      5  C        -0.9091440030   -1.3148701640    0.4288595755
      6  H        -1.3395630387   -0.3899323389   -1.4727905109
      7  H         1.1475677990   -0.9091449983   -1.4607446226
      8  H         1.0382855981    0.9430605792   -1.3726309207
      9  H        -0.2997911360   -1.1139715797    1.3111116798
     10  H        -1.9611780601   -1.4105730732    0.7017343618
     11  H        -0.5706728772   -2.2534877650   -0.0220009765
   Point Group: c1    Number of degrees of freedom:    27


   Energy is  -1038.256423544

              Constraints and their Current Values
                                        Value     Constraint
   Distance(Angs):        2   4             2.899999     2.900000
 Hessian Updated using BFGS Update

   Using Lagrange Multiplier Algorithm


 28 Hessian modes will be used to form the next step
  Hessian Eigenvalues:
    -0.984597    0.028528    0.045517    0.046797    0.052531    0.055243
     0.068853    0.072377    0.074822    0.079586    0.081327    0.087326
     0.101554    0.118649    0.122383    0.134763    0.146709    0.184227
     0.251989    0.275454    0.304889    0.318147    0.328564    0.339821
     0.342462    0.344897    0.350129    1.026406

 Minimum Search - Taking P-RFO Step
 Searching for Lamda that Maximizes Along the Constraint modes Only
 Value Taken    Lamda =   0.00000000
 Searching for Lamda that Minimizes Along All other modes
 Value Taken    Lamda =  -0.00000684
 Step Taken.  Stepsize is  0.011681

                             Maximum     Tolerance    Cnvgd?
         Gradient            0.000289       0.000300     YES
         Displacement        0.006587       0.001200      NO
         Energy change     -0.000221       0.000001      NO


 New Cartesian Coordinates Obtained by Inverse Iteration

 Displacement from previous Coordinates is:  0.008213
 ----------------------------------------------------------------
             Standard Nuclear Orientation (Angstroms)
    I     Atom           X                Y                Z
 ----------------------------------------------------------------
    1      Cl     -1.3877424234     1.3906627185     0.0594913653
    2      Cl      2.3570052128    -0.0820183546     1.2289261137
    3      C      -0.7279346771    -0.1725256960    -0.5747594065
    4      C       0.6324511831    -0.0235561454    -1.1018453398
    5      C      -0.9088869702    -1.3149300572     0.4293835565
    6      H      -1.3382306614    -0.3906452015    -1.4729145737
    7      H       1.1468578262    -0.9092087843    -1.4625607074
    8      H       1.0374931134     0.9444027057    -1.3727645774
    9      H      -0.2990487922    -1.1129714508     1.3113151244
   10      H      -1.9609997243    -1.4102078125     0.7020095010
   11      H      -0.5706650869    -2.2536039220    -0.0214800563
 ----------------------------------------------------------------
 Nuclear Repulsion Energy =   256.5221851652 hartrees
 There are       29 alpha and       29 beta electrons

                       Distance Matrix (Angstroms)
             Cl(  1)   Cl(  2)   C (  3)   C (  4)   C (  5)   H (  6)
   Cl(  2)  4.190406
   C (  3)  1.811402  3.574679
   C (  4)  2.725784  2.900000  1.466513
   C (  5)  2.772428  3.581256  1.531710  2.527456
   H (  6)  2.350272  4.588024  1.107574  2.038635  2.158096
   H (  7)  3.745698  3.064768  2.201304  1.085868  2.823145  2.538637
   H (  8)  2.851714  3.092482  2.236309  1.083698  3.484353  2.726985
   H (  9)  3.003415  2.850311  2.150734  2.806753  1.091097  3.058364
   H ( 10)  2.930244  4.548285  2.163896  3.450026  1.091029  2.481460
   H ( 11)  3.735619  3.853642  2.159106  2.754595  1.094888  2.483231
             H (  7)   H (  8)   H (  9)   H ( 10)
   H (  8)  1.859005
   H (  9)  3.134733  3.636402
   H ( 10)  3.820359  4.340488  1.794905
   H ( 11)  2.614191  3.826145  1.775151  1.779827
 
 Applying Cartesian multipole field
    Component          Value
    ---------          -----
     (2,0,0)        1.00000E-11
     (0,2,0)        2.00000E-11
     (0,0,2)       -3.00000E-11
 Nucleus-field energy     =     0.0000000043 hartrees
 Requested basis set is 6-31G(d,p)
 There are 40 shells and 113 basis functions
 A cutoff of  1.0D-14 yielded    775 shell pairs
 There are      6336 function pairs
 Smallest overlap matrix eigenvalue = 5.70E-03
 Guess from superposition of atomic densities
 Warning:  Energy on first SCF cycle will be non-variational
 SAD guess density has 58.000000 electrons

 -----------------------------------------------------------------------
  General SCF calculation program by
  Eric Jon Sundstrom, Paul Horn, Yuezhi Mao, Dmitri Zuev, Alec White,
  David Stuck, Shaama M.S., Shane Yost, Joonho Lee, David Small,
  Daniel Levine, Susi Lehtola, Hugh Burton, Evgeny Epifanovsky
 -----------------------------------------------------------------------
 Exchange:     0.2000 Hartree-Fock + 0.0800 Slater + 0.7200 B88
 Correlation:  0.1900 VWN1RPA + 0.8100 LYP
 Using SG-1 standard quadrature grid
 using 12 threads for integral computing
 -------------------------------------------------------
 OpenMP Integral computing Module                
 Release: version 1.0, May 2013, Q-Chem Inc. Pittsburgh 
 -------------------------------------------------------
 -------------------------------------------------------
 OpenMP BLAS3 based DFT computing Module                
 Release: version 1.0, May 2013, Q-Chem Inc. Pittsburgh 
 -------------------------------------------------------
 A unrestricted SCF calculation will be
 performed using DIIS
 SCF converges when DIIS error is below 1.0e-06
 Alpha HF Exchange    Energy =  -7.26919375607093
 Beta HF Exchange     Energy =  -7.26919375607093
 DFT Correlation      Energy =  -2.75804528938267
 DFT Exchange         Energy = -57.32365596333306
 One-Electron (alpha) Energy = -967.64386343468016
 One-Electron (beta)  Energy = -967.64386343468016
 Total Coulomb        Energy = 714.76706572742091
 ---------------------------------------
  Cycle       Energy         DIIS error
 ---------------------------------------
    1   -1038.6185647373      2.66e-02  
 Alpha HF Exchange    Energy =  -7.29338918094275
 Beta HF Exchange     Energy =  -7.29338918094275
 DFT Correlation      Energy =  -2.78044130259833
 DFT Exchange         Energy = -57.86592142874662
 One-Electron (alpha) Energy = -971.23983081440281
 One-Electron (beta)  Energy = -971.23983081440247
 Total Coulomb        Energy = 723.04998864132540
    2   -1038.1406289112      3.36e-03  
 Alpha HF Exchange    Energy =  -7.23673448380637
 Beta HF Exchange     Energy =  -7.23673448380636
 DFT Correlation      Energy =  -2.76518450902180
 DFT Exchange         Energy = -57.41746334432305
 One-Electron (alpha) Energy = -966.80909772789187
 One-Electron (beta)  Energy = -966.80909772789153
 Total Coulomb        Energy = 714.35706641697470
    3   -1037.3950606902      8.77e-03  
 Alpha HF Exchange    Energy =  -7.25034920278590
 Beta HF Exchange     Energy =  -7.25034920278590
 DFT Correlation      Energy =  -2.76562465780494
 DFT Exchange         Energy = -57.52934382982632
 One-Electron (alpha) Energy = -968.68473546295502
 One-Electron (beta)  Energy = -968.68473546295490
 Total Coulomb        Energy = 717.42110654821977
    4   -1038.2218461014      2.01e-03  
 Alpha HF Exchange    Energy =  -7.25462736221312
 Beta HF Exchange     Energy =  -7.25462736221311
 DFT Correlation      Energy =  -2.77106135168370
 DFT Exchange         Energy = -57.59575732306894
 One-Electron (alpha) Energy = -969.21652914156186
 One-Electron (beta)  Energy = -969.21652914156175
 Total Coulomb        Energy = 718.53424902180700
    5   -1038.2526974910      6.47e-04  
 Alpha HF Exchange    Energy =  -7.25716205724818
 Beta HF Exchange     Energy =  -7.25716205724816
 DFT Correlation      Energy =  -2.77109450846950
 DFT Exchange         Energy = -57.61099267447925
 One-Electron (alpha) Energy = -969.33847182211105
 One-Electron (beta)  Energy = -969.33847182211059
 Total Coulomb        Energy = 718.79503029204216
    6   -1038.2561394801      1.95e-04  
 Alpha HF Exchange    Energy =  -7.25641898932185
 Beta HF Exchange     Energy =  -7.25641898932186
 DFT Correlation      Energy =  -2.77090224303493
 DFT Exchange         Energy = -57.60468639000525
 One-Electron (alpha) Energy = -969.28932626402468
 One-Electron (beta)  Energy = -969.28932626402570
 Total Coulomb        Energy = 718.68859897254424
    7   -1038.2562949977      1.17e-04  
 Alpha HF Exchange    Energy =  -7.25661585298264
[...]

 Minimum Search - Taking Simple RFO Step
 Searching for Lamda that Minimizes Along All modes
 Value Taken    Lamda =   0.00000000
 Step Taken.  Stepsize is  0.007799

                             Maximum     Tolerance    Cnvgd?
         Gradient           0.000126      0.000300     YES
         Displacement       0.003610      0.001200      NO
         Energy change     -0.000002      0.000001      NO


 New Cartesian Coordinates Obtained by Inverse Iteration

 Displacement from previous Coordinates is:  0.006725
 ----------------------------------------------------------------
             Standard Nuclear Orientation (Angstroms)
    I     Atom           X                Y                Z
 ----------------------------------------------------------------
    1      Cl     -1.3922130682     1.3899084978     0.0530707962
    2      Cl      2.3466386423    -0.0995037878     1.2356670976
    3      C      -0.7262733916    -0.1726341918    -0.5749940774
    4      C       0.6337703765    -0.0209062388    -1.1031156476
    5      C      -0.9055864069    -1.3127694426     0.4322428052
    6      H      -1.3341839589    -0.3965908861    -1.4735226450
    7      H       1.1426237717    -0.9044971889    -1.4756099463
    8      H       1.0344318681     0.9492733217    -1.3713128819
    9      H      -0.2947857748    -1.1069058567     1.3128827024
   10      H      -1.9575485419    -1.4076720992     0.7055887508
   11      H      -0.5665745162    -2.2523041277    -0.0160959540
 ----------------------------------------------------------------
 Nuclear Repulsion Energy =   256.6297460988 hartrees
 There are       29 alpha and       29 beta electrons

                       Distance Matrix (Angstroms)
             Cl(  1)   Cl(  2)   C (  3)   C (  4)   C (  5)   H (  6)
   Cl(  2)  4.194746
   C (  3)  1.810934  3.567440
   C (  4)  2.726128  2.900000  1.466851
   C (  5)  2.772191  3.562930  1.531858  2.529003
   H (  6)  2.350624  4.580003  1.107730  2.037446  2.157550
   H (  7)  3.745205  3.073872  2.199888  1.085549  2.828737  2.528349
   H (  8)  2.848093  3.101317  2.234476  1.083378  3.483292  2.726195
   H (  9)  3.004256  2.828064  2.150145  2.806895  1.091322  3.057605
   H ( 10)  2.927771  4.529715  2.163620  3.451009  1.091031  2.481813
   H ( 11)  3.735261  3.832528  2.159374  2.757096  1.094834  2.481328
             H (  7)   H (  8)   H (  9)   H ( 10)
   H (  8)  1.859852
   H (  9)  3.143693  3.633125
   H ( 10)  3.823857  4.338278  1.795563
   H ( 11)  2.620710  3.827523  1.775385  1.780180
 
 Applying Cartesian multipole field
    Component          Value
    ---------          -----
     (2,0,0)        1.00000E-11
     (0,2,0)        2.00000E-11
     (0,0,2)       -3.00000E-11
 Nucleus-field energy     =     0.0000000042 hartrees
 Requested basis set is 6-31G(d,p)
 There are 40 shells and 113 basis functions
 A cutoff of  1.0D-14 yielded    777 shell pairs
 There are      6355 function pairs
 Smallest overlap matrix eigenvalue = 5.70E-03
 Guess from superposition of atomic densities
 Warning:  Energy on first SCF cycle will be non-variational
 SAD guess density has 58.000000 electrons

 -----------------------------------------------------------------------
  General SCF calculation program by
  Eric Jon Sundstrom, Paul Horn, Yuezhi Mao, Dmitri Zuev, Alec White,
  David Stuck, Shaama M.S., Shane Yost, Joonho Lee, David Small,
  Daniel Levine, Susi Lehtola, Hugh Burton, Evgeny Epifanovsky
 -----------------------------------------------------------------------
 Exchange:     0.2000 Hartree-Fock + 0.0800 Slater + 0.7200 B88
 Correlation:  0.1900 VWN1RPA + 0.8100 LYP
 Using SG-1 standard quadrature grid
 using 12 threads for integral computing
 -------------------------------------------------------
 OpenMP Integral computing Module                
 Release: version 1.0, May 2013, Q-Chem Inc. Pittsburgh 
 -------------------------------------------------------
 -------------------------------------------------------
 OpenMP BLAS3 based DFT computing Module                
 Release: version 1.0, May 2013, Q-Chem Inc. Pittsburgh 
 -------------------------------------------------------
 A unrestricted SCF calculation will be
 performed using DIIS
 SCF converges when DIIS error is below 1.0e-06
 Alpha HF Exchange    Energy =  -7.26925306280390
 Beta HF Exchange     Energy =  -7.26925306280390
 DFT Correlation      Energy =  -2.75810481312342
 DFT Exchange         Energy = -57.32376847966248
 One-Electron (alpha) Energy = -967.75133679135615
 One-Electron (beta)  Energy = -967.75133679135615
 Total Coulomb        Energy = 714.87431460904133
 ---------------------------------------
  Cycle       Energy         DIIS error
 ---------------------------------------
    1   -1038.6189922890      2.66e-02  
 Alpha HF Exchange    Energy =  -7.29337589439262
 Beta HF Exchange     Energy =  -7.29337589439262
 DFT Correlation      Energy =  -2.78049081965880
 DFT Exchange         Energy = -57.86590775168169
 One-Electron (alpha) Energy = -971.34826880319713
 One-Electron (beta)  Energy = -971.34826880319724
 Total Coulomb        Energy = 723.15906069278901
    2   -1038.1408811707      3.36e-03  
 Alpha HF Exchange    Energy =  -7.23676374259950
 Beta HF Exchange     Energy =  -7.23676374259950
 DFT Correlation      Energy =  -2.76524106182857
 DFT Exchange         Energy = -57.41770498695020
 One-Electron (alpha) Energy = -966.91507553402062
 One-Electron (beta)  Energy = -966.91507553402073
 Total Coulomb        Energy = 714.45882702405800
    3   -1037.3980514749      8.76e-03  
 Alpha HF Exchange    Energy =  -7.25039921182025
 Beta HF Exchange     Energy =  -7.25039921182024
 DFT Correlation      Energy =  -2.76568741506151
 DFT Exchange         Energy = -57.52970037447962
 One-Electron (alpha) Energy = -968.79482840992193
 One-Electron (beta)  Energy = -968.79482840992137
 Total Coulomb        Energy = 717.53426275711729
    4   -1038.2218341729      2.01e-03  
 Alpha HF Exchange    Energy =  -7.25466745146788
 Beta HF Exchange     Energy =  -7.25466745146788
 DFT Correlation      Energy =  -2.77111087833105
 DFT Exchange         Energy = -57.59594378946801
 One-Electron (alpha) Energy = -969.32487452048349
 One-Electron (beta)  Energy = -969.32487452048338
 Total Coulomb        Energy = 718.64360607817400
    5   -1038.2527864305      6.41e-04  
 Alpha HF Exchange    Energy =  -7.25719386520434
 Beta HF Exchange     Energy =  -7.25719386520434
 DFT Correlation      Energy =  -2.77114674935044
 DFT Exchange         Energy = -57.61117377839172
 One-Electron (alpha) Energy = -969.44654257732645
 One-Electron (beta)  Energy = -969.44654257732600
 Total Coulomb        Energy = 718.90389023083969
    6   -1038.2561570789      1.94e-04  
 Alpha HF Exchange    Energy =  -7.25644999400202
 Beta HF Exchange     Energy =  -7.25644999400203
 DFT Correlation      Energy =  -2.77095535753454
 DFT Exchange         Energy = -57.60487021730521
 One-Electron (alpha) Energy = -969.39749742450374
 One-Electron (beta)  Energy = -969.39749742450419
 Total Coulomb        Energy = 718.79766260026292
    7   -1038.2563117086      1.16e-04  
 Alpha HF Exchange    Energy =  -7.25664072717566
 Beta HF Exchange     Energy =  -7.25664072717566
 DFT Correlation      Energy =  -2.77091696131747
 DFT Exchange         Energy = -57.60550049206864
 One-Electron (alpha) Energy = -969.40310266157258
 One-Electron (beta)  Energy = -969.40310266157258
 Total Coulomb        Energy = 718.80973481400576
    8   -1038.2564233138      4.62e-05  
 Alpha HF Exchange    Energy =  -7.25691608774320
 Beta HF Exchange     Energy =  -7.25691608774319
 DFT Correlation      Energy =  -2.77095043706253
 DFT Exchange         Energy = -57.60710932789208
 One-Electron (alpha) Energy = -969.41872866216636
 One-Electron (beta)  Energy = -969.41872866216590
 Total Coulomb        Energy = 718.84316011618512
    9   -1038.2564430455      7.56e-06  
 Alpha HF Exchange    Energy =  -7.25687654084934
 Beta HF Exchange     Energy =  -7.25687654084933
 DFT Correlation      Energy =  -2.77093825430536
 DFT Exchange         Energy = -57.60683569907410
 One-Electron (alpha) Energy = -969.41508688426495
 One-Electron (beta)  Energy = -969.41508688426450
 Total Coulomb        Energy = 718.83551118483399
   10   -1038.2564435157      1.34e-06  
 Alpha HF Exchange    Energy =  -7.25687796977742
 Beta HF Exchange     Energy =  -7.25687796977741
 DFT Correlation      Energy =  -2.77093887482068
 DFT Exchange         Energy = -57.60684485400512
 One-Electron (alpha) Energy = -969.41526426277471
 One-Electron (beta)  Energy = -969.41526426277392
 Total Coulomb        Energy = 718.83587856444456
   11   -1038.2564435264      4.72e-07  Convergence criterion met
 ---------------------------------------
 SCF time:   CPU 28.36s  wall 3.00s 
<S^2> =         -0.000000000
 Alpha HF Exchange    Energy =  -7.25687796977742
 Beta HF Exchange     Energy =  -7.25687796977741
 DFT Correlation      Energy =  -2.77093887482068
 DFT Exchange         Energy = -57.60684485400512
 One-Electron (alpha) Energy = -969.41526426277471
 One-Electron (beta)  Energy = -969.41526426277392
 Total Coulomb        Energy = 718.83587856444456
 Nuclear repulsion Energy = 256.62974610303877
 SCF   energy in the final basis set =    -1038.2564435264
 Total energy in the final basis set =    -1038.2564435264
 
 --------------------------------------------------------------
 
                    Orbital Energies (a.u.)
 --------------------------------------------------------------
 
 Alpha MOs
 -- Occupied --
*******-101.489 -10.318 -10.307 -10.218  -9.478  -9.401  -7.242
 -7.232  -7.232  -7.164  -7.156  -7.155  -0.907  -0.801  -0.739
 -0.724  -0.627  -0.525  -0.513  -0.479  -0.427  -0.412  -0.401
 -0.328  -0.325  -0.280  -0.258  -0.257
 -- Virtual --
 -0.159  -0.010   0.059   0.091   0.124   0.128   0.146   0.167
  0.180   0.207   0.361   0.394   0.405   0.421   0.439   0.456
  0.481   0.489   0.512   0.527   0.537   0.571   0.582   0.635
  0.655   0.709   0.741   0.784   0.800   0.839   0.854   0.860
  0.869   0.890   0.905   0.910   0.934   0.939   0.945   0.963
  0.995   0.997   1.017   1.099   1.224   1.293   1.390   1.488
  1.514   1.677   1.711   1.784   1.815   1.872   1.938   1.990
  2.012   2.023   2.054   2.078   2.228   2.276   2.316   2.374
  2.425   2.495   2.566   2.623   2.634   2.682   2.780   2.840
  2.875   3.182   3.204   3.292   3.368   3.411   3.451   4.150
  4.246   4.299   4.378   4.534
 
 Beta MOs
 -- Occupied --
*******-101.489 -10.318 -10.307 -10.218  -9.478  -9.401  -7.242
 -7.232  -7.232  -7.164  -7.156  -7.155  -0.907  -0.801  -0.739
 -0.724  -0.627  -0.525  -0.513  -0.479  -0.427  -0.412  -0.401
 -0.328  -0.325  -0.280  -0.258  -0.257
 -- Virtual --
 -0.159  -0.010   0.059   0.091   0.124   0.128   0.146   0.167
  0.180   0.207   0.361   0.394   0.405   0.421   0.439   0.456
  0.481   0.489   0.512   0.527   0.537   0.571   0.582   0.635
  0.655   0.709   0.741   0.784   0.800   0.839   0.854   0.860
  0.869   0.890   0.905   0.910   0.934   0.939   0.945   0.963
  0.995   0.997   1.017   1.099   1.224   1.293   1.390   1.488
  1.514   1.677   1.711   1.784   1.815   1.872   1.938   1.990
  2.012   2.023   2.054   2.078   2.228   2.276   2.316   2.374
  2.425   2.495   2.566   2.623   2.634   2.682   2.780   2.840
  2.875   3.182   3.204   3.292   3.368   3.411   3.451   4.150
  4.246   4.299   4.378   4.534
 --------------------------------------------------------------
 
          Ground-State Mulliken Net Atomic Charges

     Atom                 Charge (a.u.)    Spin (a.u.)
  --------------------------------------------------------
      1 Cl                   -0.023352       0.000000
      2 Cl                   -0.432850      -0.000000
      3 C                    -0.222473      -0.000000
      4 C                    -0.070631      -0.000000
      5 C                    -0.303857       0.000000
      6 H                     0.194473       0.000000
      7 H                     0.194416      -0.000000
      8 H                     0.208895       0.000000
      9 H                     0.193500      -0.000000
     10 H                     0.136914      -0.000000
     11 H                     0.124965      -0.000000
  --------------------------------------------------------
  Sum of atomic charges =    -0.000000
  Sum of spin   charges =     0.000000

 -----------------------------------------------------------------
                    Cartesian Multipole Moments
 -----------------------------------------------------------------
    Charge (ESU x 10^10)
                 0.0000
    Dipole Moment (Debye)
         X      -3.5353      Y      -1.7531      Z      -4.7765
       Tot       6.1957
    Quadrupole Moments (Debye-Ang)
        XX     -54.5975     XY       2.5559     YY     -44.2421
        XZ      -6.2706     YZ       0.3608     ZZ     -43.4041
    Octopole Moments (Debye-Ang^2)
       XXX     -46.0300    XXY      -6.2913    XYY      -8.0268
       YYY     -15.4846    XXZ     -21.5964    XYZ      -0.3542
       YYZ     -10.6836    XZZ     -10.2690    YZZ      -5.9666
       ZZZ     -35.6217
    Hexadecapole Moments (Debye-Ang^3)
      XXXX    -780.9542   XXXY      59.3482   XXYY    -168.3560
      XYYY      48.7437   YYYY    -279.1348   XXXZ    -118.5191
      XXYZ       6.8542   XYYZ     -39.9235   YYYZ      17.0612
      XXZZ    -164.0883   XYZZ      18.5550   YYZZ     -89.1148
      XZZZ    -100.0556   YZZZ      13.2814   ZZZZ    -249.4916
 -----------------------------------------------------------------
 Calculating analytic gradient of the SCF energy
 Gradient of SCF Energy
            1           2           3           4           5           6
    1   0.0000234   0.0217173  -0.0000293  -0.0215279   0.0000010  -0.0000302
    2  -0.0000138  -0.0009825   0.0000132   0.0010225   0.0000863   0.0000167
    3   0.0000161   0.0296650   0.0000448  -0.0297681  -0.0000312   0.0000363
            7           8           9          10          11
    1  -0.0001194  -0.0001267   0.0000767   0.0000176  -0.0000024
    2   0.0000166  -0.0000943  -0.0000933   0.0000350  -0.0000063
    3   0.0000170  -0.0000897  -0.0000037   0.0000745   0.0000390
 Max gradient component =       2.977E-02
 RMS gradient           =       9.051E-03
 Gradient time:  CPU 9.38 s  wall 0.79 s
 Geometry Optimization Parameters
   NAtoms,    NIC,     NZ,  NCons,   NDum,   NFix, NCnnct, MaxDiis
       11     101       0       1       0       0       0       0

 Cartesian Hessian Update
 Hessian Updated using BFGS Update


** CONSTRAINED OPTIMIZATION IN DELOCALIZED INTERNAL COORDINATES **
   Searching for a Minimum

   Optimization Cycle:   9

                       Coordinates (Angstroms)
     ATOM                X               Y               Z
      1  Cl       -1.3922130682    1.3899084978    0.0530707962
      2  Cl        2.3466386423   -0.0995037878    1.2356670976
      3  C        -0.7262733916   -0.1726341918   -0.5749940774
      4  C         0.6337703765   -0.0209062388   -1.1031156476
      5  C        -0.9055864069   -1.3127694426    0.4322428052
      6  H        -1.3341839589   -0.3965908861   -1.4735226450
      7  H         1.1426237717   -0.9044971889   -1.4756099463
      8  H         1.0344318681    0.9492733217   -1.3713128819
      9  H        -0.2947857748   -1.1069058567    1.3128827024
     10  H        -1.9575485419   -1.4076720992    0.7055887508
     11  H        -0.5665745162   -2.2523041277   -0.0160959540
   Point Group: c1    Number of degrees of freedom:    27


   Energy is  -1038.256443526

              Constraints and their Current Values
                                        Value     Constraint
   Distance(Angs):        2   4             2.900000     2.900000
 Hessian Updated using BFGS Update

 26 Hessian modes will be used to form the next step
  Hessian Eigenvalues:
     0.004434    0.016717    0.039850    0.047367    0.055135    0.063117
     0.069954    0.074945    0.079617    0.081187    0.087612    0.103458
     0.117883    0.124765    0.136285    0.147282    0.185085    0.251208
     0.274744    0.304925    0.316564    0.329304    0.339800    0.342498
     0.347119    0.416831

 Minimum Search - Taking Simple RFO Step
 Searching for Lamda that Minimizes Along All modes
 Value Taken    Lamda =   0.00000000
 Step Taken.  Stepsize is  0.009237

                             Maximum     Tolerance    Cnvgd?
         Gradient           0.000115      0.000300     YES
         Displacement       0.004746      0.001200      NO
         Energy change     -0.000001      0.000001     YES


                       Distance Matrix (Angstroms)
             Cl(  1)   Cl(  2)   C (  3)   C (  4)   C (  5)   H (  6)
   Cl(  2)  4.194746
   C (  3)  1.810934  3.567440
   C (  4)  2.726128  2.900000  1.466851
   C (  5)  2.772191  3.562930  1.531858  2.529003
   H (  6)  2.350624  4.580003  1.107730  2.037446  2.157550
   H (  7)  3.745205  3.073872  2.199888  1.085549  2.828737  2.528349
   H (  8)  2.848093  3.101317  2.234476  1.083378  3.483292  2.726195
   H (  9)  3.004256  2.828064  2.150145  2.806895  1.091322  3.057605
   H ( 10)  2.927771  4.529715  2.163620  3.451009  1.091031  2.481813
   H ( 11)  3.735261  3.832528  2.159374  2.757096  1.094834  2.481328
             H (  7)   H (  8)   H (  9)   H ( 10)
   H (  8)  1.859852
   H (  9)  3.143693  3.633125
   H ( 10)  3.823857  4.338278  1.795563
   H ( 11)  2.620710  3.827523  1.775385  1.780180
 
 Final energy is   -1038.25644352645     


 ******************************
 **  OPTIMIZATION CONVERGED  **
 ******************************

                       Coordinates (Angstroms)
     ATOM                X               Y               Z
      1  Cl       -1.3922130682    1.3899084978    0.0530707962
      2  Cl        2.3466386423   -0.0995037878    1.2356670976
      3  C        -0.7262733916   -0.1726341918   -0.5749940774
      4  C         0.6337703765   -0.0209062388   -1.1031156476
      5  C        -0.9055864069   -1.3127694426    0.4322428052
      6  H        -1.3341839589   -0.3965908861   -1.4735226450
      7  H         1.1426237717   -0.9044971889   -1.4756099463
      8  H         1.0344318681    0.9492733217   -1.3713128819
      9  H        -0.2947857748   -1.1069058567    1.3128827024
     10  H        -1.9575485419   -1.4076720992    0.7055887508
     11  H        -0.5665745162   -2.2523041277   -0.0160959540

Z-matrix Print:
$molecule
0 1
Cl
C  1 1.810934
H  2 1.107730 1 104.711797
C  2 1.466851 1 112.121635 3 111.840129 0
H  4 1.083378 2 121.645168 1 -18.382847 0
H  4 1.085549 2 118.292258 1 177.973678 0
C  2 1.531858 1 111.783974 3 -117.367823 0
H  7 1.091031 2 110.019583 1 55.558146 0
H  7 1.091322 2 108.945912 1 -65.994935 0
H  7 1.094834 2 109.463272 1 175.381789 0
Cl 9 2.828064 7 124.604956 2 -42.190908 0
$end

PES scan, value:    2.9000 energy: -1038.2564435264
------- Summary of potential scan: ------ 
    2.9000     -1038.2564435264
----------------------------------------- 
Archival summary:
1\1\hpc0332\JobtypUnspecified\ProcedureUnspecified\6-31G**\l236\knomura\MonMar1123:31:042019MonMar1123:31:042019\0\\#,JobtypUnspecified,ProcedureUnspecified,6-31G**,\\0,1\Cl\C,1,1.81093\H,2,1.10773,1,104.712\C,2,1.46685,1,112.122,3,111.84,0\H,4,1.08338,2,121.645,1,-18.3828,0\H,4,1.08555,2,118.292,1,177.974,0\C,2,1.53186,1,111.784,3,-117.368,0\H,7,1.09103,2,110.02,1,55.5581,0\H,7,1.09132,2,108.946,1,-65.9949,0\H,7,1.09483,2,109.463,1,175.382,0\Cl,9,2.82806,7,124.605,2,-42.1909,0\\\@

 Total job time:  37.77s(wall), 380.11s(cpu) 
 Mon Mar 11 23:31:04 2019

        *************************************************************
        *                                                           *
        *  Thank you very much for using Q-Chem.  Have a nice day.  *
        *                                                           *
        *************************************************************


