
Running Job 1 of 1 thiol/03/C-S.xyz.data/inputs/bond_singlet_2.2.in
qchem thiol/03/C-S.xyz.data/inputs/bond_singlet_2.2.in_27441.0 /staging/scratch/2868767/qchem27441/ 1
/usr/usc/qchem/5.1.1/exe/qcprog.exe_s thiol/03/C-S.xyz.data/inputs/bond_singlet_2.2.in_27441.0 /staging/scratch/2868767/qchem27441/
Check license passed

                  Welcome to Q-Chem
     A Quantum Leap Into The Future Of Chemistry


 Q-Chem 5.1, Q-Chem, Inc., Pleasanton, CA (2018)

 Yihan Shao,  Zhengting Gan,  E. Epifanovsky,  A. T. B. Gilbert,  M. Wormit,  
 J. Kussmann,  A. W. Lange,  A. Behn,  Jia Deng,  Xintian Feng,  D. Ghosh,  
 M. Goldey,  P. R. Horn,  L. D. Jacobson,  I. Kaliman,  T. Kus,  A. Landau,  
 Jie Liu,  E. I. Proynov,  R. M. Richard,  R. P. Steele,  E. J. Sundstrom,  
 H. L. Woodcock III,  P. M. Zimmerman,  D. Zuev,  B. Albrecht,  E. Alguire,  
 S. A. Baeppler,  D. Barton,  Z. Benda,  Y. A. Bernard,  E. J. Berquist,  
 K. B. Bravaya,  H. Burton,  D. Casanova,  Chun-Min Chang,  Yunqing Chen,  
 A. Chien,  K. D. Closser,  M. P. Coons,  S. Coriani,  S. Dasgupta,  
 A. L. Dempwolff,  M. Diedenhofen,  Hainam Do,  R. G. Edgar,  Po-Tung Fang,  
 S. Faraji,  S. Fatehi,  Qingguo Feng,  K. D. Fenk,  J. Fosso-Tande,  
 Qinghui Ge,  A. Ghysels,  G. Gidofalvi,  J. Gomes,  J. Gonthier,  A. Gunina,  
 D. Hait,  M. W. D. Hanson-Heine,  P. H. P. Harbach,  A. W. Hauser,  
 J. E. Herr,  E. G. Hohenstein,  Z. C. Holden,  Kerwin Hui,  B. C. Huynh,  
 T.-C. Jagau,  Hyunjun Ji,  B. Kaduk,  K. Khistyaev,  Jaehoon Kim,  
 P. Klunzinger,  K. Koh,  D. Kosenkov,  L. Koulias,  T. Kowalczyk,  
 C. M. Krauter,  A. Kunitsa,  Ka Un Lao,  A. Laurent,  K. V. Lawler,  
 Joonho Lee,  D. Lefrancois,  S. Lehtola,  D. S. Levine,  Yi-Pei Li,  
 You-Sheng Lin,  Fenglai Liu,  E. Livshits,  A. Luenser,  P. Manohar,  
 E. Mansoor,  S. F. Manzer,  Shan-Ping Mao,  Yuezhi Mao,  N. Mardirossian,  
 A. V. Marenich,  T. Markovich,  L. A. Martinez-Martinez,  S. A. Maurer,  
 N. J. Mayhall,  S. C. McKenzie,  J.-M. Mewes,  A. F. Morrison,  
 J. W. Mullinax,  K. Nanda,  T. S. Nguyen-Beck,  R. Olivares-Amaya,  
 J. A. Parkhill,  T. M. Perrine,  F. Plasser,  P. Pokhilko,  S. Prager,  
 A. Prociuk,  E. Ramos,  D. R. Rehn,  F. Rob,  M. Schneider,  N. Sergueev,  
 S. M. Sharada,  S. Sharma,  D. W. Small,  T. Stauch,  T. Stein,  
 Yu-Chuan Su,  A. J. W. Thom,  A. Tkatchenko,  T. Tsuchimochi,  N. M. Tubman,  
 L. Vogt,  M. L. Vidal,  O. Vydrov,  M. A. Watson,  J. Wenzel,  
 M. de Wergifosse,  T. A. Wesolowski,  A. White,  J. Witte,  A. Yamada,  
 Jun Yang,  K. Yao,  S. Yeganeh,  S. R. Yost,  Zhi-Qiang You,  A. Zech,  
 Igor Ying Zhang,  Xing Zhang,  Yan Zhao,  Ying Zhu,  B. R. Brooks,  
 G. K. L. Chan,  C. J. Cramer,  M. S. Gordon,  W. J. Hehre,  A. Klamt,  
 M. W. Schmidt,  C. D. Sherrill,  D. G. Truhlar,  A. Aspuru-Guzik,  R. Baer,  
 A. T. Bell,  N. A. Besley,  Jeng-Da Chai,  A. E. DePrince, III,  
 R. A. DiStasio Jr.,  A. Dreuw,  B. D. Dunietz,  T. R. Furlani,  
 Chao-Ping Hsu,  Yousung Jung,  Jing Kong,  D. S. Lambrecht,  WanZhen Liang,  
 C. Ochsenfeld,  V. A. Rassolov,  L. V. Slipchenko,  J. E. Subotnik,  
 T. Van Voorhis,  J. M. Herbert,  A. I. Krylov,  P. M. W. Gill,  M. Head-Gordon

 Contributors to earlier versions of Q-Chem not listed above: 
 R. D. Adamson,  B. Austin,  J. Baker,  G. J. O. Beran,  K. Brandhorst,  
 S. T. Brown,  E. F. C. Byrd,  A. K. Chakraborty,  C.-L. Cheng,  
 Siu Hung Chien,  D. M. Chipman,  D. L. Crittenden,  H. Dachsel,  
 R. J. Doerksen,  A. D. Dutoi,  L. Fusti-Molnar,  W. A. Goddard III,  
 A. Golubeva-Zadorozhnaya,  S. R. Gwaltney,  G. Hawkins,  A. Heyden,  
 S. Hirata,  G. Kedziora,  F. J. Keil,  C. Kelley,  Jihan Kim,  R. A. King,  
 R. Z. Khaliullin,  P. P. Korambath,  W. Kurlancheek,  A. M. Lee,  M. S. Lee,  
 S. V. Levchenko,  Ching Yeh Lin,  D. Liotard,  R. C. Lochan,  I. Lotan,  
 P. E. Maslen,  N. Nair,  D. P. O'Neill,  D. Neuhauser,  E. Neuscamman,  
 C. M. Oana,  R. Olson,  B. Peters,  R. Peverati,  P. A. Pieniazek,  
 Y. M. Rhee,  J. Ritchie,  M. A. Rohrdanz,  E. Rosta,  N. J. Russ,  
 H. F. Schaefer III,  N. E. Schultz,  N. Shenvi,  A. C. Simmonett,  A. Sodt,  
 D. Stuck,  K. S. Thanthiriwatte,  V. Vanovschi,  Tao Wang,  A. Warshel,  
 C. F. Williams,  Q. Wu,  X. Xu,  W. Zhang

 Please cite Q-Chem as follows:
 Y. Shao et al., Mol. Phys. 113, 184-215 (2015)
 DOI: 10.1080/00268976.2014.952696

 Q-Chem 5.1.1 for Intel X86 EM64T Linux

 Parts of Q-Chem use Armadillo 8.300.2 (Tropical Shenanigans).
 http://arma.sourceforge.net/

 Q-Chem begins on Thu Mar 14 00:03:36 2019  

Host: 
0

     Scratch files written to /staging/scratch/2868767/qchem27441//
 Aug318 |scratch|qcdevops|jenkins|workspace|build_RNUM 6013   
Processing $rem in /usr/usc/qchem/5.1.1/config/preferences.
 MEM_TOTAL  2000 
Input Ideriv = 2
Curr. Ideriv = -1
Max.  Ideriv = 2

Checking the input file for inconsistencies... 	...done.

--------------------------------------------------------------
User input:
--------------------------------------------------------------

$comment
potential surface scanner
$end

$rem
JOBTYPE  PES_SCAN
UNRESTRICTED TRUE
SYM_IGNORE  TRUE
GEOM_OPT_MAX_CYCLES 400
SCF_MAX_CYCLES 400
METHOD   B3LYP
BASIS   6-31G**
PDB_PRINT 2
SCF_CONVERGENCE 6
THRESH 14
SCF_PRINT 1
$end
$molecule
0 1
S 0.668711 -1.694746 0.237444
S -2.499606 0.041324 -0.229782
C 0.530413 0.084576 -0.263029
C -0.641379 0.799373 0.388569
C 1.838124 0.847375 -0.000793
H 0.355113 0.025391 -1.341213
H -0.657065 0.727237 1.475812
H -0.718158 1.840713 0.071585
H 1.768256 1.869399 -0.389573
H 2.051155 0.909811 1.071877
H 2.679734 0.347936 -0.486285
H 1.049828 -1.458050 1.509807
H -2.185424 -1.215340 0.144583
$end
$scan
stre 2 4 2.200000 2.201000 0.100000
$end
--------------------------------------------------------------
 ----------------------------------------------------------------
             Standard Nuclear Orientation (Angstroms)
    I     Atom           X                Y                Z
 ----------------------------------------------------------------
    1      S       0.6687110000    -1.6947460000     0.2374440000
    2      S      -2.4996060000     0.0413240000    -0.2297820000
    3      C       0.5304130000     0.0845760000    -0.2630290000
    4      C      -0.6413790000     0.7993730000     0.3885690000
    5      C       1.8381240000     0.8473750000    -0.0007930000
    6      H       0.3551130000     0.0253910000    -1.3412130000
    7      H      -0.6570650000     0.7272370000     1.4758120000
    8      H      -0.7181580000     1.8407130000     0.0715850000
    9      H       1.7682560000     1.8693990000    -0.3895730000
   10      H       2.0511550000     0.9098110000     1.0718770000
   11      H       2.6797340000     0.3479360000    -0.4862850000
   12      H       1.0498280000    -1.4580500000     1.5098070000
   13      H      -2.1854240000    -1.2153400000     0.1445830000
 ----------------------------------------------------------------
 Nuclear Repulsion Energy =   278.9106947968 hartrees
 There are       29 alpha and       29 beta electrons
 Requested basis set is 6-31G(d,p)
 There are 46 shells and 123 basis functions

 Total QAlloc Memory Limit   2000 MB
 Mega-Array Size       188 MB
 MEM_STATIC part       192 MB
A total of 1 constraints
  
            1
    1   1.0100000
    2   2.0100000
    3   4.0100000
    4   2.2000000
    5   2.2010000
    6   0.1000000
    7   0.0000000
    8   0.0000000
    9   0.0000000
   10   0.0000000

                       Distance Matrix (Angstroms)
             S (  1)   S (  2)   C (  3)   C (  4)   C (  5)   H (  6)
   S (  2)  3.642866
   C (  3)  1.853533  3.030510
   C (  4)  2.821312  2.100001  1.519411
   C (  5)  2.808320  4.417924  1.536469  2.510347
   H (  6)  2.355711  3.063487  1.093944  2.141072  2.161413
   H (  7)  3.026093  2.602784  2.201519  1.089746  2.901855  3.074528
   H (  8)  3.801366  2.549937  2.180576  1.091221  2.743453  2.538366
   H (  9)  3.782232  4.645647  2.175744  2.748964  1.095703  2.510569
   H ( 10)  3.064498  4.812277  2.185324  2.780080  1.095400  3.079247
   H ( 11)  2.956442  5.194744  2.176874  3.463951  1.092451  2.497759
   H ( 12)  1.349141  4.227620  2.406748  3.035344  2.866759  3.288091
   H ( 13)  2.895607  1.348356  3.038371  2.550034  4.523811  3.193952
             H (  7)   H (  8)   H (  9)   H ( 10)   H ( 11)   H ( 12)
   H (  8)  1.793158
   H (  9)  3.265942  2.528981
   H ( 10)  2.744258  3.088083  1.771067
   H ( 11)  3.889463  3.753035  1.776231  1.771633
   H ( 12)  2.773106  4.009501  3.898166  2.607912  3.146834
   H ( 13)  2.807429  3.390820  5.043067  4.829570  5.148941  3.519886

 
 A cutoff of  1.0D-14 yielded   1025 shell pairs
 There are      7488 function pairs
 
 -------------------------------------------------------
 OpenMP Integral Computing Module                       
 Release: version 1.0, May 2013, Q-Chem Inc. Pittsburgh 
 -------------------------------------------------------
 Integral Job Info:
 Integral job number is                      11
 Integral operator is                         1
 short-range coefficients                     0
 long-range coefficients              100000000
 Omega coefficients                           0
 if combine SR and LR in K                    0
 Integral screening is                        0
 Integral computing path is                   2
 max size of driver memory is            800000
 size of driver memory is                593474
 size of scratch memory is             15267112
 max col of scratch BK array               1296
 max len of scratch array in speh3          155
 max len of scratch index in speh4           18
 max int batch size is                      520
 min int batch size is                       52
 fixed nKL is                                52
 max L of basis functions is                  2
 order of int derivative is                   0
 number of shells is                         46
 number of basis is                         123
 number of cartesian basis is               123
 number of contracted shell pairs          1025
 number of primitive shell pairs           3907
 maxK2 (contraction) of shell pair           36
 max number of K2 of shell pair               1
 max number of CS2 of shell pair             81
 max number of PS2 of shell pair            354
 mem total for path MDJ                  519084
 -------------------------------------------------------
 Smallest overlap matrix eigenvalue = 5.68E-03

 Scale SEOQF with 1.000000e-01/1.000000e-01/1.000000e+00

 Standard Electronic Orientation quadrupole field applied
 Nucleus-field energy     =    -0.0000000015 hartrees
 Guess from superposition of atomic densities
 Warning:  Energy on first SCF cycle will be non-variational
 SAD guess density has 58.000000 electrons

 -----------------------------------------------------------------------
  General SCF calculation program by
  Eric Jon Sundstrom, Paul Horn, Yuezhi Mao, Dmitri Zuev, Alec White,
  David Stuck, Shaama M.S., Shane Yost, Joonho Lee, David Small,
  Daniel Levine, Susi Lehtola, Hugh Burton, Evgeny Epifanovsky
 -----------------------------------------------------------------------
 Exchange:     0.2000 Hartree-Fock + 0.0800 Slater + 0.7200 B88
 Correlation:  0.1900 VWN1RPA + 0.8100 LYP
 Using SG-1 standard quadrature grid
 using 12 threads for integral computing
 -------------------------------------------------------
 OpenMP Integral computing Module                
 Release: version 1.0, May 2013, Q-Chem Inc. Pittsburgh 
 -------------------------------------------------------
 -------------------------------------------------------
 OpenMP BLAS3 based DFT computing Module                
 Release: version 1.0, May 2013, Q-Chem Inc. Pittsburgh 
 -------------------------------------------------------
 A unrestricted SCF calculation will be
 performed using DIIS
 SCF converges when DIIS error is below 1.0e-06
 Alpha HF Exchange    Energy =  -6.84507496299728
 Beta HF Exchange     Energy =  -6.84507496299728
 DFT Correlation      Energy =  -2.70948893978038
 DFT Exchange         Energy = -53.84786993868352
 One-Electron (alpha) Energy = -904.86436811292276
 One-Electron (beta)  Energy = -904.86436811292276
 Total Coulomb        Energy = 685.09999297280217
 ---------------------------------------
  Cycle       Energy         DIIS error
 ---------------------------------------
    1    -915.9655572621      2.69e-02  
 Alpha HF Exchange    Energy =  -6.85879932806068
 Beta HF Exchange     Energy =  -6.85879932806067
 DFT Correlation      Energy =  -2.73567374408841
 DFT Exchange         Energy = -54.42934635045874
 One-Electron (alpha) Energy = -908.68509993110479
 One-Electron (beta)  Energy = -908.68509993110456
 Total Coulomb        Energy = 693.89046525036497
    2    -915.4516585671      2.65e-03  
 Alpha HF Exchange    Energy =  -6.80804635481110
 Beta HF Exchange     Energy =  -6.80804635481111
 DFT Correlation      Energy =  -2.71178453938143
 DFT Exchange         Energy = -53.99768156061702
 One-Electron (alpha) Energy = -904.93446643864183
 One-Electron (beta)  Energy = -904.93446643864240
 Total Coulomb        Energy = 685.84762527534531
    3    -915.4361716162      3.01e-03  
 Alpha HF Exchange    Energy =  -6.83074855568751
 Beta HF Exchange     Energy =  -6.83074855568751
 DFT Correlation      Energy =  -2.72374568517592
 DFT Exchange         Energy = -54.19135799087246
 One-Electron (alpha) Energy = -906.75980878596272
 One-Electron (beta)  Energy = -906.75980878596272
 Total Coulomb        Energy = 689.67684672373855
    4    -915.5086768402      5.81e-04  
 Alpha HF Exchange    Energy =  -6.83252166621426
 Beta HF Exchange     Energy =  -6.83252166621427
 DFT Correlation      Energy =  -2.72380138452740
 DFT Exchange         Energy = -54.20369559137361
 One-Electron (alpha) Energy = -906.83542263781590
 One-Electron (beta)  Energy = -906.83542263781612
 Total Coulomb        Energy = 689.84108303321239
    5    -915.5116077554      1.62e-04  
 Alpha HF Exchange    Energy =  -6.83238506305757
 Beta HF Exchange     Energy =  -6.83238506305758
 DFT Correlation      Energy =  -2.72381346782919
 DFT Exchange         Energy = -54.20298345848042
 One-Electron (alpha) Energy = -906.83129508863942
 One-Electron (beta)  Energy = -906.83129508863965
 Total Coulomb        Energy = 689.83165706337149
    6    -915.5118053710      5.04e-05  
 Alpha HF Exchange    Energy =  -6.83219321834666
 Beta HF Exchange     Energy =  -6.83219321834666
 DFT Correlation      Energy =  -2.72374005457873
 DFT Exchange         Energy = -54.20132723614717
 One-Electron (alpha) Energy = -906.81328082047639
 One-Electron (beta)  Energy = -906.81328082047651
 Total Coulomb        Energy = 689.79349633272318
    7    -915.5118242403      1.21e-05  
 Alpha HF Exchange    Energy =  -6.83222413218047
 Beta HF Exchange     Energy =  -6.83222413218046
 DFT Correlation      Energy =  -2.72375348528529
 DFT Exchange         Energy = -54.20157034472352
 One-Electron (alpha) Energy = -906.81681300365608
 One-Electron (beta)  Energy = -906.81681300365540
 Total Coulomb        Energy = 689.80087799208388
    8    -915.5118253142      2.92e-06  
 Alpha HF Exchange    Energy =  -6.83223589423034
 Beta HF Exchange     Energy =  -6.83223589423034
 DFT Correlation      Energy =  -2.72375768805790
 DFT Exchange         Energy = -54.20166265985311
 One-Electron (alpha) Energy = -906.81806070000948
 One-Electron (beta)  Energy = -906.81806070000926
 Total Coulomb        Energy = 689.80349336460608
    9    -915.5118253764      8.24e-07  Convergence criterion met
 ---------------------------------------
 SCF time:   CPU 29.12s  wall 2.00s 
<S^2> =         -0.000000000
 Alpha HF Exchange    Energy =  -6.83223589423034
 Beta HF Exchange     Energy =  -6.83223589423034
 DFT Correlation      Energy =  -2.72375768805790
 DFT Exchange         Energy = -54.20166265985311
 One-Electron (alpha) Energy = -906.81806070000948
 One-Electron (beta)  Energy = -906.81806070000926
 Total Coulomb        Energy = 689.80349336460608
 Nuclear repulsion Energy = 278.91069479536560
 SCF   energy in the final basis set =     -915.5118253764
 Total energy in the final basis set =     -915.5118253764
 
 --------------------------------------------------------------
 
                    Orbital Energies (a.u.)
 --------------------------------------------------------------
 
 Alpha MOs
 -- Occupied --
-88.883 -88.872 -10.244 -10.242 -10.201  -7.946  -7.932  -5.911
 -5.907  -5.900  -5.897  -5.894  -5.887  -0.835  -0.732  -0.717
 -0.666  -0.592  -0.479  -0.456  -0.431  -0.417  -0.398  -0.378
 -0.364  -0.329  -0.309  -0.249  -0.236
 -- Virtual --
 -0.022   0.020   0.060   0.065   0.094   0.121   0.134   0.160
  0.161   0.169   0.204   0.214   0.325   0.331   0.353   0.368
  0.377   0.395   0.400   0.437   0.492   0.509   0.528   0.561
  0.572   0.649   0.662   0.670   0.716   0.740   0.752   0.786
  0.801   0.811   0.827   0.838   0.863   0.874   0.881   0.915
  0.926   0.941   0.961   0.995   1.042   1.125   1.153   1.192
  1.340   1.359   1.399   1.557   1.599   1.700   1.755   1.806
  1.839   1.887   2.025   2.035   2.037   2.056   2.077   2.085
  2.099   2.111   2.126   2.156   2.259   2.269   2.344   2.429
  2.516   2.562   2.586   2.621   2.708   2.722   2.738   2.758
  2.820   2.857   2.890   3.178   3.235   3.305   3.422   3.451
  3.466   3.966   3.985   4.250   4.437   4.580
 
 Beta MOs
 -- Occupied --
-88.883 -88.872 -10.244 -10.242 -10.201  -7.946  -7.932  -5.911
 -5.907  -5.900  -5.897  -5.894  -5.887  -0.835  -0.732  -0.717
 -0.666  -0.592  -0.479  -0.456  -0.431  -0.417  -0.398  -0.378
 -0.364  -0.329  -0.309  -0.249  -0.236
 -- Virtual --
 -0.022   0.020   0.060   0.065   0.094   0.121   0.134   0.160
  0.161   0.169   0.204   0.214   0.325   0.331   0.353   0.368
  0.377   0.395   0.400   0.437   0.492   0.509   0.528   0.561
  0.572   0.649   0.662   0.670   0.716   0.740   0.752   0.786
  0.801   0.811   0.827   0.838   0.863   0.874   0.881   0.915
  0.926   0.941   0.961   0.995   1.042   1.125   1.153   1.192
  1.340   1.359   1.399   1.557   1.599   1.700   1.755   1.806
  1.839   1.887   2.025   2.035   2.037   2.056   2.077   2.085
  2.099   2.111   2.126   2.156   2.259   2.269   2.344   2.429
  2.516   2.562   2.586   2.621   2.708   2.722   2.738   2.758
  2.820   2.857   2.890   3.178   3.235   3.305   3.422   3.451
  3.466   3.966   3.985   4.250   4.437   4.580
 --------------------------------------------------------------
 
          Ground-State Mulliken Net Atomic Charges

     Atom                 Charge (a.u.)    Spin (a.u.)
  --------------------------------------------------------
      1 S                    -0.037101      -0.000000
      2 S                    -0.127323      -0.000000
      3 C                    -0.209468       0.000000
      4 C                    -0.274409      -0.000000
      5 C                    -0.313141       0.000000
      6 H                     0.161736       0.000000
      7 H                     0.146878      -0.000000
      8 H                     0.146037      -0.000000
      9 H                     0.116153      -0.000000
     10 H                     0.112173       0.000000
     11 H                     0.135703       0.000000
     12 H                     0.058165       0.000000
     13 H                     0.084597       0.000000
  --------------------------------------------------------
  Sum of atomic charges =    -0.000000
  Sum of spin   charges =    -0.000000

 -----------------------------------------------------------------
                    Cartesian Multipole Moments
 -----------------------------------------------------------------
    Charge (ESU x 10^10)
                -0.0000
    Dipole Moment (Debye)
         X       2.3140      Y       1.3299      Z       1.0520
       Tot       2.8688
    Quadrupole Moments (Debye-Ang)
        XX     -53.4229     XY       2.8127     YY     -47.2497
        XZ       0.2410     YZ      -1.3726     ZZ     -45.5669
    Octopole Moments (Debye-Ang^2)
       XXX      54.5695    XXY       6.4068    XYY       6.6587
       YYY      38.1886    XXZ      -1.6049    XYZ      -1.7647
       YYZ      -0.4928    XZZ      18.3487    YZZ       7.8426
       ZZZ      -2.4938
    Hexadecapole Moments (Debye-Ang^3)
      XXXX    -855.8945   XXXY      44.5115   XXYY    -193.1665
      XYYY      22.6854   YYYY    -373.3465   XXXZ     -17.3249
      XXYZ       0.4637   XYYZ      -2.5781   YYYZ       5.5841
      XXZZ    -158.9424   XYZZ       3.2933   YYZZ     -75.2725
      XZZZ     -23.1863   YZZZ      11.4608   ZZZZ     -99.3332
 -----------------------------------------------------------------
 Calculating analytic gradient of the SCF energy
 Gradient of SCF Energy
            1           2           3           4           5           6
    1  -0.0000112  -0.0410986  -0.0000774   0.0412219   0.0000338   0.0000231
    2  -0.0000257  -0.0167753   0.0000223   0.0168258  -0.0000303   0.0000686
    3  -0.0000488  -0.0137121  -0.0000162   0.0137170   0.0000444  -0.0000105
            7           8           9          10          11          12
    1  -0.0000002  -0.0000455   0.0000134   0.0000027  -0.0000068  -0.0000081
    2  -0.0000488  -0.0000094   0.0000105  -0.0000375   0.0000013  -0.0000338
    3   0.0000016   0.0000003   0.0000372   0.0000117  -0.0000007  -0.0000397
           13
    1  -0.0000473
    2   0.0000323
    3   0.0000159
 Max gradient component =       4.122E-02
 RMS gradient           =       1.054E-02
 Gradient time:  CPU 11.56 s  wall 0.99 s
 Geometry Optimization Parameters
   NAtoms,    NIC,     NZ,  NCons,   NDum,   NFix, NCnnct, MaxDiis
       13      82       0       1       0       0       0       0


** CONSTRAINED OPTIMIZATION IN DELOCALIZED INTERNAL COORDINATES **
   Searching for a Minimum

   Optimization Cycle:   1

                       Coordinates (Angstroms)
     ATOM                X               Y               Z
      1  S         0.6687110000   -1.6947460000    0.2374440000
      2  S        -2.4996060000    0.0413240000   -0.2297820000
      3  C         0.5304130000    0.0845760000   -0.2630290000
      4  C        -0.6413790000    0.7993730000    0.3885690000
      5  C         1.8381240000    0.8473750000   -0.0007930000
      6  H         0.3551130000    0.0253910000   -1.3412130000
      7  H        -0.6570650000    0.7272370000    1.4758120000
      8  H        -0.7181580000    1.8407130000    0.0715850000
      9  H         1.7682560000    1.8693990000   -0.3895730000
     10  H         2.0511550000    0.9098110000    1.0718770000
     11  H         2.6797340000    0.3479360000   -0.4862850000
     12  H         1.0498280000   -1.4580500000    1.5098070000
     13  H        -2.1854240000   -1.2153400000    0.1445830000
   Point Group: c1    Number of degrees of freedom:    33


   Energy is   -915.511825376

              Constraints and their Current Values
                                        Value     Constraint
   Distance(Angs):        2   4             2.100001     2.200000

 Attempting to Generate Delocalized Internal Coordinates

   Using Lagrange Multiplier Algorithm


 34 Hessian modes will be used to form the next step
  Hessian Eigenvalues:
    -0.942538    0.045000    0.045000    0.045000    0.045000    0.073505
     0.076517    0.077635    0.080380    0.083068    0.083517    0.094994
     0.129680    0.144121    0.160000    0.160000    0.160000    0.160000
     0.160000    0.181816    0.208836    0.221159    0.223158    0.257041
     0.257648    0.288340    0.304233    0.341618    0.341960    0.343608
     0.345309    0.346719    0.348420    1.060965

 Minimum Search - Taking P-RFO Step
 Searching for Lamda that Maximizes Along the Constraint modes Only
 Value Taken    Lamda =   0.02951999
 Searching for Lamda that Minimizes Along All other modes
 Value Taken    Lamda =  -0.00857910
 Step Taken.  Stepsize is  0.184714

                             Maximum     Tolerance    Cnvgd?
         Gradient            0.188971       0.000300      NO
         Displacement        0.184700       0.001200      NO
         Energy change     *********       0.000001      NO


 New Cartesian Coordinates Obtained by Inverse Iteration

 Displacement from previous Coordinates is:  0.236938
 ----------------------------------------------------------------
             Standard Nuclear Orientation (Angstroms)
    I     Atom           X                Y                Z
 ----------------------------------------------------------------
    1      S       0.6800333239    -1.6896490719     0.2428568613
    2      S      -2.5742953118     0.0144971302    -0.2454460237
    3      C       0.5422243749     0.0892988812    -0.2589254301
    4      C      -0.6268226611     0.8059592154     0.3956465475
    5      C       1.8514878740     0.8510387702    -0.0015608595
    6      H       0.3634710499     0.0292024991    -1.3364922578
    7      H      -0.6392306533     0.7346526028     1.4829980080
    8      H      -0.7031098455     1.8472387871     0.0783255671
    9      H       1.7813962943     1.8727052034    -0.3912081845
   10      H       2.0679434610     0.9144134247     1.0703734606
   11      H       2.6911061003     0.3502599656    -0.4891379894
   12      H       1.0652775484    -1.4521676012     1.5138305249
   13      H      -2.2597795550    -1.2424508066     0.1277417755
 ----------------------------------------------------------------
 Nuclear Repulsion Energy =   275.9029861436 hartrees
 There are       29 alpha and       29 beta electrons

                       Distance Matrix (Angstroms)
             S (  1)   S (  2)   C (  3)   C (  4)   C (  5)   H (  6)
   S (  2)  3.705834
   C (  3)  1.853492  3.117446
   C (  4)  2.821219  2.197740  1.519453
   C (  5)  2.808405  4.510747  1.536442  2.510344
   H (  6)  2.355633  3.133859  1.093945  2.141107  2.161400
   H (  7)  3.025830  2.692697  2.201503  1.089758  2.901920  3.074507
   H (  8)  3.801280  2.639149  2.180584  1.091227  2.743131  2.538614
   H (  9)  3.782249  4.737746  2.175680  2.748928  1.095692  2.510493
   H ( 10)  3.064673  4.908321  2.185330  2.780069  1.095405  3.079258
   H ( 11)  2.956596  5.281721  2.176876  3.463980  1.092460  2.497793
   H ( 12)  1.349142  4.300308  2.406734  3.035239  2.866932  3.288059
   H ( 13)  2.975859  1.348372  3.126387  2.633307  4.615402  3.262289
             H (  7)   H (  8)   H (  9)   H ( 10)   H ( 11)   H ( 12)
   H (  8)  1.793051
   H (  9)  3.266075  2.528613
   H ( 10)  2.744333  3.087565  1.771060
   H ( 11)  3.889501  3.752821  1.776232  1.771631
   H ( 12)  2.772811  4.009233  3.898304  2.608198  3.147054
   H ( 13)  2.893413  3.460035  5.128802  4.926439  5.237226  3.608494

 
 Applying Cartesian multipole field
    Component          Value
    ---------          -----
     (2,0,0)        1.00000E-11
     (0,2,0)        2.00000E-11
     (0,0,2)       -3.00000E-10
 Nucleus-field energy     =    -0.0000000014 hartrees
 Requested basis set is 6-31G(d,p)
 There are 46 shells and 123 basis functions
 A cutoff of  1.0D-14 yielded   1021 shell pairs
 There are      7459 function pairs
 Smallest overlap matrix eigenvalue = 5.77E-03
 Guess from superposition of atomic densities
 Warning:  Energy on first SCF cycle will be non-variational
 SAD guess density has 58.000000 electrons

 -----------------------------------------------------------------------
  General SCF calculation program by
  Eric Jon Sundstrom, Paul Horn, Yuezhi Mao, Dmitri Zuev, Alec White,
  David Stuck, Shaama M.S., Shane Yost, Joonho Lee, David Small,
  Daniel Levine, Susi Lehtola, Hugh Burton, Evgeny Epifanovsky
 -----------------------------------------------------------------------
 Exchange:     0.2000 Hartree-Fock + 0.0800 Slater + 0.7200 B88
 Correlation:  0.1900 VWN1RPA + 0.8100 LYP
 Using SG-1 standard quadrature grid
 using 12 threads for integral computing
 -------------------------------------------------------
 OpenMP Integral computing Module                
 Release: version 1.0, May 2013, Q-Chem Inc. Pittsburgh 
 -------------------------------------------------------
 -------------------------------------------------------
 OpenMP BLAS3 based DFT computing Module                
 Release: version 1.0, May 2013, Q-Chem Inc. Pittsburgh 
 -------------------------------------------------------
 A unrestricted SCF calculation will be
 performed using DIIS
 SCF converges when DIIS error is below 1.0e-06
 Alpha HF Exchange    Energy =  -6.83990392696047
 Beta HF Exchange     Energy =  -6.83990392696047
 DFT Correlation      Energy =  -2.70742948643333
 DFT Exchange         Energy = -53.83796369542003
 One-Electron (alpha) Energy = -901.86441962985464
 One-Electron (beta)  Energy = -901.86441962985464
 Total Coulomb        Energy = 682.13073030045632
 ---------------------------------------
  Cycle       Energy         DIIS error
 ---------------------------------------
    1    -915.9203238529      2.66e-02  
 Alpha HF Exchange    Energy =  -6.85619685680448
 Beta HF Exchange     Energy =  -6.85619685680448
 DFT Correlation      Energy =  -2.73350430055750
 DFT Exchange         Energy = -54.41334713626794
 One-Electron (alpha) Energy = -905.64888612735513
 One-Electron (beta)  Energy = -905.64888612735524
 Total Coulomb        Energy = 690.80988459814250
    2    -915.4441466648      2.61e-03  
 Alpha HF Exchange    Energy =  -6.80599215647307
 Beta HF Exchange     Energy =  -6.80599215647307
 DFT Correlation      Energy =  -2.70996714701796
 DFT Exchange         Energy = -53.98601943315852
 One-Electron (alpha) Energy = -901.95944827125322
 One-Electron (beta)  Energy = -901.95944827125345
 Total Coulomb        Energy = 682.89322752709359
    3    -915.4306537664      2.93e-03  
 Alpha HF Exchange    Energy =  -6.82835879076584
 Beta HF Exchange     Energy =  -6.82835879076584
 DFT Correlation      Energy =  -2.72174366117074
 DFT Exchange         Energy = -54.17722480419376
 One-Electron (alpha) Energy = -903.74193879351128
 One-Electron (beta)  Energy = -903.74193879351174
 Total Coulomb        Energy = 686.63767407900536
    4    -915.4989034128      6.11e-04  
 Alpha HF Exchange    Energy =  -6.83015487019972
 Beta HF Exchange     Energy =  -6.83015487019972
 DFT Correlation      Energy =  -2.72175976855031
 DFT Exchange         Energy = -54.18943912847145
 One-Electron (alpha) Energy = -903.82223995392087
 One-Electron (beta)  Energy = -903.82223995392053
 Total Coulomb        Energy = 686.81079888482998
    5    -915.5022035183      1.81e-04  
 Alpha HF Exchange    Energy =  -6.83002565565771
 Beta HF Exchange     Energy =  -6.83002565565772
 DFT Correlation      Energy =  -2.72179366857125
 DFT Exchange         Energy = -54.18893183462294
 One-Electron (alpha) Energy = -903.81810973776510
 One-Electron (beta)  Energy = -903.81810973776544
 Total Coulomb        Energy = 686.80155216972810
    6    -915.5024579782      5.98e-05  
 Alpha HF Exchange    Energy =  -6.82983082130541
 Beta HF Exchange     Energy =  -6.82983082130540
 DFT Correlation      Energy =  -2.72171542397594
 DFT Exchange         Energy = -54.18721738724579
 One-Electron (alpha) Energy = -903.80048676360332
 One-Electron (beta)  Energy = -903.80048676360286
 Total Coulomb        Energy = 686.76409681732935
    7    -915.5024850215      1.40e-05  
 Alpha HF Exchange    Energy =  -6.82984573682318
 Beta HF Exchange     Energy =  -6.82984573682319
 DFT Correlation      Energy =  -2.72172331118649
 DFT Exchange         Energy = -54.18733116261487
 One-Electron (alpha) Energy = -903.80230004275938
 One-Electron (beta)  Energy = -903.80230004275995
 Total Coulomb        Energy = 686.76787345075059
    8    -915.5024864401      3.32e-06  
 Alpha HF Exchange    Energy =  -6.82986304501897
 Beta HF Exchange     Energy =  -6.82986304501897
 DFT Correlation      Energy =  -2.72172969913790
 DFT Exchange         Energy = -54.18746815818756
 One-Electron (alpha) Energy = -903.80416371929778
 One-Electron (beta)  Energy = -903.80416371929823
 Total Coulomb        Energy = 686.77177872133257
    9    -915.5024865225      8.70e-07  Convergence criterion met
 ---------------------------------------
 SCF time:   CPU 28.99s  wall 2.00s 
<S^2> =          0.000000000
 Alpha HF Exchange    Energy =  -6.82986304501897
 Beta HF Exchange     Energy =  -6.82986304501897
 DFT Correlation      Energy =  -2.72172969913790
 DFT Exchange         Energy = -54.18746815818756
 One-Electron (alpha) Energy = -903.80416371929778
 One-Electron (beta)  Energy = -903.80416371929823
 Total Coulomb        Energy = 686.77177872133257
 Nuclear repulsion Energy = 275.90298614216124
 SCF   energy in the final basis set =     -915.5024865225
 Total energy in the final basis set =     -915.5024865225
 
 --------------------------------------------------------------
 
                    Orbital Energies (a.u.)
 --------------------------------------------------------------
 
 Alpha MOs
 -- Occupied --
-88.883 -88.872 -10.247 -10.246 -10.203  -7.946  -7.932  -5.911
 -5.907  -5.900  -5.897  -5.894  -5.887  -0.835  -0.726  -0.717
 -0.670  -0.593  -0.479  -0.456  -0.431  -0.417  -0.398  -0.377
 -0.365  -0.330  -0.303  -0.249  -0.236
 -- Virtual --
 -0.040   0.019   0.059   0.065   0.093   0.121   0.133   0.159
  0.161   0.169   0.203   0.215   0.321   0.331   0.352   0.367
  0.378   0.395   0.405   0.437   0.493   0.509   0.530   0.559
  0.572   0.651   0.661   0.670   0.716   0.730   0.752   0.780
  0.796   0.810   0.827   0.837   0.859   0.873   0.880   0.905
  0.919   0.940   0.954   0.988   1.030   1.124   1.154   1.186
  1.334   1.355   1.387   1.548   1.590   1.698   1.753   1.802
  1.834   1.880   2.023   2.026   2.035   2.054   2.075   2.084
  2.100   2.108   2.122   2.149   2.255   2.266   2.342   2.426
  2.512   2.558   2.584   2.620   2.706   2.720   2.738   2.757
  2.816   2.855   2.888   3.176   3.233   3.303   3.420   3.448
  3.464   3.968   3.981   4.246   4.436   4.576
 
 Beta MOs
 -- Occupied --
-88.883 -88.872 -10.247 -10.246 -10.203  -7.946  -7.932  -5.911
 -5.907  -5.900  -5.897  -5.894  -5.887  -0.835  -0.726  -0.717
 -0.670  -0.593  -0.479  -0.456  -0.431  -0.417  -0.398  -0.377
 -0.365  -0.330  -0.303  -0.249  -0.236
 -- Virtual --
 -0.040   0.019   0.059   0.065   0.093   0.121   0.133   0.159
  0.161   0.169   0.203   0.215   0.321   0.331   0.352   0.367
  0.378   0.395   0.405   0.437   0.493   0.509   0.530   0.559
  0.572   0.651   0.661   0.670   0.716   0.730   0.752   0.780
  0.796   0.810   0.827   0.837   0.859   0.873   0.880   0.905
  0.919   0.940   0.954   0.988   1.030   1.124   1.154   1.186
  1.334   1.355   1.387   1.548   1.590   1.698   1.753   1.802
  1.834   1.880   2.023   2.026   2.035   2.054   2.075   2.084
  2.100   2.108   2.122   2.149   2.255   2.266   2.342   2.426
  2.512   2.558   2.584   2.620   2.706   2.720   2.738   2.757
  2.816   2.855   2.888   3.176   3.233   3.303   3.420   3.448
  3.464   3.968   3.981   4.246   4.436   4.576
 --------------------------------------------------------------
 
          Ground-State Mulliken Net Atomic Charges

     Atom                 Charge (a.u.)    Spin (a.u.)
  --------------------------------------------------------
      1 S                    -0.034621       0.000000
      2 S                    -0.153962      -0.000000
      3 C                    -0.211894      -0.000000
      4 C                    -0.251074       0.000000
      5 C                    -0.314283       0.000000
      6 H                     0.163433       0.000000
      7 H                     0.147010      -0.000000
      8 H                     0.146168      -0.000000
      9 H                     0.116937      -0.000000
     10 H                     0.112974      -0.000000
     11 H                     0.137685      -0.000000
     12 H                     0.057364      -0.000000
     13 H                     0.084262       0.000000
  --------------------------------------------------------
  Sum of atomic charges =     0.000000
  Sum of spin   charges =     0.000000

 -----------------------------------------------------------------
                    Cartesian Multipole Moments
 -----------------------------------------------------------------
    Charge (ESU x 10^10)
                 0.0000
    Dipole Moment (Debye)
         X       2.4835      Y       1.3687      Z       1.0718
       Tot       3.0315
    Quadrupole Moments (Debye-Ang)
        XX     -53.7549     XY       2.9309     YY     -47.1416
        XZ       0.2315     YZ      -1.3201     ZZ     -45.6013
    Octopole Moments (Debye-Ang^2)
       XXX      58.2074    XXY       6.3895    XYY       7.1816
       YYY      38.6307    XXZ      -1.5041    XYZ      -1.7547
       YYZ      -0.3712    XZZ      19.3462    YZZ       8.1457
       ZZZ      -2.1116
    Hexadecapole Moments (Debye-Ang^3)
      XXXX    -895.4910   XXXY      42.8346   XXYY    -198.1980
      XYYY      20.3599   YYYY    -372.1213   XXXZ     -19.8232
      XXYZ       0.2002   XYYZ      -3.4482   YYYZ       5.5890
      XXZZ    -165.6602   XYZZ       2.1675   YYZZ     -75.3302
      XZZZ     -25.9502   YZZZ      11.3641   ZZZZ    -100.3125
 -----------------------------------------------------------------
 Calculating analytic gradient of the SCF energy
 Gradient of SCF Energy
            1           2           3           4           5           6
    1   0.0000300  -0.0467440   0.0032355   0.0393902   0.0002451  -0.0001862
    2  -0.0000681  -0.0194753   0.0018084   0.0167477  -0.0010056  -0.0000330
    3   0.0000279  -0.0153528   0.0005084   0.0139682  -0.0004108   0.0000136
            7           8           9          10          11          12
    1   0.0024834   0.0023252  -0.0001082  -0.0000321   0.0002148   0.0000362
    2   0.0012993   0.0008338  -0.0000168  -0.0000253   0.0001856  -0.0000117
    3   0.0004144   0.0009721   0.0000363   0.0000308   0.0000815  -0.0000299
           13
    1  -0.0008899
    2  -0.0002389
    3  -0.0002597
 Max gradient component =       4.674E-02
 RMS gradient           =       1.116E-02
 Gradient time:  CPU 11.33 s  wall 0.96 s
 Geometry Optimization Parameters
   NAtoms,    NIC,     NZ,  NCons,   NDum,   NFix, NCnnct, MaxDiis
       13      82       0       1       0       0       0       0

 Cartesian Hessian Update
 Hessian Updated using BFGS Update


** CONSTRAINED OPTIMIZATION IN DELOCALIZED INTERNAL COORDINATES **
   Searching for a Minimum

   Optimization Cycle:   2

                       Coordinates (Angstroms)
     ATOM                X               Y               Z
      1  S         0.6800333239   -1.6896490719    0.2428568613
      2  S        -2.5742953118    0.0144971302   -0.2454460237
      3  C         0.5422243749    0.0892988812   -0.2589254301
      4  C        -0.6268226611    0.8059592154    0.3956465475
      5  C         1.8514878740    0.8510387702   -0.0015608595
      6  H         0.3634710499    0.0292024991   -1.3364922578
      7  H        -0.6392306533    0.7346526028    1.4829980080
      8  H        -0.7031098455    1.8472387871    0.0783255671
      9  H         1.7813962943    1.8727052034   -0.3912081845
     10  H         2.0679434610    0.9144134247    1.0703734606
     11  H         2.6911061003    0.3502599656   -0.4891379894
     12  H         1.0652775484   -1.4521676012    1.5138305249
     13  H        -2.2597795550   -1.2424508066    0.1277417755
   Point Group: c1    Number of degrees of freedom:    33


   Energy is   -915.502486522

              Constraints and their Current Values
                                        Value     Constraint
   Distance(Angs):        2   4             2.197740     2.200000
 Hessian Updated using BFGS Update

   Using Lagrange Multiplier Algorithm


 29 Hessian modes will be used to form the next step
  Hessian Eigenvalues:
    -0.980681    0.044998    0.045011    0.073508    0.077012    0.077654
     0.083059    0.083507    0.087435    0.095030    0.134511    0.144206
     0.160000    0.165178    0.181843    0.210226    0.223146    0.223543
     0.257042    0.257648    0.288374    0.308047    0.341619    0.341960
     0.343608    0.345311    0.346827    0.348502    1.020772

 Minimum Search - Taking P-RFO Step
 Searching for Lamda that Maximizes Along the Constraint modes Only
 Value Taken    Lamda =   0.00002688
 Searching for Lamda that Minimizes Along All other modes
 Value Taken    Lamda =  -0.00036990
 Step Taken.  Stepsize is  0.044439

                             Maximum     Tolerance    Cnvgd?
         Gradient            0.011525       0.000300      NO
         Displacement        0.026537       0.001200      NO
         Energy change      0.009339       0.000001      NO


 New Cartesian Coordinates Obtained by Inverse Iteration

 Displacement from previous Coordinates is:  0.064310
 ----------------------------------------------------------------
             Standard Nuclear Orientation (Angstroms)
    I     Atom           X                Y                Z
 ----------------------------------------------------------------
    1      S       0.6722549612    -1.6898915773     0.2425216017
    2      S      -2.5669817835     0.0122360413    -0.2475212620
    3      C       0.5398221796     0.0895249094    -0.2585139242
    4      C      -0.6212863306     0.8106111127     0.3981249321
    5      C       1.8503639001     0.8500388578    -0.0021428027
    6      H       0.3598296109     0.0302541482    -1.3358993952
    7      H      -0.6480261320     0.7346063537     1.4845312513
    8      H      -0.7109301191     1.8496067526     0.0783803283
    9      H       1.7826712475     1.8718919570    -0.3917611382
   10      H       2.0687526157     0.9128000228     1.0694219753
   11      H       2.6871283727     0.3462496233    -0.4914011344
   12      H       1.0593902084    -1.4544153491     1.5132532400
   13      H      -2.2332867308    -1.2385138525     0.1300083281
 ----------------------------------------------------------------
 Nuclear Repulsion Energy =   276.2130624062 hartrees
 There are       29 alpha and       29 beta electrons

                       Distance Matrix (Angstroms)
             S (  1)   S (  2)   C (  3)   C (  4)   C (  5)   H (  6)
   S (  2)  3.691888
   C (  3)  1.853348  3.107785
   C (  4)  2.819570  2.199998  1.516349
   C (  5)  2.810524  4.502784  1.536759  2.504161
   H (  6)  2.355403  3.122678  1.093924  2.139716  2.161630
   H (  7)  3.027197  2.684067  2.205747  1.089390  2.909549  3.076803
   H (  8)  3.803708  2.631933  2.185353  1.090772  2.750608  2.541015
   H (  9)  3.784394  4.732717  2.176984  2.743948  1.095705  2.511475
   H ( 10)  3.067242  4.902590  2.186052  2.774417  1.095392  3.079753
   H ( 11)  2.957064  5.270362  2.175102  3.457238  1.092407  2.495867
   H ( 12)  1.349104  4.289751  2.406836  3.032908  2.869246  3.288054
   H ( 13)  2.942545  1.348427  3.099156  2.620944  4.588651  3.237732
             H (  7)   H (  8)   H (  9)   H ( 10)   H ( 11)   H ( 12)
   H (  8)  1.795673
   H (  9)  3.274474  2.537632
   H ( 10)  2.754080  3.096192  1.771089
   H ( 11)  3.895945  3.759193  1.776388  1.771874
   H ( 12)  2.776313  4.013659  3.900838  2.611419  3.148105
   H ( 13)  2.870712  3.443359  5.106348  4.900836  5.206545  3.577947

 
 Applying Cartesian multipole field
    Component          Value
    ---------          -----
     (2,0,0)        1.00000E-11
     (0,2,0)        2.00000E-11
     (0,0,2)       -3.00000E-10
 Nucleus-field energy     =    -0.0000000015 hartrees
 Requested basis set is 6-31G(d,p)
 There are 46 shells and 123 basis functions
 A cutoff of  1.0D-14 yielded   1021 shell pairs
 There are      7459 function pairs
 Smallest overlap matrix eigenvalue = 5.75E-03
 Guess from superposition of atomic densities
 Warning:  Energy on first SCF cycle will be non-variational
 SAD guess density has 58.000000 electrons

 -----------------------------------------------------------------------
  General SCF calculation program by
  Eric Jon Sundstrom, Paul Horn, Yuezhi Mao, Dmitri Zuev, Alec White,
  David Stuck, Shaama M.S., Shane Yost, Joonho Lee, David Small,
  Daniel Levine, Susi Lehtola, Hugh Burton, Evgeny Epifanovsky
 -----------------------------------------------------------------------
 Exchange:     0.2000 Hartree-Fock + 0.0800 Slater + 0.7200 B88
 Correlation:  0.1900 VWN1RPA + 0.8100 LYP
 Using SG-1 standard quadrature grid
 using 12 threads for integral computing
 -------------------------------------------------------
 OpenMP Integral computing Module                
 Release: version 1.0, May 2013, Q-Chem Inc. Pittsburgh 
 -------------------------------------------------------
 -------------------------------------------------------
 OpenMP BLAS3 based DFT computing Module                
 Release: version 1.0, May 2013, Q-Chem Inc. Pittsburgh 
 -------------------------------------------------------
 A unrestricted SCF calculation will be
 performed using DIIS
 SCF converges when DIIS error is below 1.0e-06
 Alpha HF Exchange    Energy =  -6.84027775926728
 Beta HF Exchange     Energy =  -6.84027775926728
 DFT Correlation      Energy =  -2.70758822686187
 DFT Exchange         Energy = -53.83869155228825
 One-Electron (alpha) Energy = -902.17299963102312
 One-Electron (beta)  Energy = -902.17299963102312
 Total Coulomb        Energy = 682.43626214315566
 ---------------------------------------
  Cycle       Energy         DIIS error
 ---------------------------------------
    1    -915.9235100119      2.66e-02  
 Alpha HF Exchange    Energy =  -6.85635781564041
 Beta HF Exchange     Energy =  -6.85635781564041
 DFT Correlation      Energy =  -2.73366753146235
 DFT Exchange         Energy = -54.41470503491334
 One-Electron (alpha) Energy = -905.95958178252954
 One-Electron (beta)  Energy = -905.95958178252920
 Total Coulomb        Energy = 691.12304484415347
    2    -915.4441445139      2.60e-03  
 Alpha HF Exchange    Energy =  -6.80613024009498
 Beta HF Exchange     Energy =  -6.80613024009499
 DFT Correlation      Energy =  -2.71014319072564
 DFT Exchange         Energy = -53.98718266447142
 One-Electron (alpha) Energy = -902.27032130015016
 One-Electron (beta)  Energy = -902.27032130015061
 Total Coulomb        Energy = 683.20627725626059
    3    -915.4308892747      2.92e-03  
 Alpha HF Exchange    Energy =  -6.82850172744385
 Beta HF Exchange     Energy =  -6.82850172744384
 DFT Correlation      Energy =  -2.72191499376985
 DFT Exchange         Energy = -54.17841997153627
 One-Electron (alpha) Energy = -904.05167200066114
 One-Electron (beta)  Energy = -904.05167200066103
 Total Coulomb        Energy = 686.94878290671841
    4    -915.4988371101      6.12e-04  
 Alpha HF Exchange    Energy =  -6.83029507520513
 Beta HF Exchange     Energy =  -6.83029507520514
 DFT Correlation      Energy =  -2.72192364524595
 DFT Exchange         Energy = -54.19058899742812
 One-Electron (alpha) Energy = -904.13187315606024
 One-Electron (beta)  Energy = -904.13187315606035
 Total Coulomb        Energy = 687.12163934193723
    5    -915.5021473586      1.82e-04  
 Alpha HF Exchange    Energy =  -6.83016722406669
 Beta HF Exchange     Energy =  -6.83016722406668
 DFT Correlation      Energy =  -2.72196042157665
 DFT Exchange         Energy = -54.19010548261243
 One-Electron (alpha) Energy = -904.12796091799123
 One-Electron (beta)  Energy = -904.12796091799078
 Total Coulomb        Energy = 687.11285433916703
    6    -915.5024054444      6.02e-05  
 Alpha HF Exchange    Energy =  -6.82997223543684
 Beta HF Exchange     Energy =  -6.82997223543684
 DFT Correlation      Energy =  -2.72188166331997
 DFT Exchange         Energy = -54.18838725503429
 One-Electron (alpha) Energy = -904.11029653578305
 One-Electron (beta)  Energy = -904.11029653578316
 Total Coulomb        Energy = 687.07531111242793
    7    -915.5024329437      1.40e-05  
 Alpha HF Exchange    Energy =  -6.82998684077280
 Beta HF Exchange     Energy =  -6.82998684077279
 DFT Correlation      Energy =  -2.72188942927485
 DFT Exchange         Energy = -54.18849832890366
 One-Electron (alpha) Energy = -904.11205905412714
 One-Electron (beta)  Energy = -904.11205905412726
 Total Coulomb        Energy = 687.07898279250855
    8    -915.5024343508      3.32e-06  
 Alpha HF Exchange    Energy =  -6.83000416951859
 Beta HF Exchange     Energy =  -6.83000416951858
 DFT Correlation      Energy =  -2.72189581788263
 DFT Exchange         Energy = -54.18863546362397
 One-Electron (alpha) Energy = -904.11393151398329
 One-Electron (beta)  Energy = -904.11393151398272
 Total Coulomb        Energy = 687.08290581045446
    9    -915.5024344333      8.71e-07  Convergence criterion met
 ---------------------------------------
 SCF time:   CPU 28.87s  wall 2.00s 
<S^2> =         -0.000000000
 Alpha HF Exchange    Energy =  -6.83000416951859
 Beta HF Exchange     Energy =  -6.83000416951858
 DFT Correlation      Energy =  -2.72189581788263
 DFT Exchange         Energy = -54.18863546362397
 One-Electron (alpha) Energy = -904.11393151398329
 One-Electron (beta)  Energy = -904.11393151398272
 Total Coulomb        Energy = 687.08290581045446
 Nuclear repulsion Energy = 276.21306240470807
 SCF   energy in the final basis set =     -915.5024344333
 Total energy in the final basis set =     -915.5024344333
 
 --------------------------------------------------------------
 
                    Orbital Energies (a.u.)
 --------------------------------------------------------------
 
 Alpha MOs
 -- Occupied --
-88.884 -88.871 -10.247 -10.246 -10.203  -7.946  -7.931  -5.911
 -5.908  -5.901  -5.896  -5.893  -5.886  -0.835  -0.726  -0.717
 -0.669  -0.594  -0.479  -0.457  -0.432  -0.417  -0.398  -0.377
 -0.365  -0.331  -0.302  -0.249  -0.235
 -- Virtual --
 -0.040   0.018   0.059   0.065   0.093   0.121   0.133   0.159
  0.162   0.168   0.203   0.215   0.322   0.331   0.352   0.367
  0.377   0.396   0.406   0.438   0.492   0.509   0.529   0.560
  0.572   0.651   0.662   0.671   0.716   0.730   0.752   0.783
  0.797   0.808   0.826   0.837   0.859   0.872   0.879   0.906
  0.920   0.940   0.953   0.989   1.031   1.124   1.155   1.187
  1.335   1.355   1.388   1.548   1.592   1.694   1.751   1.802
  1.835   1.882   2.023   2.028   2.032   2.054   2.074   2.083
  2.100   2.108   2.122   2.152   2.261   2.264   2.342   2.428
  2.515   2.553   2.586   2.619   2.707   2.719   2.738   2.758
  2.816   2.854   2.890   3.177   3.234   3.304   3.420   3.450
  3.463   3.968   3.982   4.248   4.436   4.576
 
 Beta MOs
 -- Occupied --
-88.884 -88.871 -10.247 -10.246 -10.203  -7.946  -7.931  -5.911
 -5.908  -5.901  -5.896  -5.893  -5.886  -0.835  -0.726  -0.717
 -0.669  -0.594  -0.479  -0.457  -0.432  -0.417  -0.398  -0.377
 -0.365  -0.331  -0.302  -0.249  -0.235
 -- Virtual --
 -0.040   0.018   0.059   0.065   0.093   0.121   0.133   0.159
  0.162   0.168   0.203   0.215   0.322   0.331   0.352   0.367
  0.377   0.396   0.406   0.438   0.492   0.509   0.529   0.560
  0.572   0.651   0.662   0.671   0.716   0.730   0.752   0.783
  0.797   0.808   0.826   0.837   0.859   0.872   0.879   0.906
  0.920   0.940   0.953   0.989   1.031   1.124   1.155   1.187
  1.335   1.355   1.388   1.548   1.592   1.694   1.751   1.802
  1.835   1.882   2.023   2.028   2.032   2.054   2.074   2.083
  2.100   2.108   2.122   2.152   2.261   2.264   2.342   2.428
  2.515   2.553   2.586   2.619   2.707   2.719   2.738   2.758
  2.816   2.854   2.890   3.177   3.234   3.304   3.420   3.450
  3.463   3.968   3.982   4.248   4.436   4.576
 --------------------------------------------------------------
 
          Ground-State Mulliken Net Atomic Charges

     Atom                 Charge (a.u.)    Spin (a.u.)
  --------------------------------------------------------
      1 S                    -0.033925      -0.000000
      2 S                    -0.157365       0.000000
      3 C                    -0.211602      -0.000000
      4 C                    -0.251693      -0.000000
      5 C                    -0.314293       0.000000
      6 H                     0.164040       0.000000
      7 H                     0.148228       0.000000
      8 H                     0.147191      -0.000000
      9 H                     0.117206      -0.000000
     10 H                     0.113047       0.000000
     11 H                     0.137371      -0.000000
     12 H                     0.057723       0.000000
     13 H                     0.084071      -0.000000
  --------------------------------------------------------
  Sum of atomic charges =    -0.000000
  Sum of spin   charges =    -0.000000

 -----------------------------------------------------------------
                    Cartesian Multipole Moments
 -----------------------------------------------------------------
    Charge (ESU x 10^10)
                -0.0000
    Dipole Moment (Debye)
         X       2.5224      Y       1.3772      Z       1.0842
       Tot       3.0716
    Quadrupole Moments (Debye-Ang)
        XX     -53.8855     XY       2.8239     YY     -47.1027
        XZ       0.2100     YZ      -1.3295     ZZ     -45.5814
    Octopole Moments (Debye-Ang^2)
       XXX      58.6262    XXY       6.6735    XYY       7.2442
       YYY      38.6751    XXZ      -1.4698    XYZ      -1.7644
       YYZ      -0.3298    XZZ      19.3077    YZZ       8.1677
       ZZZ      -2.0093
    Hexadecapole Moments (Debye-Ang^3)
      XXXX    -892.3951   XXXY      41.2006   XXYY    -197.5508
      XYYY      19.5863   YYYY    -372.0448   XXXZ     -19.8170
      XXYZ       0.2411   XYYZ      -3.4586   YYYZ       5.4357
      XXZZ    -164.8442   XYZZ       1.9446   YYZZ     -75.3563
      XZZZ     -26.0496   YZZZ      11.2787   ZZZZ    -100.3767
 -----------------------------------------------------------------
 Calculating analytic gradient of the SCF energy
 Gradient of SCF Energy
            1           2           3           4           5           6
    1  -0.0001641  -0.0463432   0.0019232   0.0428131  -0.0002733  -0.0000806
    2  -0.0001722  -0.0192036   0.0009472   0.0171734  -0.0003743  -0.0001175
    3  -0.0000325  -0.0155259   0.0002085   0.0143536  -0.0001280  -0.0000588
            7           8           9          10          11          12
    1   0.0013829   0.0010578   0.0000284   0.0000055  -0.0000647   0.0000062
    2   0.0010193   0.0005989   0.0000865   0.0000248   0.0000222  -0.0000192
    3   0.0003734   0.0007824   0.0000712   0.0000461   0.0000118  -0.0000498
           13
    1  -0.0002913
    2   0.0000145
    3  -0.0000520
 Max gradient component =       4.634E-02
 RMS gradient           =       1.144E-02
 Gradient time:  CPU 11.65 s  wall 1.03 s
 Geometry Optimization Parameters
   NAtoms,    NIC,     NZ,  NCons,   NDum,   NFix, NCnnct, MaxDiis
       13      82       0       1       0       0       0       0

 Cartesian Hessian Update
 Hessian Updated using BFGS Update


** CONSTRAINED OPTIMIZATION IN DELOCALIZED INTERNAL COORDINATES **
   Searching for a Minimum

   Optimization Cycle:   3

                       Coordinates (Angstroms)
     ATOM                X               Y               Z
      1  S         0.6722549612   -1.6898915773    0.2425216017
      2  S        -2.5669817835    0.0122360413   -0.2475212620
      3  C         0.5398221796    0.0895249094   -0.2585139242
      4  C        -0.6212863306    0.8106111127    0.3981249321
      5  C         1.8503639001    0.8500388578   -0.0021428027
      6  H         0.3598296109    0.0302541482   -1.3358993952
      7  H        -0.6480261320    0.7346063537    1.4845312513
      8  H        -0.7109301191    1.8496067526    0.0783803283
      9  H         1.7826712475    1.8718919570   -0.3917611382
     10  H         2.0687526157    0.9128000228    1.0694219753
     11  H         2.6871283727    0.3462496233   -0.4914011344
     12  H         1.0593902084   -1.4544153491    1.5132532400
     13  H        -2.2332867308   -1.2385138525    0.1300083281
   Point Group: c1    Number of degrees of freedom:    33


   Energy is   -915.502434433

              Constraints and their Current Values
                                        Value     Constraint
   Distance(Angs):        2   4             2.199998     2.200000
 Hessian Updated using BFGS Update

   Using Lagrange Multiplier Algorithm


 31 Hessian modes will be used to form the next step
  Hessian Eigenvalues:
    -0.978791    0.043938    0.045000    0.045042    0.050429    0.073533
     0.077379    0.077768    0.083107    0.083543    0.094957    0.127619
     0.143945    0.159150    0.160000    0.165956    0.183607    0.213662
     0.222502    0.226199    0.257048    0.257691    0.288296    0.303502
     0.341689    0.341974    0.343666    0.345450    0.346473    0.348324
     1.022964

 Minimum Search - Taking P-RFO Step
 Searching for Lamda that Maximizes Along the Constraint modes Only
 Value Taken    Lamda =   0.00000000
 Searching for Lamda that Minimizes Along All other modes
 Value Taken    Lamda =  -0.00011966
 Step Taken.  Stepsize is  0.048177

                             Maximum     Tolerance    Cnvgd?
         Gradient            0.001348       0.000300      NO
         Displacement        0.028652       0.001200      NO
         Energy change      0.000052       0.000001      NO


 New Cartesian Coordinates Obtained by Inverse Iteration

 Displacement from previous Coordinates is:  0.056172
 ----------------------------------------------------------------
             Standard Nuclear Orientation (Angstroms)
    I     Atom           X                Y                Z
 ----------------------------------------------------------------
    1      S       0.6674178680    -1.6883161868     0.2434643093
    2      S      -2.5600582715     0.0114962363    -0.2478473525
    3      C       0.5369535866     0.0907519921    -0.2570944424
    4      C      -0.6178119898     0.8155794177     0.4010974331
    5      C       1.8513671434     0.8479915277    -0.0031434259
    6      H       0.3552889224     0.0334858089    -1.3340927943
    7      H      -0.6607515517     0.7314931817     1.4856959501
    8      H      -0.7197300202     1.8513220973     0.0768679435
    9      H       1.7852197356     1.8696919838    -0.3929020780
   10      H       2.0720890878     0.9095957426     1.0679051655
   11      H       2.6861000513     0.3421122163    -0.4941456676
   12      H       1.0573476692    -1.4540620658     1.5135986178
   13      H      -2.2137302310    -1.2361429518     0.1295983415
 ----------------------------------------------------------------
 Nuclear Repulsion Energy =   276.4986350130 hartrees
 There are       29 alpha and       29 beta electrons

                       Distance Matrix (Angstroms)
             S (  1)   S (  2)   C (  3)   C (  4)   C (  5)   H (  6)
   S (  2)  3.680673
   C (  3)  1.852745  3.098040
   C (  4)  2.818893  2.200000  1.513960
   C (  5)  2.809877  4.496696  1.538046  2.502260
   H (  6)  2.355995  3.111216  1.093712  2.137634  2.161734
   H (  7)  3.026987  2.670381  2.209607  1.088700  2.922491  3.077460
   H (  8)  3.805387  2.622443  2.188696  1.090080  2.761089  2.539883
   H (  9)  3.783367  4.728147  2.177439  2.741560  1.095518  2.510417
   H ( 10)  3.066260  4.898426  2.186955  2.772912  1.095289  3.079702
   H ( 11)  2.956651  5.262333  2.176742  3.455643  1.092601  2.496686
   H ( 12)  1.349134  4.282076  2.406785  3.032341  2.868872  3.288622
   H ( 13)  2.918637  1.348707  3.078383  2.613471  4.570148  3.217796
             H (  7)   H (  8)   H (  9)   H ( 10)   H ( 11)   H ( 12)
   H (  8)  1.800636
   H (  9)  3.287461  2.548685
   H ( 10)  2.770323  3.108578  1.771450
   H ( 11)  3.908044  3.768746  1.776326  1.771736
   H ( 12)  2.780161  4.018428  3.900241  2.610598  3.148033
   H ( 13)  2.849971  3.430344  5.090267  4.883939  5.185391  3.558496

 
 Applying Cartesian multipole field
    Component          Value
    ---------          -----
     (2,0,0)        1.00000E-11
     (0,2,0)        2.00000E-11
     (0,0,2)       -3.00000E-10
 Nucleus-field energy     =    -0.0000000016 hartrees
 Requested basis set is 6-31G(d,p)
 There are 46 shells and 123 basis functions
 A cutoff of  1.0D-14 yielded   1021 shell pairs
 There are      7459 function pairs
 Smallest overlap matrix eigenvalue = 5.75E-03
 Guess from superposition of atomic densities
 Warning:  Energy on first SCF cycle will be non-variational
 SAD guess density has 58.000000 electrons

 -----------------------------------------------------------------------
  General SCF calculation program by
  Eric Jon Sundstrom, Paul Horn, Yuezhi Mao, Dmitri Zuev, Alec White,
  David Stuck, Shaama M.S., Shane Yost, Joonho Lee, David Small,
  Daniel Levine, Susi Lehtola, Hugh Burton, Evgeny Epifanovsky
 -----------------------------------------------------------------------
 Exchange:     0.2000 Hartree-Fock + 0.0800 Slater + 0.7200 B88
 Correlation:  0.1900 VWN1RPA + 0.8100 LYP
 Using SG-1 standard quadrature grid
 using 12 threads for integral computing
 -------------------------------------------------------
 OpenMP Integral computing Module                
 Release: version 1.0, May 2013, Q-Chem Inc. Pittsburgh 
 -------------------------------------------------------
 -------------------------------------------------------
 OpenMP BLAS3 based DFT computing Module                
 Release: version 1.0, May 2013, Q-Chem Inc. Pittsburgh 
 -------------------------------------------------------
 A unrestricted SCF calculation will be
 performed using DIIS
 SCF converges when DIIS error is below 1.0e-06
 Alpha HF Exchange    Energy =  -6.84061111622947
 Beta HF Exchange     Energy =  -6.84061111622947
 DFT Correlation      Energy =  -2.70773479082688
 DFT Exchange         Energy = -53.83936206905248
 One-Electron (alpha) Energy = -902.45718325284645
 One-Electron (beta)  Energy = -902.45718325284645
 Total Coulomb        Energy = 682.71780297494468
 ---------------------------------------
  Cycle       Energy         DIIS error
 ---------------------------------------
    1    -915.9262476117      2.67e-02  
 Alpha HF Exchange    Energy =  -6.85653732412250
 Beta HF Exchange     Energy =  -6.85653732412250
 DFT Correlation      Energy =  -2.73382201474715
 DFT Exchange         Energy = -54.41609670731283
 One-Electron (alpha) Energy = -906.24609090965600
 One-Electron (beta)  Energy = -906.24609090965589
 Total Coulomb        Energy = 691.41228177349308
    2    -915.4442584047      2.60e-03  
 Alpha HF Exchange    Energy =  -6.80628799745720
 Beta HF Exchange     Energy =  -6.80628799745720
 DFT Correlation      Energy =  -2.71031558378487
 DFT Exchange         Energy = -53.98841182805548
 One-Electron (alpha) Energy = -902.55785415943228
 One-Electron (beta)  Energy = -902.55785415943296
 Total Coulomb        Energy = 683.49703877692855
    3    -915.4313379373      2.92e-03  
 Alpha HF Exchange    Energy =  -6.82866497884115
 Beta HF Exchange     Energy =  -6.82866497884115
 DFT Correlation      Energy =  -2.72207651012663
 DFT Exchange         Energy = -54.17966659584073
 One-Electron (alpha) Energy = -904.33762871465456
 One-Electron (beta)  Energy = -904.33762871465456
 Total Coulomb        Energy = 687.23677391773663
    4    -915.4989215638      6.10e-04  
 Alpha HF Exchange    Energy =  -6.83045238767914
 Beta HF Exchange     Energy =  -6.83045238767914
 DFT Correlation      Energy =  -2.72207885770003
 DFT Exchange         Energy = -54.19177156965087
 One-Electron (alpha) Energy = -904.41759873598119
 One-Electron (beta)  Energy = -904.41759873598130
 Total Coulomb        Energy = 687.40910935120633
    5    -915.5022083121      1.83e-04  
 Alpha HF Exchange    Energy =  -6.83032393877509
 Beta HF Exchange     Energy =  -6.83032393877510
 DFT Correlation      Energy =  -2.72211784273000
 DFT Exchange         Energy = -54.19129506818648
 One-Electron (alpha) Energy = -904.41373949650927
 One-Electron (beta)  Energy = -904.41373949650927
 Total Coulomb        Energy = 687.40043500130253
    6    -915.5024697688      6.03e-05  
 Alpha HF Exchange    Energy =  -6.83012913408044
 Beta HF Exchange     Energy =  -6.83012913408044
 DFT Correlation      Energy =  -2.72203875263726
 DFT Exchange         Energy = -54.18957636162759
 One-Electron (alpha) Energy = -904.39605869354784
 One-Electron (beta)  Energy = -904.39605869354818
 Total Coulomb        Energy = 687.36285833666784
    7    -915.5024974215      1.39e-05  
 Alpha HF Exchange    Energy =  -6.83014405534273
 Beta HF Exchange     Energy =  -6.83014405534273
 DFT Correlation      Energy =  -2.72204663108604
 DFT Exchange         Energy = -54.18968996883061
 One-Electron (alpha) Energy = -904.39783516526120
 One-Electron (beta)  Energy = -904.39783516526154
 Total Coulomb        Energy = 687.36656121931526
    8    -915.5024988104      3.32e-06  
 Alpha HF Exchange    Energy =  -6.83016126319888
 Beta HF Exchange     Energy =  -6.83016126319889
 DFT Correlation      Energy =  -2.72205296482843
 DFT Exchange         Energy = -54.18982607868816
 One-Electron (alpha) Energy = -904.39970004975089
 One-Electron (beta)  Energy = -904.39970004975078
 Total Coulomb        Energy = 687.37046776547515
    9    -915.5024988925      8.73e-07  Convergence criterion met
 ---------------------------------------
 SCF time:   CPU 28.80s  wall 2.00s 
<S^2> =         -0.000000000
 Alpha HF Exchange    Energy =  -6.83016126319888
 Beta HF Exchange     Energy =  -6.83016126319889
 DFT Correlation      Energy =  -2.72205296482843
 DFT Exchange         Energy = -54.18982607868816
 One-Electron (alpha) Energy = -904.39970004975089
 One-Electron (beta)  Energy = -904.39970004975078
 Total Coulomb        Energy = 687.37046776547515
 Nuclear repulsion Energy = 276.49863501139492
 SCF   energy in the final basis set =     -915.5024988925
 Total energy in the final basis set =     -915.5024988925
 
 --------------------------------------------------------------
 
                    Orbital Energies (a.u.)
 --------------------------------------------------------------
 
 Alpha MOs
 -- Occupied --
-88.884 -88.870 -10.247 -10.246 -10.203  -7.947  -7.930  -5.912
 -5.908  -5.901  -5.895  -5.892  -5.885  -0.836  -0.726  -0.717
 -0.669  -0.594  -0.480  -0.458  -0.432  -0.418  -0.398  -0.376
 -0.366  -0.331  -0.301  -0.249  -0.234
 -- Virtual --
 -0.040   0.018   0.059   0.066   0.094   0.121   0.132   0.159
  0.162   0.168   0.203   0.215   0.323   0.331   0.352   0.367
  0.377   0.397   0.408   0.438   0.492   0.508   0.529   0.560
  0.572   0.650   0.662   0.672   0.715   0.731   0.751   0.784
  0.798   0.805   0.826   0.836   0.859   0.872   0.878   0.908
  0.921   0.940   0.952   0.990   1.033   1.124   1.156   1.188
  1.334   1.356   1.389   1.547   1.595   1.691   1.750   1.803
  1.836   1.884   2.021   2.029   2.031   2.054   2.073   2.083
  2.101   2.109   2.122   2.154   2.263   2.269   2.342   2.429
  2.517   2.549   2.587   2.619   2.708   2.719   2.738   2.758
  2.815   2.854   2.890   3.177   3.236   3.305   3.419   3.450
  3.463   3.969   3.983   4.248   4.436   4.576
 
 Beta MOs
 -- Occupied --
-88.884 -88.870 -10.247 -10.246 -10.203  -7.947  -7.930  -5.912
 -5.908  -5.901  -5.895  -5.892  -5.885  -0.836  -0.726  -0.717
 -0.669  -0.594  -0.480  -0.458  -0.432  -0.418  -0.398  -0.376
 -0.366  -0.331  -0.301  -0.249  -0.234
 -- Virtual --
 -0.040   0.018   0.059   0.066   0.094   0.121   0.132   0.159
  0.162   0.168   0.203   0.215   0.323   0.331   0.352   0.367
  0.377   0.397   0.408   0.438   0.492   0.508   0.529   0.560
  0.572   0.650   0.662   0.672   0.715   0.731   0.751   0.784
  0.798   0.805   0.826   0.836   0.859   0.872   0.878   0.908
  0.921   0.940   0.952   0.990   1.033   1.124   1.156   1.188
  1.334   1.356   1.389   1.547   1.595   1.691   1.750   1.803
  1.836   1.884   2.021   2.029   2.031   2.054   2.073   2.083
  2.101   2.109   2.122   2.154   2.263   2.269   2.342   2.429
  2.517   2.549   2.587   2.619   2.708   2.719   2.738   2.758
  2.815   2.854   2.890   3.177   3.236   3.305   3.419   3.450
  3.463   3.969   3.983   4.248   4.436   4.576
 --------------------------------------------------------------
 
          Ground-State Mulliken Net Atomic Charges

     Atom                 Charge (a.u.)    Spin (a.u.)
  --------------------------------------------------------
      1 S                    -0.033380      -0.000000
      2 S                    -0.160233       0.000000
      3 C                    -0.211591      -0.000000
      4 C                    -0.252561      -0.000000
      5 C                    -0.314239       0.000000
      6 H                     0.164552       0.000000
      7 H                     0.149791       0.000000
      8 H                     0.148343       0.000000
      9 H                     0.117201      -0.000000
     10 H                     0.113072      -0.000000
     11 H                     0.137166      -0.000000
     12 H                     0.057981      -0.000000
     13 H                     0.083897      -0.000000
  --------------------------------------------------------
  Sum of atomic charges =    -0.000000
  Sum of spin   charges =    -0.000000

 -----------------------------------------------------------------
                    Cartesian Multipole Moments
 -----------------------------------------------------------------
    Charge (ESU x 10^10)
                -0.0000
    Dipole Moment (Debye)
         X       2.5496      Y       1.3831      Z       1.0927
       Tot       3.0996
    Quadrupole Moments (Debye-Ang)
        XX     -53.9814     XY       2.7323     YY     -47.0767
        XZ       0.1919     YZ      -1.3378     ZZ     -45.5674
    Octopole Moments (Debye-Ang^2)
       XXX      58.9213    XXY       6.8292    XYY       7.2419
       YYY      38.5865    XXZ      -1.4558    XYZ      -1.7950
       YYZ      -0.3686    XZZ      19.2479    YZZ       8.1433
       ZZZ      -2.0266
    Hexadecapole Moments (Debye-Ang^3)
      XXXX    -890.0714   XXXY      40.1288   XXYY    -196.9431
      XYYY      19.0780   YYYY    -371.4763   XXXZ     -19.7496
      XXYZ       0.3270   XYYZ      -3.4164   YYYZ       5.4120
      XXZZ    -164.2277   XYZZ       1.8275   YYZZ     -75.3178
      XZZZ     -26.0207   YZZZ      11.2806   ZZZZ    -100.4118
 -----------------------------------------------------------------
 Calculating analytic gradient of the SCF energy
 Gradient of SCF Energy
            1           2           3           4           5           6
    1  -0.0000941  -0.0456546   0.0000212   0.0455687  -0.0001649   0.0000069
    2  -0.0000081  -0.0188177   0.0002242   0.0182607   0.0000039  -0.0000190
    3  -0.0000762  -0.0153983  -0.0000699   0.0149221   0.0001040   0.0000113
            7           8           9          10          11          12
    1   0.0001759  -0.0000439   0.0000177   0.0000338   0.0000597  -0.0000109
    2   0.0003214   0.0001201  -0.0000364  -0.0000368  -0.0000029  -0.0000563
    3   0.0001181   0.0002832   0.0000357   0.0000072  -0.0000092  -0.0000159
           13
    1   0.0000845
    2   0.0000469
    3   0.0000880
 Max gradient component =       4.565E-02
 RMS gradient           =       1.167E-02
 Gradient time:  CPU 11.61 s  wall 1.03 s
 Geometry Optimization Parameters
   NAtoms,    NIC,     NZ,  NCons,   NDum,   NFix, NCnnct, MaxDiis
       13      82       0       1       0       0       0       0

 Cartesian Hessian Update
 Hessian Updated using BFGS Update


** CONSTRAINED OPTIMIZATION IN DELOCALIZED INTERNAL COORDINATES **
   Searching for a Minimum

   Optimization Cycle:   4

                       Coordinates (Angstroms)
     ATOM                X               Y               Z
      1  S         0.6674178680   -1.6883161868    0.2434643093
      2  S        -2.5600582715    0.0114962363   -0.2478473525
      3  C         0.5369535866    0.0907519921   -0.2570944424
      4  C        -0.6178119898    0.8155794177    0.4010974331
      5  C         1.8513671434    0.8479915277   -0.0031434259
      6  H         0.3552889224    0.0334858089   -1.3340927943
      7  H        -0.6607515517    0.7314931817    1.4856959501
      8  H        -0.7197300202    1.8513220973    0.0768679435
      9  H         1.7852197356    1.8696919838   -0.3929020780
     10  H         2.0720890878    0.9095957426    1.0679051655
     11  H         2.6861000513    0.3421122163   -0.4941456676
     12  H         1.0573476692   -1.4540620658    1.5135986178
     13  H        -2.2137302310   -1.2361429518    0.1295983415
   Point Group: c1    Number of degrees of freedom:    33


   Energy is   -915.502498893

              Constraints and their Current Values
                                        Value     Constraint
   Distance(Angs):        2   4             2.200000     2.200000
 Hessian Updated using BFGS Update

 31 Hessian modes will be used to form the next step
  Hessian Eigenvalues:
     0.038559    0.045000    0.045000    0.045039    0.049196    0.073581
     0.077349    0.077844    0.083107    0.083544    0.094940    0.130334
     0.143768    0.159914    0.160000    0.160959    0.168523    0.183623
     0.213698    0.222937    0.229214    0.257049    0.257725    0.288063
     0.306767    0.341719    0.341974    0.343674    0.345502    0.346330
     0.348187

 Minimum Search - Taking Simple RFO Step
 Searching for Lamda that Minimizes Along All modes
 Value Taken    Lamda =  -0.00000429
 Step Taken.  Stepsize is  0.008919

                             Maximum     Tolerance    Cnvgd?
         Gradient           0.000361      0.000300      NO
         Displacement       0.004888      0.001200      NO
         Energy change     -0.000064      0.000001      NO


 New Cartesian Coordinates Obtained by Inverse Iteration

 Displacement from previous Coordinates is:  0.010163
 ----------------------------------------------------------------
             Standard Nuclear Orientation (Angstroms)
    I     Atom           X                Y                Z
 ----------------------------------------------------------------
    1      S       0.6682272669    -1.6881695846     0.2445377364
    2      S      -2.5599159383     0.0125218610    -0.2474957088
    3      C       0.5368510872     0.0906716116    -0.2563256728
    4      C      -0.6176176853     0.8160138541     0.4020255222
    5      C       1.8517324767     0.8478582199    -0.0034845002
    6      H       0.3548398909     0.0337392427    -1.3332988679
    7      H      -0.6628134955     0.7296965114     1.4861956667
    8      H      -0.7198906488     1.8512482105     0.0766303924
    9      H       1.7855489753     1.8695318057    -0.3934664958
   10      H       2.0730716270     0.9096438629     1.0674203060
   11      H       2.6857433437     0.3414661809    -0.4950120772
   12      H       1.0589153794    -1.4529032822     1.5142202270
   13      H      -2.2149902793    -1.2363194940     0.1270554721
 ----------------------------------------------------------------
 Nuclear Repulsion Energy =   276.4868879798 hartrees
 There are       29 alpha and       29 beta electrons

                       Distance Matrix (Angstroms)
             S (  1)   S (  2)   C (  3)   C (  4)   C (  5)   H (  6)
   S (  2)  3.681760
   C (  3)  1.852674  3.097766
   C (  4)  2.819421  2.200000  1.514049
   C (  5)  2.809562  4.496662  1.538237  2.502627
   H (  6)  2.356427  3.110502  1.093728  2.137517  2.161454
   H (  7)  3.026460  2.668150  2.209961  1.088540  2.925073  3.077259
   H (  8)  3.805594  2.621386  2.188582  1.089978  2.761604  2.538954
   H (  9)  3.783212  4.727881  2.177705  2.741882  1.095574  2.510049
   H ( 10)  3.065837  4.898817  2.187005  2.773324  1.095283  3.079445
   H ( 11)  2.955795  5.261788  2.176604  3.455729  1.092523  2.496103
   H ( 12)  1.349104  4.283346  2.406243  3.032445  2.868012  3.288494
   H ( 13)  2.920773  1.348654  3.079045  2.615202  4.571550  3.217097
             H (  7)   H (  8)   H (  9)   H ( 10)   H ( 11)   H ( 12)
   H (  8)  1.802224
   H (  9)  3.290415  2.549226
   H ( 10)  2.773594  3.109489  1.771509
   H ( 11)  3.910082  3.768894  1.776414  1.771832
   H ( 12)  2.780086  4.018486  3.899467  2.609554  3.146958
   H ( 13)  2.849866  3.430880  5.091323  4.886402  5.185901  3.562245

 
 Applying Cartesian multipole field
    Component          Value
    ---------          -----
     (2,0,0)        1.00000E-11
     (0,2,0)        2.00000E-11
     (0,0,2)       -3.00000E-10
 Nucleus-field energy     =    -0.0000000016 hartrees
 Requested basis set is 6-31G(d,p)
 There are 46 shells and 123 basis functions
 A cutoff of  1.0D-14 yielded   1021 shell pairs
 There are      7459 function pairs
 Smallest overlap matrix eigenvalue = 5.75E-03
 Guess from superposition of atomic densities
 Warning:  Energy on first SCF cycle will be non-variational
 SAD guess density has 58.000000 electrons

 -----------------------------------------------------------------------
  General SCF calculation program by
  Eric Jon Sundstrom, Paul Horn, Yuezhi Mao, Dmitri Zuev, Alec White,
  David Stuck, Shaama M.S., Shane Yost, Joonho Lee, David Small,
  Daniel Levine, Susi Lehtola, Hugh Burton, Evgeny Epifanovsky
 -----------------------------------------------------------------------
 Exchange:     0.2000 Hartree-Fock + 0.0800 Slater + 0.7200 B88
 Correlation:  0.1900 VWN1RPA + 0.8100 LYP
 Using SG-1 standard quadrature grid
 using 12 threads for integral computing
 -------------------------------------------------------
 OpenMP Integral computing Module                
 Release: version 1.0, May 2013, Q-Chem Inc. Pittsburgh 
 -------------------------------------------------------
 -------------------------------------------------------
 OpenMP BLAS3 based DFT computing Module                
 Release: version 1.0, May 2013, Q-Chem Inc. Pittsburgh 
 -------------------------------------------------------
 A unrestricted SCF calculation will be
 performed using DIIS
 SCF converges when DIIS error is below 1.0e-06
 Alpha HF Exchange    Energy =  -6.84060151408202
 Beta HF Exchange     Energy =  -6.84060151408202
 DFT Correlation      Energy =  -2.70773069105923
 DFT Exchange         Energy = -53.83935365458238
 One-Electron (alpha) Energy = -902.44535310038248
 One-Electron (beta)  Energy = -902.44535310038248
 Total Coulomb        Energy = 682.70597041911026
 ---------------------------------------
  Cycle       Energy         DIIS error
 ---------------------------------------
    1    -915.9261351772      2.67e-02  
 Alpha HF Exchange    Energy =  -6.85654799950034
 Beta HF Exchange     Energy =  -6.85654799950035
 DFT Correlation      Energy =  -2.73381896316588
 DFT Exchange         Energy = -54.41616757048904
 One-Electron (alpha) Energy = -906.23442459151374
 One-Electron (beta)  Energy = -906.23442459151431
 Total Coulomb        Energy = 691.40077188965483
    2    -915.4442718478      2.60e-03  
 Alpha HF Exchange    Energy =  -6.80629596758194
 Beta HF Exchange     Energy =  -6.80629596758193
 DFT Correlation      Energy =  -2.71031654888612
 DFT Exchange         Energy = -53.98847085632917
 One-Electron (alpha) Energy = -902.54664736148743
 One-Electron (beta)  Energy = -902.54664736148686
 Total Coulomb        Energy = 683.48635594780251
    3    -915.4314301373      2.92e-03  
 Alpha HF Exchange    Energy =  -6.82867377420316
 Beta HF Exchange     Energy =  -6.82867377420316
 DFT Correlation      Energy =  -2.72207376351711
 DFT Exchange         Energy = -54.17972355946689
 One-Electron (alpha) Energy = -904.32590709507144
 One-Electron (beta)  Energy = -904.32590709507144
 Total Coulomb        Energy = 687.22513630741764
    4    -915.4989347759      6.09e-04  
 Alpha HF Exchange    Energy =  -6.83046019068065
 Beta HF Exchange     Energy =  -6.83046019068065
 DFT Correlation      Energy =  -2.72207578925778
 DFT Exchange         Energy = -54.19181854549647
[...]
    1      S       0.6688196793    -1.6880630289     0.2460106875
    2      S      -2.5601986668     0.0137768210    -0.2474261424
    3      C       0.5368042611     0.0904180782    -0.2555397735
    4      C      -0.6176576348     0.8159781557     0.4029637971
    5      C       1.8518899587     0.8478990148    -0.0039764029
    6      H       0.3542798310     0.0334221052    -1.3324394439
    7      H      -0.6637490590     0.7280185328     1.4868739518
    8      H      -0.7192613572     1.8511097750     0.0772443641
    9      H       1.7853187072     1.8693895837    -0.3943925373
   10      H       2.0739528826     0.9102935272     1.0667478618
   11      H       2.6854753815     0.3412395969    -0.4958830855
   12      H       1.0603151658    -1.4520968428     1.5152975379
   13      H      -2.2162871495    -1.2363863188     0.1235211856
 ----------------------------------------------------------------
 Nuclear Repulsion Energy =   276.4667887825 hartrees
 There are       29 alpha and       29 beta electrons

                       Distance Matrix (Angstroms)
             S (  1)   S (  2)   C (  3)   C (  4)   C (  5)   H (  6)
   S (  2)  3.683246
   C (  3)  1.852559  3.097962
   C (  4)  2.819553  2.200000  1.514215
   C (  5)  2.809493  4.496838  1.538347  2.503055
   H (  6)  2.356682  3.109956  1.093744  2.137447  2.161255
   H (  7)  3.025381  2.667294  2.209948  1.088450  2.926678  3.076910
   H (  8)  3.805390  2.621117  2.188260  1.089915  2.761132  2.538442
   H (  9)  3.783141  4.727411  2.177799  2.742216  1.095582  2.509697
   H ( 10)  3.065855  4.899608  2.187114  2.773855  1.095288  3.079331
   H ( 11)  2.955567  5.261754  2.176572  3.456008  1.092493  2.495807
   H ( 12)  1.349088  4.285336  2.406092  3.032663  2.867885  3.288595
   H ( 13)  2.922817  1.348623  3.079547  2.616468  4.572807  3.215595
             H (  7)   H (  8)   H (  9)   H ( 10)   H ( 11)   H ( 12)
   H (  8)  1.803184
   H (  9)  3.292389  2.548666
   H ( 10)  2.775742  3.109067  1.771470
   H ( 11)  3.911295  3.768344  1.776464  1.771891
   H ( 12)  2.779588  4.018216  3.899336  2.609511  3.146752
   H ( 13)  2.850963  3.431597  5.091849  4.889179  5.186506  3.566468

 
 Applying Cartesian multipole field
    Component          Value
    ---------          -----
     (2,0,0)        1.00000E-11
     (0,2,0)        2.00000E-11
     (0,0,2)       -3.00000E-10
 Nucleus-field energy     =    -0.0000000016 hartrees
 Requested basis set is 6-31G(d,p)
 There are 46 shells and 123 basis functions
 A cutoff of  1.0D-14 yielded   1021 shell pairs
 There are      7459 function pairs
 Smallest overlap matrix eigenvalue = 5.75E-03
 Guess from superposition of atomic densities
 Warning:  Energy on first SCF cycle will be non-variational
 SAD guess density has 58.000000 electrons

 -----------------------------------------------------------------------
  General SCF calculation program by
  Eric Jon Sundstrom, Paul Horn, Yuezhi Mao, Dmitri Zuev, Alec White,
  David Stuck, Shaama M.S., Shane Yost, Joonho Lee, David Small,
  Daniel Levine, Susi Lehtola, Hugh Burton, Evgeny Epifanovsky
 -----------------------------------------------------------------------
 Exchange:     0.2000 Hartree-Fock + 0.0800 Slater + 0.7200 B88
 Correlation:  0.1900 VWN1RPA + 0.8100 LYP
 Using SG-1 standard quadrature grid
 using 12 threads for integral computing
 -------------------------------------------------------
 OpenMP Integral computing Module                
 Release: version 1.0, May 2013, Q-Chem Inc. Pittsburgh 
 -------------------------------------------------------
 -------------------------------------------------------
 OpenMP BLAS3 based DFT computing Module                
 Release: version 1.0, May 2013, Q-Chem Inc. Pittsburgh 
 -------------------------------------------------------
 A unrestricted SCF calculation will be
 performed using DIIS
 SCF converges when DIIS error is below 1.0e-06
 Alpha HF Exchange    Energy =  -6.84058568841822
 Beta HF Exchange     Energy =  -6.84058568841822
 DFT Correlation      Energy =  -2.70772330201947
 DFT Exchange         Energy = -53.83932997103109
 One-Electron (alpha) Energy = -902.42523599513731
 One-Electron (beta)  Energy = -902.42523599513731
 Total Coulomb        Energy = 682.68592129854471
 ---------------------------------------
  Cycle       Energy         DIIS error
 ---------------------------------------
    1    -915.9259865607      2.67e-02  
 Alpha HF Exchange    Energy =  -6.85654995393362
 Beta HF Exchange     Energy =  -6.85654995393362
 DFT Correlation      Energy =  -2.73381162295874
 DFT Exchange         Energy = -54.41617253950827
 One-Electron (alpha) Energy = -906.21417393414288
 One-Electron (beta)  Energy = -906.21417393414265
 Total Coulomb        Energy = 691.38036486448300
    2    -915.4442782932      2.60e-03  
 Alpha HF Exchange    Energy =  -6.80629774864935
 Beta HF Exchange     Energy =  -6.80629774864936
 DFT Correlation      Energy =  -2.71031132468661
 DFT Exchange         Energy = -53.98847919847069
 One-Electron (alpha) Energy = -902.52677306609030
 One-Electron (beta)  Energy = -902.52677306609064
 Total Coulomb        Energy = 683.46666983883858
    3    -915.4314735329      2.92e-03  
 Alpha HF Exchange    Energy =  -6.82867506197836
 Beta HF Exchange     Energy =  -6.82867506197835
 DFT Correlation      Energy =  -2.72206628260362
 DFT Exchange         Energy = -54.17972384743989
 One-Electron (alpha) Energy = -904.30569725867520
 One-Electron (beta)  Energy = -904.30569725867497
 Total Coulomb        Energy = 687.20480429861811
    4    -915.4989416918      6.09e-04  
 Alpha HF Exchange    Energy =  -6.83046129800063
 Beta HF Exchange     Energy =  -6.83046129800063
 DFT Correlation      Energy =  -2.72206849453930
 DFT Exchange         Energy = -54.19181701989010
 One-Electron (alpha) Energy = -904.38570676554332
 One-Electron (beta)  Energy = -904.38570676554377
 Total Coulomb        Energy = 687.37722138689514
    5    -915.5022114737      1.83e-04  
 Alpha HF Exchange    Energy =  -6.83033214552300
 Beta HF Exchange     Energy =  -6.83033214552300
 DFT Correlation      Energy =  -2.72210792468768
 DFT Exchange         Energy = -54.19133826538314
 One-Electron (alpha) Energy = -904.38182795231876
 One-Electron (beta)  Energy = -904.38182795231876
 Total Coulomb        Energy = 687.36850399819730
    6    -915.5024736066      6.03e-05  
 Alpha HF Exchange    Energy =  -6.83013736973356
 Beta HF Exchange     Energy =  -6.83013736973356
 DFT Correlation      Energy =  -2.72202871086412
 DFT Exchange         Energy = -54.18961909266904
 One-Electron (alpha) Energy = -904.36414442217915
 One-Electron (beta)  Energy = -904.36414442217881
 Total Coulomb        Energy = 687.33092133834111
    7    -915.5025012681      1.39e-05  
 Alpha HF Exchange    Energy =  -6.83015238139487
 Beta HF Exchange     Energy =  -6.83015238139487
 DFT Correlation      Energy =  -2.72203663194087
 DFT Exchange         Energy = -54.18973355064485
 One-Electron (alpha) Energy = -904.36592628333301
 One-Electron (beta)  Energy = -904.36592628333278
 Total Coulomb        Energy = 687.33463607545252
    8    -915.5025026557      3.32e-06  
 Alpha HF Exchange    Energy =  -6.83016959189785
 Beta HF Exchange     Energy =  -6.83016959189785
 DFT Correlation      Energy =  -2.72204296443113
 DFT Exchange         Energy = -54.18986965880323
 One-Electron (alpha) Energy = -904.36779162935909
 One-Electron (beta)  Energy = -904.36779162935886
 Total Coulomb        Energy = 687.33854354704101
    9    -915.5025027378      8.74e-07  Convergence criterion met
 ---------------------------------------
 SCF time:   CPU 28.83s  wall 2.00s 
<S^2> =         -0.000000000
 Alpha HF Exchange    Energy =  -6.83016959189785
 Beta HF Exchange     Energy =  -6.83016959189785
 DFT Correlation      Energy =  -2.72204296443113
 DFT Exchange         Energy = -54.18986965880323
 One-Electron (alpha) Energy = -904.36779162935909
 One-Electron (beta)  Energy = -904.36779162935886
 Total Coulomb        Energy = 687.33854354704101
 Nuclear repulsion Energy = 276.46678878091893
 SCF   energy in the final basis set =     -915.5025027378
 Total energy in the final basis set =     -915.5025027378
 
 --------------------------------------------------------------
 
                    Orbital Energies (a.u.)
 --------------------------------------------------------------
 
 Alpha MOs
 -- Occupied --
-88.884 -88.870 -10.247 -10.246 -10.203  -7.947  -7.930  -5.912
 -5.908  -5.901  -5.895  -5.892  -5.885  -0.836  -0.726  -0.717
 -0.669  -0.594  -0.480  -0.458  -0.432  -0.418  -0.398  -0.376
 -0.366  -0.331  -0.300  -0.250  -0.234
 -- Virtual --
 -0.040   0.018   0.059   0.066   0.093   0.121   0.132   0.159
  0.162   0.168   0.203   0.215   0.323   0.331   0.352   0.367
  0.377   0.397   0.408   0.438   0.492   0.508   0.529   0.560
  0.572   0.650   0.662   0.672   0.715   0.731   0.751   0.784
  0.798   0.804   0.827   0.836   0.860   0.872   0.879   0.908
  0.921   0.940   0.952   0.990   1.033   1.124   1.156   1.188
  1.334   1.356   1.390   1.547   1.595   1.691   1.750   1.803
  1.836   1.884   2.020   2.029   2.031   2.054   2.072   2.083
  2.101   2.109   2.122   2.153   2.263   2.271   2.342   2.430
  2.517   2.549   2.587   2.618   2.707   2.719   2.738   2.758
  2.814   2.854   2.890   3.177   3.237   3.305   3.419   3.449
  3.463   3.969   3.983   4.248   4.436   4.576
 
 Beta MOs
 -- Occupied --
-88.884 -88.870 -10.247 -10.246 -10.203  -7.947  -7.930  -5.912
 -5.908  -5.901  -5.895  -5.892  -5.885  -0.836  -0.726  -0.717
 -0.669  -0.594  -0.480  -0.458  -0.432  -0.418  -0.398  -0.376
 -0.366  -0.331  -0.300  -0.250  -0.234
 -- Virtual --
 -0.040   0.018   0.059   0.066   0.093   0.121   0.132   0.159
  0.162   0.168   0.203   0.215   0.323   0.331   0.352   0.367
  0.377   0.397   0.408   0.438   0.492   0.508   0.529   0.560
  0.572   0.650   0.662   0.672   0.715   0.731   0.751   0.784
  0.798   0.804   0.827   0.836   0.860   0.872   0.879   0.908
  0.921   0.940   0.952   0.990   1.033   1.124   1.156   1.188
  1.334   1.356   1.390   1.547   1.595   1.691   1.750   1.803
  1.836   1.884   2.020   2.029   2.031   2.054   2.072   2.083
  2.101   2.109   2.122   2.153   2.263   2.271   2.342   2.430
  2.517   2.549   2.587   2.618   2.707   2.719   2.738   2.758
  2.814   2.854   2.890   3.177   3.237   3.305   3.419   3.449
  3.463   3.969   3.983   4.248   4.436   4.576
 --------------------------------------------------------------
 
          Ground-State Mulliken Net Atomic Charges

     Atom                 Charge (a.u.)    Spin (a.u.)
  --------------------------------------------------------
      1 S                    -0.033236      -0.000000
      2 S                    -0.160827      -0.000000
      3 C                    -0.211856       0.000000
      4 C                    -0.252337       0.000000
      5 C                    -0.314232      -0.000000
      6 H                     0.164562       0.000000
      7 H                     0.150192       0.000000
      8 H                     0.148529      -0.000000
      9 H                     0.117139       0.000000
     10 H                     0.113059       0.000000
     11 H                     0.137202       0.000000
     12 H                     0.057985       0.000000
     13 H                     0.083818      -0.000000
  --------------------------------------------------------
  Sum of atomic charges =    -0.000000
  Sum of spin   charges =    -0.000000

 -----------------------------------------------------------------
                    Cartesian Multipole Moments
 -----------------------------------------------------------------
    Charge (ESU x 10^10)
                -0.0000
    Dipole Moment (Debye)
         X       2.5520      Y       1.3798      Z       1.0898
       Tot       3.0991
    Quadrupole Moments (Debye-Ang)
        XX     -53.9928     XY       2.7387     YY     -47.0741
        XZ       0.1968     YZ      -1.3212     ZZ     -45.5699
    Octopole Moments (Debye-Ang^2)
       XXX      58.9150    XXY       6.7620    XYY       7.2172
       YYY      38.5008    XXZ      -1.4978    XYZ      -1.8342
       YYZ      -0.4505    XZZ      19.2531    YZZ       8.0991
       ZZZ      -2.1403
    Hexadecapole Moments (Debye-Ang^3)
      XXXX    -890.6696   XXXY      40.4866   XXYY    -196.9587
      XYYY      19.3626   YYYY    -371.3582   XXXZ     -19.7769
      XXYZ       0.4660   XYYZ      -3.3991   YYYZ       5.6163
      XXZZ    -164.3338   XYZZ       1.9373   YYZZ     -75.3352
      XZZZ     -26.0570   YZZZ      11.4436   ZZZZ    -100.5167
 -----------------------------------------------------------------
 Calculating analytic gradient of the SCF energy
 Gradient of SCF Energy
            1           2           3           4           5           6
    1  -0.0000085  -0.0454365  -0.0000768   0.0455458   0.0000366   0.0000255
    2  -0.0000260  -0.0187713   0.0000047   0.0188236  -0.0000306   0.0000766
    3  -0.0000499  -0.0152352  -0.0000191   0.0152646   0.0000454  -0.0000113
            7           8           9          10          11          12
    1   0.0000093  -0.0000488   0.0000121   0.0000021  -0.0000090  -0.0000094
    2  -0.0000322  -0.0000159   0.0000092  -0.0000327  -0.0000007  -0.0000312
    3   0.0000036  -0.0000128   0.0000313   0.0000098  -0.0000009  -0.0000353
           13
    1  -0.0000423
    2   0.0000265
    3   0.0000098
 Max gradient component =       4.555E-02
 RMS gradient           =       1.167E-02
 Gradient time:  CPU 11.69 s  wall 1.03 s
 Geometry Optimization Parameters
   NAtoms,    NIC,     NZ,  NCons,   NDum,   NFix, NCnnct, MaxDiis
       13      82       0       1       0       0       0       0

 Cartesian Hessian Update
 Hessian Updated using BFGS Update


** CONSTRAINED OPTIMIZATION IN DELOCALIZED INTERNAL COORDINATES **
   Searching for a Minimum

   Optimization Cycle:   6

                       Coordinates (Angstroms)
     ATOM                X               Y               Z
      1  S         0.6688196793   -1.6880630289    0.2460106875
      2  S        -2.5601986668    0.0137768210   -0.2474261424
      3  C         0.5368042611    0.0904180782   -0.2555397735
      4  C        -0.6176576348    0.8159781557    0.4029637971
      5  C         1.8518899587    0.8478990148   -0.0039764029
      6  H         0.3542798310    0.0334221052   -1.3324394439
      7  H        -0.6637490590    0.7280185328    1.4868739518
      8  H        -0.7192613572    1.8511097750    0.0772443641
      9  H         1.7853187072    1.8693895837   -0.3943925373
     10  H         2.0739528826    0.9102935272    1.0667478618
     11  H         2.6854753815    0.3412395969   -0.4958830855
     12  H         1.0603151658   -1.4520968428    1.5152975379
     13  H        -2.2162871495   -1.2363863188    0.1235211856
   Point Group: c1    Number of degrees of freedom:    33


   Energy is   -915.502502738

              Constraints and their Current Values
                                        Value     Constraint
   Distance(Angs):        2   4             2.200000     2.200000
 Hessian Updated using BFGS Update

 31 Hessian modes will be used to form the next step
  Hessian Eigenvalues:
     0.014757    0.044883    0.045000    0.045019    0.056648    0.073352
     0.077533    0.077886    0.083108    0.083544    0.095123    0.127392
     0.143679    0.159916    0.159967    0.160663    0.162593    0.168897
     0.188058    0.213533    0.222819    0.238038    0.257869    0.289224
     0.303012    0.341927    0.341981    0.343670    0.345803    0.346405
     0.348306

 Minimum Search - Taking Simple RFO Step
 Searching for Lamda that Minimizes Along All modes
 Value Taken    Lamda =   0.00000000
 Step Taken.  Stepsize is  0.005879

                             Maximum     Tolerance    Cnvgd?
         Gradient           0.000060      0.000300     YES
         Displacement       0.002928      0.001200      NO
         Energy change     -0.000001      0.000001     YES


                       Distance Matrix (Angstroms)
             S (  1)   S (  2)   C (  3)   C (  4)   C (  5)   H (  6)
   S (  2)  3.683246
   C (  3)  1.852559  3.097962
   C (  4)  2.819553  2.200000  1.514215
   C (  5)  2.809493  4.496838  1.538347  2.503055
   H (  6)  2.356682  3.109956  1.093744  2.137447  2.161255
   H (  7)  3.025381  2.667294  2.209948  1.088450  2.926678  3.076910
   H (  8)  3.805390  2.621117  2.188260  1.089915  2.761132  2.538442
   H (  9)  3.783141  4.727411  2.177799  2.742216  1.095582  2.509697
   H ( 10)  3.065855  4.899608  2.187114  2.773855  1.095288  3.079331
   H ( 11)  2.955567  5.261754  2.176572  3.456008  1.092493  2.495807
   H ( 12)  1.349088  4.285336  2.406092  3.032663  2.867885  3.288595
   H ( 13)  2.922817  1.348623  3.079547  2.616468  4.572807  3.215595
             H (  7)   H (  8)   H (  9)   H ( 10)   H ( 11)   H ( 12)
   H (  8)  1.803184
   H (  9)  3.292389  2.548666
   H ( 10)  2.775742  3.109067  1.771470
   H ( 11)  3.911295  3.768344  1.776464  1.771891
   H ( 12)  2.779588  4.018216  3.899336  2.609511  3.146752
   H ( 13)  2.850963  3.431597  5.091849  4.889179  5.186506  3.566468

 
 Final energy is   -915.502502737788     


 ******************************
 **  OPTIMIZATION CONVERGED  **
 ******************************

                       Coordinates (Angstroms)
     ATOM                X               Y               Z
      1  S         0.6688196793   -1.6880630289    0.2460106875
      2  S        -2.5601986668    0.0137768210   -0.2474261424
      3  C         0.5368042611    0.0904180782   -0.2555397735
      4  C        -0.6176576348    0.8159781557    0.4029637971
      5  C         1.8518899587    0.8478990148   -0.0039764029
      6  H         0.3542798310    0.0334221052   -1.3324394439
      7  H        -0.6637490590    0.7280185328    1.4868739518
      8  H        -0.7192613572    1.8511097750    0.0772443641
      9  H         1.7853187072    1.8693895837   -0.3943925373
     10  H         2.0739528826    0.9102935272    1.0667478618
     11  H         2.6854753815    0.3412395969   -0.4958830855
     12  H         1.0603151658   -1.4520968428    1.5152975379
     13  H        -2.2162871495   -1.2363863188    0.1235211856

Z-matrix Print:
$molecule
0 1
S 
H  1 1.349088
C  1 1.852559 2 96.170355
H  3 1.093744 1 103.204612 2 172.368708 0
C  3 1.514215 1 113.365740 2 -69.853283 0
H  5 1.088450 3 115.253909 1 51.806007 0
H  5 1.089915 3 113.340299 1 -177.683057 0
C  3 1.538347 1 111.562633 2 55.210459 0
H  8 1.092493 3 110.504934 1 54.452843 0
H  8 1.095288 3 111.175794 1 -65.677706 0
H  8 1.095582 3 110.418869 1 174.575436 0
S  5 2.200000 3 111.709867 1 -65.491205 0
H  12 1.348623 5 91.807054 3 55.148482 0
$end

PES scan, value:    2.2000 energy: -915.5025027378
------- Summary of potential scan: ------ 
    2.2000      -915.5025027378
----------------------------------------- 
Archival summary:
1\1\hpc0250\JobtypUnspecified\ProcedureUnspecified\6-31G**\238\knomura\ThuMar1400:04:002019ThuMar1400:04:002019\0\\#,JobtypUnspecified,ProcedureUnspecified,6-31G**,\\0,1\S\H,1,1.34909\C,1,1.85256,2,96.1704\H,3,1.09374,1,103.205,2,172.369,0\C,3,1.51421,1,113.366,2,-69.8533,0\H,5,1.08845,3,115.254,1,51.806,0\H,5,1.08991,3,113.34,1,-177.683,0\C,3,1.53835,1,111.563,2,55.2105,0\H,8,1.09249,3,110.505,1,54.4528,0\H,8,1.09529,3,111.176,1,-65.6777,0\H,8,1.09558,3,110.419,1,174.575,0\S,5,2.2,3,111.71,1,-65.4912,0\H,12,1.34862,5,91.8071,3,55.1485,0\\\@

 Total job time:  24.14s(wall), 275.46s(cpu) 
 Thu Mar 14 00:04:00 2019

        *************************************************************
        *                                                           *
        *  Thank you very much for using Q-Chem.  Have a nice day.  *
        *                                                           *
        *************************************************************


