
Running Job 1 of 1 thiol/03/C-S.xyz.data/inputs/bond_singlet_1.2.in
qchem thiol/03/C-S.xyz.data/inputs/bond_singlet_1.2.in_26717.0 /staging/scratch/2868767/qchem26717/ 1
/usr/usc/qchem/5.1.1/exe/qcprog.exe_s thiol/03/C-S.xyz.data/inputs/bond_singlet_1.2.in_26717.0 /staging/scratch/2868767/qchem26717/
Check license passed

                  Welcome to Q-Chem
     A Quantum Leap Into The Future Of Chemistry


 Q-Chem 5.1, Q-Chem, Inc., Pleasanton, CA (2018)

 Yihan Shao,  Zhengting Gan,  E. Epifanovsky,  A. T. B. Gilbert,  M. Wormit,  
 J. Kussmann,  A. W. Lange,  A. Behn,  Jia Deng,  Xintian Feng,  D. Ghosh,  
 M. Goldey,  P. R. Horn,  L. D. Jacobson,  I. Kaliman,  T. Kus,  A. Landau,  
 Jie Liu,  E. I. Proynov,  R. M. Richard,  R. P. Steele,  E. J. Sundstrom,  
 H. L. Woodcock III,  P. M. Zimmerman,  D. Zuev,  B. Albrecht,  E. Alguire,  
 S. A. Baeppler,  D. Barton,  Z. Benda,  Y. A. Bernard,  E. J. Berquist,  
 K. B. Bravaya,  H. Burton,  D. Casanova,  Chun-Min Chang,  Yunqing Chen,  
 A. Chien,  K. D. Closser,  M. P. Coons,  S. Coriani,  S. Dasgupta,  
 A. L. Dempwolff,  M. Diedenhofen,  Hainam Do,  R. G. Edgar,  Po-Tung Fang,  
 S. Faraji,  S. Fatehi,  Qingguo Feng,  K. D. Fenk,  J. Fosso-Tande,  
 Qinghui Ge,  A. Ghysels,  G. Gidofalvi,  J. Gomes,  J. Gonthier,  A. Gunina,  
 D. Hait,  M. W. D. Hanson-Heine,  P. H. P. Harbach,  A. W. Hauser,  
 J. E. Herr,  E. G. Hohenstein,  Z. C. Holden,  Kerwin Hui,  B. C. Huynh,  
 T.-C. Jagau,  Hyunjun Ji,  B. Kaduk,  K. Khistyaev,  Jaehoon Kim,  
 P. Klunzinger,  K. Koh,  D. Kosenkov,  L. Koulias,  T. Kowalczyk,  
 C. M. Krauter,  A. Kunitsa,  Ka Un Lao,  A. Laurent,  K. V. Lawler,  
 Joonho Lee,  D. Lefrancois,  S. Lehtola,  D. S. Levine,  Yi-Pei Li,  
 You-Sheng Lin,  Fenglai Liu,  E. Livshits,  A. Luenser,  P. Manohar,  
 E. Mansoor,  S. F. Manzer,  Shan-Ping Mao,  Yuezhi Mao,  N. Mardirossian,  
 A. V. Marenich,  T. Markovich,  L. A. Martinez-Martinez,  S. A. Maurer,  
 N. J. Mayhall,  S. C. McKenzie,  J.-M. Mewes,  A. F. Morrison,  
 J. W. Mullinax,  K. Nanda,  T. S. Nguyen-Beck,  R. Olivares-Amaya,  
 J. A. Parkhill,  T. M. Perrine,  F. Plasser,  P. Pokhilko,  S. Prager,  
 A. Prociuk,  E. Ramos,  D. R. Rehn,  F. Rob,  M. Schneider,  N. Sergueev,  
 S. M. Sharada,  S. Sharma,  D. W. Small,  T. Stauch,  T. Stein,  
 Yu-Chuan Su,  A. J. W. Thom,  A. Tkatchenko,  T. Tsuchimochi,  N. M. Tubman,  
 L. Vogt,  M. L. Vidal,  O. Vydrov,  M. A. Watson,  J. Wenzel,  
 M. de Wergifosse,  T. A. Wesolowski,  A. White,  J. Witte,  A. Yamada,  
 Jun Yang,  K. Yao,  S. Yeganeh,  S. R. Yost,  Zhi-Qiang You,  A. Zech,  
 Igor Ying Zhang,  Xing Zhang,  Yan Zhao,  Ying Zhu,  B. R. Brooks,  
 G. K. L. Chan,  C. J. Cramer,  M. S. Gordon,  W. J. Hehre,  A. Klamt,  
 M. W. Schmidt,  C. D. Sherrill,  D. G. Truhlar,  A. Aspuru-Guzik,  R. Baer,  
 A. T. Bell,  N. A. Besley,  Jeng-Da Chai,  A. E. DePrince, III,  
 R. A. DiStasio Jr.,  A. Dreuw,  B. D. Dunietz,  T. R. Furlani,  
 Chao-Ping Hsu,  Yousung Jung,  Jing Kong,  D. S. Lambrecht,  WanZhen Liang,  
 C. Ochsenfeld,  V. A. Rassolov,  L. V. Slipchenko,  J. E. Subotnik,  
 T. Van Voorhis,  J. M. Herbert,  A. I. Krylov,  P. M. W. Gill,  M. Head-Gordon

 Contributors to earlier versions of Q-Chem not listed above: 
 R. D. Adamson,  B. Austin,  J. Baker,  G. J. O. Beran,  K. Brandhorst,  
 S. T. Brown,  E. F. C. Byrd,  A. K. Chakraborty,  C.-L. Cheng,  
 Siu Hung Chien,  D. M. Chipman,  D. L. Crittenden,  H. Dachsel,  
 R. J. Doerksen,  A. D. Dutoi,  L. Fusti-Molnar,  W. A. Goddard III,  
 A. Golubeva-Zadorozhnaya,  S. R. Gwaltney,  G. Hawkins,  A. Heyden,  
 S. Hirata,  G. Kedziora,  F. J. Keil,  C. Kelley,  Jihan Kim,  R. A. King,  
 R. Z. Khaliullin,  P. P. Korambath,  W. Kurlancheek,  A. M. Lee,  M. S. Lee,  
 S. V. Levchenko,  Ching Yeh Lin,  D. Liotard,  R. C. Lochan,  I. Lotan,  
 P. E. Maslen,  N. Nair,  D. P. O'Neill,  D. Neuhauser,  E. Neuscamman,  
 C. M. Oana,  R. Olson,  B. Peters,  R. Peverati,  P. A. Pieniazek,  
 Y. M. Rhee,  J. Ritchie,  M. A. Rohrdanz,  E. Rosta,  N. J. Russ,  
 H. F. Schaefer III,  N. E. Schultz,  N. Shenvi,  A. C. Simmonett,  A. Sodt,  
 D. Stuck,  K. S. Thanthiriwatte,  V. Vanovschi,  Tao Wang,  A. Warshel,  
 C. F. Williams,  Q. Wu,  X. Xu,  W. Zhang

 Please cite Q-Chem as follows:
 Y. Shao et al., Mol. Phys. 113, 184-215 (2015)
 DOI: 10.1080/00268976.2014.952696

 Q-Chem 5.1.1 for Intel X86 EM64T Linux

 Parts of Q-Chem use Armadillo 8.300.2 (Tropical Shenanigans).
 http://arma.sourceforge.net/

 Q-Chem begins on Wed Mar 13 23:29:03 2019  

Host: 
0

     Scratch files written to /staging/scratch/2868767/qchem26717//
 Aug318 |scratch|qcdevops|jenkins|workspace|build_RNUM 6013   
Processing $rem in /usr/usc/qchem/5.1.1/config/preferences.
 MEM_TOTAL  2000 
Input Ideriv = 2
Curr. Ideriv = -1
Max.  Ideriv = 2

Checking the input file for inconsistencies... 	...done.

--------------------------------------------------------------
User input:
--------------------------------------------------------------

$comment
potential surface scanner
$end

$rem
JOBTYPE  PES_SCAN
UNRESTRICTED TRUE
SYM_IGNORE  TRUE
GEOM_OPT_MAX_CYCLES 400
SCF_MAX_CYCLES 400
METHOD   B3LYP
BASIS   6-31G**
PDB_PRINT 2
SCF_CONVERGENCE 6
THRESH 14
SCF_PRINT 1
$end
$molecule
0 1
S 0.653000 -1.655100 0.136100
S -2.273700 -0.042700 -0.103500
C 0.513800 0.101500 -0.361300
C -0.697000 0.778900 0.292500
C 1.803900 0.817400 0.036300
H 0.414100 0.130900 -1.452400
H -0.592400 0.804400 1.383200
H -0.770600 1.816900 -0.049700
H 1.768400 1.866200 -0.278900
H 1.962400 0.805000 1.120700
H 2.677400 0.363600 -0.445400
H 0.755100 -1.437500 1.455700
H -1.974700 -1.224500 0.455700
$end
$scan
stre 2 4 1.200000 1.201000 0.100000
$end
--------------------------------------------------------------
 ----------------------------------------------------------------
             Standard Nuclear Orientation (Angstroms)
    I     Atom           X                Y                Z
 ----------------------------------------------------------------
    1      S       0.6530000000    -1.6551000000     0.1361000000
    2      S      -2.2737000000    -0.0427000000    -0.1035000000
    3      C       0.5138000000     0.1015000000    -0.3613000000
    4      C      -0.6970000000     0.7789000000     0.2925000000
    5      C       1.8039000000     0.8174000000     0.0363000000
    6      H       0.4141000000     0.1309000000    -1.4524000000
    7      H      -0.5924000000     0.8044000000     1.3832000000
    8      H      -0.7706000000     1.8169000000    -0.0497000000
    9      H       1.7684000000     1.8662000000    -0.2789000000
   10      H       1.9624000000     0.8050000000     1.1207000000
   11      H       2.6774000000     0.3636000000    -0.4454000000
   12      H       0.7551000000    -1.4375000000     1.4557000000
   13      H      -1.9747000000    -1.2245000000     0.4557000000
 ----------------------------------------------------------------
 Nuclear Repulsion Energy =   290.8061723522 hartrees
 There are       29 alpha and       29 beta electrons
 Requested basis set is 6-31G(d,p)
 There are 46 shells and 123 basis functions

 Total QAlloc Memory Limit   2000 MB
 Mega-Array Size       188 MB
 MEM_STATIC part       192 MB
A total of 1 constraints
  
            1
    1   1.0100000
    2   2.0100000
    3   4.0100000
    4   1.2000000
    5   1.2010000
    6   0.1000000
    7   0.0000000
    8   0.0000000
    9   0.0000000
   10   0.0000000

                       Distance Matrix (Angstroms)
             S (  1)   S (  2)   C (  3)   C (  4)   C (  5)   H (  6)
   S (  2)  3.350047
   C (  3)  1.830963  2.803107
   C (  4)  2.787708  1.821490  1.533741
   C (  5)  2.729063  4.169669  1.528056  2.514283
   H (  6)  2.402124  3.012298  1.096040  2.167746  2.149198
   H (  7)  3.025792  2.398880  2.181978  1.096001  2.748920  3.083386
   H (  8)  3.757119  2.391718  2.165496  1.095428  2.763050  2.492725
   H (  9)  3.716974  4.473616  2.166790  2.754436  1.095716  2.494493
   H ( 10)  2.955682  4.490190  2.188533  2.785499  1.095992  3.077741
   H ( 11)  2.917445  4.979495  2.181040  3.479015  1.095888  2.488117
   H ( 12)  1.341312  3.681060  2.393373  2.893796  2.863434  3.321627
   H ( 13)  2.681859  1.341177  2.935711  2.381756  4.315446  3.344297
             H (  7)   H (  8)   H (  9)   H ( 10)   H ( 11)   H ( 12)
   H (  8)  1.763552
   H (  9)  3.076259  2.549801
   H ( 10)  2.568250  3.140552  1.767105
   H ( 11)  3.772224  3.762627  1.764032  1.777281
   H ( 12)  2.616702  3.896808  3.866529  2.568775  3.248597
   H ( 13)  2.624394  3.309894  4.909466  4.479046  4.997607  2.914992

 
 A cutoff of  1.0D-14 yielded   1033 shell pairs
 There are      7542 function pairs
 
 -------------------------------------------------------
 OpenMP Integral Computing Module                       
 Release: version 1.0, May 2013, Q-Chem Inc. Pittsburgh 
 -------------------------------------------------------
 Integral Job Info:
 Integral job number is                      11
 Integral operator is                         1
 short-range coefficients                     0
 long-range coefficients              100000000
 Omega coefficients                           0
 if combine SR and LR in K                    0
 Integral screening is                        0
 Integral computing path is                   2
 max size of driver memory is            800000
 size of driver memory is                593474
 size of scratch memory is             15267112
 max col of scratch BK array               1296
 max len of scratch array in speh3          155
 max len of scratch index in speh4           18
 max int batch size is                      520
 min int batch size is                       52
 fixed nKL is                                52
 max L of basis functions is                  2
 order of int derivative is                   0
 number of shells is                         46
 number of basis is                         123
 number of cartesian basis is               123
 number of contracted shell pairs          1033
 number of primitive shell pairs           3974
 maxK2 (contraction) of shell pair           36
 max number of K2 of shell pair               1
 max number of CS2 of shell pair             80
 max number of PS2 of shell pair            354
 mem total for path MDJ                  519084
 -------------------------------------------------------
 Smallest overlap matrix eigenvalue = 5.32E-03

 Scale SEOQF with 1.000000e-01/1.000000e-01/1.000000e+00

 Standard Electronic Orientation quadrupole field applied
 Nucleus-field energy     =    -0.0000000011 hartrees
 Guess from superposition of atomic densities
 Warning:  Energy on first SCF cycle will be non-variational
 SAD guess density has 58.000000 electrons

 -----------------------------------------------------------------------
  General SCF calculation program by
  Eric Jon Sundstrom, Paul Horn, Yuezhi Mao, Dmitri Zuev, Alec White,
  David Stuck, Shaama M.S., Shane Yost, Joonho Lee, David Small,
  Daniel Levine, Susi Lehtola, Hugh Burton, Evgeny Epifanovsky
 -----------------------------------------------------------------------
 Exchange:     0.2000 Hartree-Fock + 0.0800 Slater + 0.7200 B88
 Correlation:  0.1900 VWN1RPA + 0.8100 LYP
 Using SG-1 standard quadrature grid
 using 12 threads for integral computing
 -------------------------------------------------------
 OpenMP Integral computing Module                
 Release: version 1.0, May 2013, Q-Chem Inc. Pittsburgh 
 -------------------------------------------------------
 -------------------------------------------------------
 OpenMP BLAS3 based DFT computing Module                
 Release: version 1.0, May 2013, Q-Chem Inc. Pittsburgh 
 -------------------------------------------------------
 A unrestricted SCF calculation will be
 performed using DIIS
 SCF converges when DIIS error is below 1.0e-06
 Alpha HF Exchange    Energy =  -6.86860418470643
 Beta HF Exchange     Energy =  -6.86860418470643
 DFT Correlation      Energy =  -2.71728058875326
 DFT Exchange         Energy = -53.89352891367010
 One-Electron (alpha) Energy = -916.70586215165179
 One-Electron (beta)  Energy = -916.70586215165179
 Total Coulomb        Energy = 696.76699239042875
 ---------------------------------------
  Cycle       Energy         DIIS error
 ---------------------------------------
    1    -916.1865774336      2.85e-02  
 Alpha HF Exchange    Energy =  -6.86971263644539
 Beta HF Exchange     Energy =  -6.86971263644539
 DFT Correlation      Energy =  -2.74409399772525
 DFT Exchange         Energy = -54.50147737483255
 One-Electron (alpha) Energy = -920.72960993610116
 One-Electron (beta)  Energy = -920.72960993610081
 Total Coulomb        Energy = 706.18405706375620
    2    -915.4539871028      2.83e-03  
 Alpha HF Exchange    Energy =  -6.81529932414628
 Beta HF Exchange     Energy =  -6.81529932414627
 DFT Correlation      Energy =  -2.71846496072072
 DFT Exchange         Energy = -54.04165878911405
 One-Electron (alpha) Energy = -916.56372188784894
 One-Electron (beta)  Energy = -916.56372188784837
 Total Coulomb        Energy = 697.27720351538869
    3    -915.4347903073      3.25e-03  
 Alpha HF Exchange    Energy =  -6.84069511450833
 Beta HF Exchange     Energy =  -6.84069511450832
 DFT Correlation      Energy =  -2.73152250796605
 DFT Exchange         Energy = -54.25571982027955
 One-Electron (alpha) Energy = -918.69056560103161
 One-Electron (beta)  Energy = -918.69056560103149
 Total Coulomb        Energy = 701.72362510795347
    4    -915.5199663003      4.83e-04  
 Alpha HF Exchange    Energy =  -6.84200958650549
 Beta HF Exchange     Energy =  -6.84200958650548
 DFT Correlation      Energy =  -2.73151262195696
 DFT Exchange         Energy = -54.26493451546448
 One-Electron (alpha) Energy = -918.71756739542877
 One-Electron (beta)  Energy = -918.71756739542877
 Total Coulomb        Energy = 701.78756719936234
    5    -915.5218615508      1.38e-04  
 Alpha HF Exchange    Energy =  -6.84189437479299
 Beta HF Exchange     Energy =  -6.84189437479299
 DFT Correlation      Energy =  -2.73151319638994
 DFT Exchange         Energy = -54.26421812721277
 One-Electron (alpha) Energy = -918.71807144472268
 One-Electron (beta)  Energy = -918.71807144472280
 Total Coulomb        Energy = 701.78749265404758
    6    -915.5219979575      3.74e-05  
 Alpha HF Exchange    Energy =  -6.84173127652598
 Beta HF Exchange     Energy =  -6.84173127652598
 DFT Correlation      Energy =  -2.73145508456732
 DFT Exchange         Energy = -54.26284056248267
 One-Electron (alpha) Energy = -918.70135627841546
 One-Electron (beta)  Energy = -918.70135627841478
 Total Coulomb        Energy = 701.75229023259703
    7    -915.5220081732      7.61e-06  
 Alpha HF Exchange    Energy =  -6.84178894557164
 Beta HF Exchange     Energy =  -6.84178894557165
 DFT Correlation      Energy =  -2.73147746417039
 DFT Exchange         Energy = -54.26329699897542
 One-Electron (alpha) Energy = -918.70806105302972
 One-Electron (beta)  Energy = -918.70806105303029
 Total Coulomb        Energy = 701.76629345009985
    8    -915.5220086591      1.51e-06  
 Alpha HF Exchange    Energy =  -6.84178235010643
 Beta HF Exchange     Energy =  -6.84178235010643
 DFT Correlation      Energy =  -2.73147461643586
 DFT Exchange         Energy = -54.26324233705527
 One-Electron (alpha) Energy = -918.70716644607978
 One-Electron (beta)  Energy = -918.70716644608001
 Total Coulomb        Energy = 701.76443351557737
    9    -915.5220086792      2.35e-07  Convergence criterion met
 ---------------------------------------
 SCF time:   CPU 29.91s  wall 2.00s 
<S^2> =         -0.000000000
 Alpha HF Exchange    Energy =  -6.84178235010643
 Beta HF Exchange     Energy =  -6.84178235010643
 DFT Correlation      Energy =  -2.73147461643586
 DFT Exchange         Energy = -54.26324233705527
 One-Electron (alpha) Energy = -918.70716644607978
 One-Electron (beta)  Energy = -918.70716644608001
 Total Coulomb        Energy = 701.76443351557737
 Nuclear repulsion Energy = 290.80617235111839
 SCF   energy in the final basis set =     -915.5220086792
 Total energy in the final basis set =     -915.5220086792
 
 --------------------------------------------------------------
 
                    Orbital Energies (a.u.)
 --------------------------------------------------------------
 
 Alpha MOs
 -- Occupied --
-88.879 -88.869 -10.239 -10.229 -10.194  -7.942  -7.932  -5.907
 -5.903  -5.897  -5.897  -5.893  -5.886  -0.843  -0.761  -0.715
 -0.656  -0.591  -0.484  -0.453  -0.430  -0.424  -0.400  -0.383
 -0.366  -0.324  -0.321  -0.245  -0.235
 -- Virtual --
  0.018   0.040   0.065   0.079   0.096   0.119   0.135   0.154
  0.166   0.171   0.202   0.212   0.328   0.337   0.358   0.367
  0.376   0.396   0.405   0.442   0.494   0.518   0.536   0.563
  0.579   0.647   0.660   0.685   0.726   0.748   0.756   0.783
  0.811   0.820   0.836   0.853   0.870   0.883   0.888   0.928
  0.945   0.962   0.980   1.033   1.089   1.129   1.166   1.210
  1.363   1.376   1.399   1.566   1.609   1.721   1.771   1.821
  1.853   1.924   2.032   2.035   2.062   2.075   2.094   2.095
  2.116   2.123   2.162   2.202   2.235   2.280   2.352   2.438
  2.490   2.586   2.599   2.628   2.721   2.723   2.751   2.774
  2.825   2.859   2.886   3.175   3.232   3.314   3.428   3.457
  3.468   3.970   4.011   4.271   4.446   4.591
 
 Beta MOs
 -- Occupied --
-88.879 -88.869 -10.239 -10.229 -10.194  -7.942  -7.932  -5.907
 -5.903  -5.897  -5.897  -5.893  -5.886  -0.843  -0.761  -0.715
 -0.656  -0.591  -0.484  -0.453  -0.430  -0.424  -0.400  -0.383
 -0.366  -0.324  -0.321  -0.245  -0.235
 -- Virtual --
  0.018   0.040   0.065   0.079   0.096   0.119   0.135   0.154
  0.166   0.171   0.202   0.212   0.328   0.337   0.358   0.367
  0.376   0.396   0.405   0.442   0.494   0.518   0.536   0.563
  0.579   0.647   0.660   0.685   0.726   0.748   0.756   0.783
  0.811   0.820   0.836   0.853   0.870   0.883   0.888   0.928
  0.945   0.962   0.980   1.033   1.089   1.129   1.166   1.210
  1.363   1.376   1.399   1.566   1.609   1.721   1.771   1.821
  1.853   1.924   2.032   2.035   2.062   2.075   2.094   2.095
  2.116   2.123   2.162   2.202   2.235   2.280   2.352   2.438
  2.490   2.586   2.599   2.628   2.721   2.723   2.751   2.774
  2.825   2.859   2.886   3.175   3.232   3.314   3.428   3.457
  3.468   3.970   4.011   4.271   4.446   4.591
 --------------------------------------------------------------
 
          Ground-State Mulliken Net Atomic Charges

     Atom                 Charge (a.u.)    Spin (a.u.)
  --------------------------------------------------------
      1 S                    -0.042247      -0.000000
      2 S                    -0.043972      -0.000000
      3 C                    -0.204044      -0.000000
      4 C                    -0.322612      -0.000000
      5 C                    -0.307845       0.000000
      6 H                     0.155117       0.000000
      7 H                     0.135624       0.000000
      8 H                     0.145126       0.000000
      9 H                     0.106579       0.000000
     10 H                     0.108876      -0.000000
     11 H                     0.130155      -0.000000
     12 H                     0.058227       0.000000
     13 H                     0.081015       0.000000
  --------------------------------------------------------
  Sum of atomic charges =    -0.000000
  Sum of spin   charges =    -0.000000

 -----------------------------------------------------------------
                    Cartesian Multipole Moments
 -----------------------------------------------------------------
    Charge (ESU x 10^10)
                -0.0000
    Dipole Moment (Debye)
         X       1.7224      Y       1.3979      Z       1.0471
       Tot       2.4530
    Quadrupole Moments (Debye-Ang)
        XX     -53.2230     XY       2.5303     YY     -47.4794
        XZ      -0.4609     YZ      -2.3302     ZZ     -44.8941
    Octopole Moments (Debye-Ang^2)
       XXX      43.4654    XXY       8.6172    XYY       3.8472
       YYY      39.9574    XXZ      -1.6154    XYZ       0.5731
       YYZ       0.6838    XZZ      14.4077    YZZ       8.4765
       ZZZ      -2.9942
    Hexadecapole Moments (Debye-Ang^3)
      XXXX    -751.3241   XXXY      33.6731   XXYY    -176.8919
      XYYY      14.7589   YYYY    -362.3460   XXXZ      -4.9527
      XXYZ      -2.6142   XYYZ       0.0567   YYYZ      -1.0543
      XXZZ    -139.8968   XYZZ       1.1698   YYZZ     -71.5973
      XZZZ      -6.7603   YZZZ       5.4019   ZZZZ     -91.9179
 -----------------------------------------------------------------
 Calculating analytic gradient of the SCF energy
 Gradient of SCF Energy
            1           2           3           4           5           6
    1   0.0002227   0.0141548  -0.0084846  -0.0006409  -0.0059392   0.0024780
    2   0.0147686  -0.0076285  -0.0094234   0.0047502  -0.0073493   0.0058484
    3   0.0084502   0.0045173  -0.0116582  -0.0005776   0.0044183  -0.0018788
            7           8           9          10          11          12
    1  -0.0032202   0.0024903   0.0002295   0.0005791   0.0018568  -0.0018755
    2  -0.0010194   0.0011742  -0.0018446   0.0009799   0.0003233  -0.0026893
    3   0.0010187   0.0011999  -0.0003271   0.0008242  -0.0018397  -0.0037968
           13
    1  -0.0018506
    2   0.0021097
    3  -0.0003504
 Max gradient component =       1.477E-02
 RMS gradient           =       5.331E-03
 Gradient time:  CPU 11.79 s  wall 1.02 s
 Geometry Optimization Parameters
   NAtoms,    NIC,     NZ,  NCons,   NDum,   NFix, NCnnct, MaxDiis
       13      82       0       1       0       0       0       0


** CONSTRAINED OPTIMIZATION IN DELOCALIZED INTERNAL COORDINATES **
   Searching for a Minimum

   Optimization Cycle:   1

                       Coordinates (Angstroms)
     ATOM                X               Y               Z
      1  S         0.6530000000   -1.6551000000    0.1361000000
      2  S        -2.2737000000   -0.0427000000   -0.1035000000
      3  C         0.5138000000    0.1015000000   -0.3613000000
      4  C        -0.6970000000    0.7789000000    0.2925000000
      5  C         1.8039000000    0.8174000000    0.0363000000
      6  H         0.4141000000    0.1309000000   -1.4524000000
      7  H        -0.5924000000    0.8044000000    1.3832000000
      8  H        -0.7706000000    1.8169000000   -0.0497000000
      9  H         1.7684000000    1.8662000000   -0.2789000000
     10  H         1.9624000000    0.8050000000    1.1207000000
     11  H         2.6774000000    0.3636000000   -0.4454000000
     12  H         0.7551000000   -1.4375000000    1.4557000000
     13  H        -1.9747000000   -1.2245000000    0.4557000000
   Point Group: c1    Number of degrees of freedom:    33


   Energy is   -915.522008679

              Constraints and their Current Values
                                        Value     Constraint
   Distance(Angs):        2   4             1.821490     1.200000

 Attempting to Generate Delocalized Internal Coordinates
**WARNING** Constraint Gradient Reduced for constraint   1

   Using Lagrange Multiplier Algorithm


 34 Hessian modes will be used to form the next step
  Hessian Eigenvalues:
    -0.885000    0.045000    0.045000    0.045000    0.045000    0.075919
     0.076295    0.078850    0.081805    0.083482    0.084194    0.094223
     0.127259    0.144645    0.160000    0.160000    0.160000    0.160000
     0.160000    0.176672    0.204035    0.220629    0.238218    0.263175
     0.263282    0.290806    0.296036    0.341239    0.341283    0.341292
     0.341409    0.341604    0.341929    1.129944

 Minimum Search - Taking P-RFO Step
 Searching for Lamda that Maximizes Along the Constraint modes Only
 Value Taken    Lamda =   0.05650876


 ********************************************
 ** ERROR IN DETERMINING Lamda IN CONFormD **
 ********************************************


 ** Scaling Hessian by  2.511501 **


 34 Hessian modes will be used to form the next step
  Hessian Eigenvalues:
    -0.738648    0.113018    0.113018    0.113018    0.113018    0.190672
     0.191616    0.198032    0.205454    0.209665    0.211453    0.236642
     0.319610    0.363277    0.401840    0.401840    0.401840    0.401840
     0.401840    0.443712    0.512433    0.554109    0.598285    0.660965
     0.661234    0.730360    0.743495    0.857021    0.857132    0.857156
     0.857449    0.857938    0.858754    1.353824

 Minimum Search - Taking P-RFO Step
 Searching for Lamda that Maximizes Along the Constraint modes Only
 Value Taken    Lamda =   0.07481121
 Searching for Lamda that Minimizes Along All other modes
 Value Taken    Lamda =  -0.02370981
 Step Taken.  Stepsize is  0.294131

                             Maximum     Tolerance    Cnvgd?
         Gradient            0.300000       0.000300      NO
         Displacement        0.280003       0.001200      NO
         Energy change     *********       0.000001      NO


 New Cartesian Coordinates Obtained by Inverse Iteration

 Displacement from previous Coordinates is:  0.349289
 ----------------------------------------------------------------
             Standard Nuclear Orientation (Angstroms)
    I     Atom           X                Y                Z
 ----------------------------------------------------------------
    1      S       0.6662020454    -1.6889481928     0.1255734022
    2      S      -2.1897009941     0.0436497178    -0.0901489003
    3      C       0.5042859890     0.0794382276    -0.3557516500
    4      C      -0.7214538848     0.7538882458     0.2837589691
    5      C       1.7849858061     0.8208833775     0.0404129117
    6      H       0.4040314943     0.1003499077    -1.4459090890
    7      H      -0.6160651274     0.7845517074     1.3738378222
    8      H      -0.7889243431     1.7901791897    -0.0637724932
    9      H       1.7341283023     1.8694044525    -0.2770680038
   10      H       1.9395462904     0.8120911730     1.1248780651
   11      H       2.6649771264     0.3771832900    -0.4359291251
   12      H       0.7756068717    -1.4674960375     1.4473394180
   13      H      -1.9179195762    -1.1501750587     0.4617786731
 ----------------------------------------------------------------
 Nuclear Repulsion Energy =   294.5358300057 hartrees
 There are       29 alpha and       29 beta electrons

                       Distance Matrix (Angstroms)
             S (  1)   S (  2)   C (  3)   C (  4)   C (  5)   H (  6)
   S (  2)  3.347329
   C (  3)  1.839859  2.707285
   C (  4)  2.813905  1.673319  1.538277
   C (  5)  2.749215  4.052070  1.531953  2.519116
   H (  6)  2.395804  2.927243  1.094957  2.164620  2.152988
   H (  7)  3.052962  2.273439  2.178038  1.095591  2.746705  3.075663
   H (  8)  3.775920  2.239026  2.164320  1.095093  2.752345  2.487764
   H (  9)  3.736905  4.331830  2.173173  2.754775  1.096712  2.502978
   H ( 10)  2.979130  4.372354  2.188382  2.791378  1.095459  3.077877
   H ( 11)  2.929042  4.878392  2.182583  3.482495  1.094603  2.491701
   H ( 12)  1.344647  3.666126  2.391183  2.920558  2.869663  3.311661
   H ( 13)  2.661014  1.343022  2.836791  2.255810  4.215937  3.254926
             H (  7)   H (  8)   H (  9)   H ( 10)   H ( 11)   H ( 12)
   H (  8)  1.762921
   H (  9)  3.070147  2.533292
   H ( 10)  2.567857  3.132746  1.767926
   H ( 11)  3.769144  3.750266  1.765911  1.775250
   H ( 12)  2.648372  3.917099  3.876500  2.579778  3.243341
   H ( 13)  2.503966  3.193199  4.795958  4.378382  4.913415  2.885673

 
 Applying Cartesian multipole field
    Component          Value
    ---------          -----
     (2,0,0)        1.00000E-11
     (0,2,0)        2.00000E-11
     (0,0,2)       -3.00000E-10
 Nucleus-field energy     =    -0.0000000010 hartrees
 Requested basis set is 6-31G(d,p)
 There are 46 shells and 123 basis functions
 A cutoff of  1.0D-14 yielded   1035 shell pairs
 There are      7546 function pairs
 Smallest overlap matrix eigenvalue = 5.24E-03
 Guess from superposition of atomic densities
 Warning:  Energy on first SCF cycle will be non-variational
 SAD guess density has 58.000000 electrons

 -----------------------------------------------------------------------
  General SCF calculation program by
  Eric Jon Sundstrom, Paul Horn, Yuezhi Mao, Dmitri Zuev, Alec White,
  David Stuck, Shaama M.S., Shane Yost, Joonho Lee, David Small,
  Daniel Levine, Susi Lehtola, Hugh Burton, Evgeny Epifanovsky
 -----------------------------------------------------------------------
 Exchange:     0.2000 Hartree-Fock + 0.0800 Slater + 0.7200 B88
 Correlation:  0.1900 VWN1RPA + 0.8100 LYP
 Using SG-1 standard quadrature grid
 using 12 threads for integral computing
 -------------------------------------------------------
 OpenMP Integral computing Module                
 Release: version 1.0, May 2013, Q-Chem Inc. Pittsburgh 
 -------------------------------------------------------
 -------------------------------------------------------
 OpenMP BLAS3 based DFT computing Module                
 Release: version 1.0, May 2013, Q-Chem Inc. Pittsburgh 
 -------------------------------------------------------
 A unrestricted SCF calculation will be
 performed using DIIS
 SCF converges when DIIS error is below 1.0e-06
 Alpha HF Exchange    Energy =  -6.88305387621673
 Beta HF Exchange     Energy =  -6.88305387621673
 DFT Correlation      Energy =  -2.72076412350650
 DFT Exchange         Energy = -53.92251655192297
 One-Electron (alpha) Energy = -920.37815108690552
 One-Electron (beta)  Energy = -920.37815108690552
 Total Coulomb        Energy = 700.29714553534302
 ---------------------------------------
  Cycle       Energy         DIIS error
 ---------------------------------------
    1    -916.3327150616      2.99e-02  
 Alpha HF Exchange    Energy =  -6.87611693556569
 Beta HF Exchange     Energy =  -6.87611693556569
 DFT Correlation      Energy =  -2.74823857121389
 DFT Exchange         Energy = -54.54854884045130
 One-Electron (alpha) Energy = -924.53603637423873
 One-Electron (beta)  Energy = -924.53603637423862
 Total Coulomb        Energy = 710.14733913439477
    2    -915.4379248922      2.95e-03  
 Alpha HF Exchange    Energy =  -6.81895595429245
 Beta HF Exchange     Energy =  -6.81895595429243
 DFT Correlation      Energy =  -2.72128064818524
 DFT Exchange         Energy = -54.06659358581273
 One-Electron (alpha) Energy = -920.06676254856154
 One-Electron (beta)  Energy = -920.06676254856075
 Total Coulomb        Energy = 700.60776436503761
    3    -915.4157168700      3.41e-03  
 Alpha HF Exchange    Energy =  -6.84606655663864
 Beta HF Exchange     Energy =  -6.84606655663864
 DFT Correlation      Energy =  -2.73511057501569
 DFT Exchange         Energy = -54.29430876380795
 One-Electron (alpha) Energy = -922.38756226610576
 One-Electron (beta)  Energy = -922.38756226610576
 Total Coulomb        Energy = 705.45130265028183
    4    -915.5095443293      4.67e-04  
 Alpha HF Exchange    Energy =  -6.84727824434830
 Beta HF Exchange     Energy =  -6.84727824434830
 DFT Correlation      Energy =  -2.73509369666459
 DFT Exchange         Energy = -54.30277980923892
 One-Electron (alpha) Energy = -922.40024704327288
 One-Electron (beta)  Energy = -922.40024704327300
 Total Coulomb        Energy = 705.48581923272161
    5    -915.5112748437      1.41e-04  
 Alpha HF Exchange    Energy =  -6.84717603749198
 Beta HF Exchange     Energy =  -6.84717603749199
 DFT Correlation      Energy =  -2.73509524543781
 DFT Exchange         Energy = -54.30215601861536
 One-Electron (alpha) Energy = -922.40324768332107
 One-Electron (beta)  Energy = -922.40324768332107
 Total Coulomb        Energy = 705.49085407938037
    6    -915.5114146216      3.73e-05  
 Alpha HF Exchange    Energy =  -6.84701555497221
 Beta HF Exchange     Energy =  -6.84701555497220
 DFT Correlation      Energy =  -2.73503834536971
 DFT Exchange         Energy = -54.30080392173774
 One-Electron (alpha) Energy = -922.38669774946516
 One-Electron (beta)  Energy = -922.38669774946470
 Total Coulomb        Energy = 705.45601410888412
    7    -915.5114247624      8.01e-06  
 Alpha HF Exchange    Energy =  -6.84707152651208
 Beta HF Exchange     Energy =  -6.84707152651208
 DFT Correlation      Energy =  -2.73506001466169
 DFT Exchange         Energy = -54.30124609281273
 One-Electron (alpha) Energy = -922.39313624361409
 One-Electron (beta)  Energy = -922.39313624361409
 Total Coulomb        Energy = 705.46946635221991
    8    -915.5114252908      1.61e-06  
 Alpha HF Exchange    Energy =  -6.84706759532382
 Beta HF Exchange     Energy =  -6.84706759532382
 DFT Correlation      Energy =  -2.73505815873065
 DFT Exchange         Energy = -54.30121261132574
 One-Electron (alpha) Energy = -922.39257714643043
 One-Electron (beta)  Energy = -922.39257714643043
 Total Coulomb        Energy = 705.46830493771722
    9    -915.5114253112      4.32e-07  Convergence criterion met
 ---------------------------------------
 SCF time:   CPU 29.87s  wall 2.00s 
<S^2> =         -0.000000000
 Alpha HF Exchange    Energy =  -6.84706759532382
 Beta HF Exchange     Energy =  -6.84706759532382
 DFT Correlation      Energy =  -2.73505815873065
 DFT Exchange         Energy = -54.30121261132574
 One-Electron (alpha) Energy = -922.39257714643043
 One-Electron (beta)  Energy = -922.39257714643043
 Total Coulomb        Energy = 705.46830493771722
 Nuclear repulsion Energy = 294.53583000468160
 SCF   energy in the final basis set =     -915.5114253112
 Total energy in the final basis set =     -915.5114253112
 
 --------------------------------------------------------------
 
                    Orbital Energies (a.u.)
 --------------------------------------------------------------
 
 Alpha MOs
 -- Occupied --
-88.881 -88.864 -10.237 -10.220 -10.192  -7.944  -7.930  -5.908
 -5.905  -5.898  -5.895  -5.891  -5.885  -0.853  -0.780  -0.714
 -0.648  -0.590  -0.493  -0.454  -0.432  -0.428  -0.402  -0.383
 -0.365  -0.329  -0.320  -0.246  -0.232
 -- Virtual --
  0.019   0.044   0.064   0.091   0.110   0.118   0.134   0.152
  0.169   0.171   0.198   0.213   0.332   0.340   0.360   0.367
  0.375   0.393   0.411   0.444   0.499   0.519   0.541   0.577
  0.584   0.635   0.667   0.687   0.724   0.751   0.755   0.773
  0.802   0.822   0.840   0.847   0.871   0.883   0.897   0.931
  0.949   0.960   1.010   1.074   1.107   1.123   1.184   1.207
  1.371   1.390   1.422   1.568   1.620   1.714   1.770   1.817
  1.855   1.943   2.033   2.040   2.061   2.079   2.090   2.100
  2.121   2.128   2.209   2.236   2.264   2.283   2.356   2.444
  2.502   2.590   2.609   2.635   2.724   2.725   2.747   2.779
  2.833   2.860   2.887   3.179   3.242   3.318   3.430   3.457
  3.471   3.976   4.022   4.277   4.458   4.597
 
 Beta MOs
 -- Occupied --
-88.881 -88.864 -10.237 -10.220 -10.192  -7.944  -7.930  -5.908
 -5.905  -5.898  -5.895  -5.891  -5.885  -0.853  -0.780  -0.714
 -0.648  -0.590  -0.493  -0.454  -0.432  -0.428  -0.402  -0.383
 -0.365  -0.329  -0.320  -0.246  -0.232
 -- Virtual --
  0.019   0.044   0.064   0.091   0.110   0.118   0.134   0.152
  0.169   0.171   0.198   0.213   0.332   0.340   0.360   0.367
  0.375   0.393   0.411   0.444   0.499   0.519   0.541   0.577
  0.584   0.635   0.667   0.687   0.724   0.751   0.755   0.773
  0.802   0.822   0.840   0.847   0.871   0.883   0.897   0.931
  0.949   0.960   1.010   1.074   1.107   1.123   1.184   1.207
  1.371   1.390   1.422   1.568   1.620   1.714   1.770   1.817
  1.855   1.943   2.033   2.040   2.061   2.079   2.090   2.100
  2.121   2.128   2.209   2.236   2.264   2.283   2.356   2.444
  2.502   2.590   2.609   2.635   2.724   2.725   2.747   2.779
  2.833   2.860   2.887   3.179   3.242   3.318   3.430   3.457
  3.471   3.976   4.022   4.277   4.458   4.597
 --------------------------------------------------------------
 
          Ground-State Mulliken Net Atomic Charges

     Atom                 Charge (a.u.)    Spin (a.u.)
  --------------------------------------------------------
      1 S                    -0.042652      -0.000000
      2 S                    -0.023050       0.000000
      3 C                    -0.210892      -0.000000
      4 C                    -0.322800      -0.000000
      5 C                    -0.307067       0.000000
      6 H                     0.152700       0.000000
      7 H                     0.131749       0.000000
      8 H                     0.145893       0.000000
      9 H                     0.106653      -0.000000
     10 H                     0.108596       0.000000
     11 H                     0.128212      -0.000000
     12 H                     0.058554      -0.000000
     13 H                     0.074104      -0.000000
  --------------------------------------------------------
  Sum of atomic charges =    -0.000000
  Sum of spin   charges =    -0.000000

 -----------------------------------------------------------------
                    Cartesian Multipole Moments
 -----------------------------------------------------------------
    Charge (ESU x 10^10)
                -0.0000
    Dipole Moment (Debye)
         X       1.5909      Y       1.3729      Z       1.0391
       Tot       2.3443
    Quadrupole Moments (Debye-Ang)
        XX     -52.9176     XY       2.3224     YY     -47.5938
        XZ      -0.4471     YZ      -2.3245     ZZ     -44.8558
    Octopole Moments (Debye-Ang^2)
       XXX      38.8943    XXY       8.4500    XYY       3.3588
       YYY      39.2409    XXZ      -1.3388    XYZ       0.3190
       YYZ       0.4450    XZZ      13.0226    YZZ       7.8787
       ZZZ      -3.1246
    Hexadecapole Moments (Debye-Ang^3)
      XXXX    -715.5873   XXXY      43.0109   XXYY    -173.9562
      XYYY      23.0643   YYYY    -369.8006   XXXZ      -4.2152
      XXYZ      -2.3573   XYYZ       1.0865   YYYZ      -1.2693
      XXZZ    -133.7841   XYZZ       4.6252   YYZZ     -72.5373
      XZZZ      -5.5314   YZZZ       5.4334   ZZZZ     -91.2036
 -----------------------------------------------------------------
 Calculating analytic gradient of the SCF energy
 Gradient of SCF Energy
            1           2           3           4           5           6
    1   0.0018341   0.0801545  -0.0137149  -0.0568575  -0.0041733   0.0022242
    2   0.0081522   0.0300696  -0.0110098  -0.0243830  -0.0044426   0.0049287
    3   0.0054418   0.0209954  -0.0099930  -0.0157714   0.0045734  -0.0008552
            7           8           9          10          11          12
    1  -0.0080844  -0.0037079   0.0006959   0.0004335   0.0009670  -0.0018910
    2  -0.0044186  -0.0015572  -0.0007839   0.0007478   0.0002879  -0.0013664
    3  -0.0008557  -0.0005287  -0.0003256   0.0003984  -0.0014602  -0.0024339
           13
    1   0.0021197
    2   0.0037752
    3   0.0008148
 Max gradient component =       8.015E-02
 RMS gradient           =       1.796E-02
 Gradient time:  CPU 12.02 s  wall 1.05 s
 Geometry Optimization Parameters
   NAtoms,    NIC,     NZ,  NCons,   NDum,   NFix, NCnnct, MaxDiis
       13      82       0       1       0       0       0       0

 Cartesian Hessian Update
 Hessian Updated using BFGS Update


** CONSTRAINED OPTIMIZATION IN DELOCALIZED INTERNAL COORDINATES **
   Searching for a Minimum

   Optimization Cycle:   2

                       Coordinates (Angstroms)
     ATOM                X               Y               Z
      1  S         0.6662020454   -1.6889481928    0.1255734022
      2  S        -2.1897009941    0.0436497178   -0.0901489003
      3  C         0.5042859890    0.0794382276   -0.3557516500
      4  C        -0.7214538848    0.7538882458    0.2837589691
      5  C         1.7849858061    0.8208833775    0.0404129117
      6  H         0.4040314943    0.1003499077   -1.4459090890
      7  H        -0.6160651274    0.7845517074    1.3738378222
      8  H        -0.7889243431    1.7901791897   -0.0637724932
      9  H         1.7341283023    1.8694044525   -0.2770680038
     10  H         1.9395462904    0.8120911730    1.1248780651
     11  H         2.6649771264    0.3771832900   -0.4359291251
     12  H         0.7756068717   -1.4674960375    1.4473394180
     13  H        -1.9179195762   -1.1501750587    0.4617786731
   Point Group: c1    Number of degrees of freedom:    33


   Energy is   -915.511425311

              Constraints and their Current Values
                                        Value     Constraint
   Distance(Angs):        2   4             1.673319     1.200000
 Hessian Updated using BFGS Update
**WARNING** Constraint Gradient Reduced for constraint   1

   Using Lagrange Multiplier Algorithm


 29 Hessian modes will be used to form the next step
  Hessian Eigenvalues:
    -0.857713    0.112572    0.113030    0.189098    0.191625    0.196721
     0.205430    0.209636    0.212816    0.236636    0.321626    0.362357
     0.401404    0.406957    0.444039    0.512601    0.545103    0.597304
     0.660578    0.661203    0.729069    0.743232    0.856948    0.857138
     0.857287    0.857439    0.857935    0.858864    1.176535

 Minimum Search - Taking P-RFO Step
 Searching for Lamda that Maximizes Along the Constraint modes Only
 Value Taken    Lamda =   0.03429400
 Searching for Lamda that Minimizes Along All other modes
 Value Taken    Lamda =  -0.05944981
 Calculated Step too Large.  Step scaled by  0.929428
 Step Taken.  Stepsize is  0.300000

                             Maximum     Tolerance    Cnvgd?
         Gradient            0.300000       0.000300      NO
         Displacement        0.266106       0.001200      NO
         Energy change      0.010583       0.000001      NO


 New Cartesian Coordinates Obtained by Inverse Iteration

 Displacement from previous Coordinates is:  0.306615
 ----------------------------------------------------------------
             Standard Nuclear Orientation (Angstroms)
    I     Atom           X                Y                Z
 ----------------------------------------------------------------
    1      S       0.6862951594    -1.7194093498     0.1186569961
    2      S      -2.1187474457     0.1275433284    -0.0707999317
    3      C       0.5012407266     0.0597805369    -0.3479023473
    4      C      -0.7500650618     0.7235633511     0.2756537558
    5      C       1.7707439739     0.8300514609     0.0435905484
    6      H       0.3985072920     0.0682864677    -1.4371667746
    7      H      -0.6142673502     0.7670198002     1.3638189778
    8      H      -0.7883394391     1.7607396943    -0.0772700957
    9      H       1.6986943215     1.8767776304    -0.2782741555
   10      H       1.9211172972     0.8268858088     1.1281765417
   11      H       2.6587031980     0.3989022089    -0.4261887273
   12      H       0.8081968501    -1.4965465574     1.4429996365
   13      H      -1.9323795219    -1.0985943805     0.4537055758
 ----------------------------------------------------------------
 Nuclear Repulsion Energy =   297.8872721356 hartrees
 There are       29 alpha and       29 beta electrons

                       Distance Matrix (Angstroms)
             S (  1)   S (  2)   C (  3)   C (  4)   C (  5)   H (  6)
   S (  2)  3.363836
   C (  3)  1.848632  2.635473
   C (  4)  2.838291  1.532502  1.547642
   C (  5)  2.771537  3.954080  1.535651  2.533707
   H (  6)  2.387314  2.864793  1.094131  2.163876  2.157768
   H (  7)  3.069889  2.174976  2.162067  1.097467  2.726766  3.059324
   H (  8)  3.784755  2.106504  2.151632  1.096246  2.725747  2.474333
   H (  9)  3.757002  4.204251  2.177205  2.762818  1.097462  2.510808
   H ( 10)  3.004586  4.271666  2.187078  2.805831  1.094965  3.078116
   H ( 11)  2.945249  4.798330  2.185355  3.495381  1.093185  2.497973
   H ( 12)  1.348485  3.673726  2.392427  2.952925  2.880608  3.303317
   H ( 13)  2.712034  1.346571  2.811924  2.179410  4.195354  3.220255
             H (  7)   H (  8)   H (  9)   H ( 10)   H ( 11)   H ( 12)
   H (  8)  1.759124
   H (  9)  3.045952  2.497840
   H ( 10)  2.547015  3.109074  1.769138
   H ( 11)  3.748596  3.722694  1.768505  1.772923
   H ( 12)  2.674585  3.933200  3.890384  2.595389  3.242062
   H ( 13)  2.458911  3.125149  4.751140  4.360255  4.908640  2.940719

 
 Applying Cartesian multipole field
    Component          Value
    ---------          -----
     (2,0,0)        1.00000E-11
     (0,2,0)        2.00000E-11
     (0,0,2)       -3.00000E-10
 Nucleus-field energy     =    -0.0000000008 hartrees
 Requested basis set is 6-31G(d,p)
 There are 46 shells and 123 basis functions
 A cutoff of  1.0D-14 yielded   1038 shell pairs
 There are      7581 function pairs
 Smallest overlap matrix eigenvalue = 5.17E-03
 Guess from superposition of atomic densities
 Warning:  Energy on first SCF cycle will be non-variational
 SAD guess density has 58.000000 electrons

 -----------------------------------------------------------------------
  General SCF calculation program by
  Eric Jon Sundstrom, Paul Horn, Yuezhi Mao, Dmitri Zuev, Alec White,
  David Stuck, Shaama M.S., Shane Yost, Joonho Lee, David Small,
  Daniel Levine, Susi Lehtola, Hugh Burton, Evgeny Epifanovsky
 -----------------------------------------------------------------------
 Exchange:     0.2000 Hartree-Fock + 0.0800 Slater + 0.7200 B88
 Correlation:  0.1900 VWN1RPA + 0.8100 LYP
 Using SG-1 standard quadrature grid
 using 12 threads for integral computing
 -------------------------------------------------------
 OpenMP Integral computing Module                
 Release: version 1.0, May 2013, Q-Chem Inc. Pittsburgh 
 -------------------------------------------------------
 -------------------------------------------------------
 OpenMP BLAS3 based DFT computing Module                
 Release: version 1.0, May 2013, Q-Chem Inc. Pittsburgh 
 -------------------------------------------------------
 A unrestricted SCF calculation will be
 performed using DIIS
 SCF converges when DIIS error is below 1.0e-06
 Alpha HF Exchange    Energy =  -6.89942479532158
 Beta HF Exchange     Energy =  -6.89942479532158
 DFT Correlation      Energy =  -2.72407196105346
 DFT Exchange         Energy = -53.95662464335639
 One-Electron (alpha) Energy = -923.63015549696968
 One-Electron (beta)  Energy = -923.63015549696968
 Total Coulomb        Energy = 703.34202617802760
 ---------------------------------------
  Cycle       Energy         DIIS error
 ---------------------------------------
    1    -916.5105588762      3.18e-02  
 Alpha HF Exchange    Energy =  -6.88362149194871
 Beta HF Exchange     Energy =  -6.88362149194871
 DFT Correlation      Energy =  -2.75257428194564
 DFT Exchange         Energy = -54.60752013706691
 One-Electron (alpha) Energy = -927.99380628010738
 One-Electron (beta)  Energy = -927.99380628010749
 Total Coulomb        Energy = 713.83638717604697
    2    -915.3912906523      3.14e-03  
 Alpha HF Exchange    Energy =  -6.82228171543938
 Beta HF Exchange     Energy =  -6.82228171543937
 DFT Correlation      Energy =  -2.72366231415925
 DFT Exchange         Energy = -54.09148564828986
 One-Electron (alpha) Energy = -923.05526797158473
 One-Electron (beta)  Energy = -923.05526797158416
 Total Coulomb        Energy = 703.31917009330664
    3    -915.3638051084      3.66e-03  
 Alpha HF Exchange    Energy =  -6.85196469589100
 Beta HF Exchange     Energy =  -6.85196469589100
 DFT Correlation      Energy =  -2.73865311212778
 DFT Exchange         Energy = -54.34007188502927
 One-Electron (alpha) Energy = -925.67072334420482
 One-Electron (beta)  Energy = -925.67072334420482
 Total Coulomb        Energy = 708.76538415393497
    4    -915.4714447886      4.70e-04  
 Alpha HF Exchange    Energy =  -6.85307787893905
 Beta HF Exchange     Energy =  -6.85307787893905
 DFT Correlation      Energy =  -2.73861948857825
 DFT Exchange         Energy = -54.34774963529422
 One-Electron (alpha) Energy = -925.66972741167319
 One-Electron (beta)  Energy = -925.66972741167376
 Total Coulomb        Energy = 708.77153363212358
    5    -915.4731739382      1.51e-04  
 Alpha HF Exchange    Energy =  -6.85296990744280
 Beta HF Exchange     Energy =  -6.85296990744281
 DFT Correlation      Energy =  -2.73862002235764
 DFT Exchange         Energy = -54.34709603639658
 One-Electron (alpha) Energy = -925.67238484389293
 One-Electron (beta)  Energy = -925.67238484389327
 Total Coulomb        Energy = 708.77581867458139
    6    -915.4733347520      3.83e-05  
 Alpha HF Exchange    Energy =  -6.85280901304016
 Beta HF Exchange     Energy =  -6.85280901304016
 DFT Correlation      Energy =  -2.73856079138957
 DFT Exchange         Energy = -54.34573314410018
 One-Electron (alpha) Energy = -925.65648732861723
 One-Electron (beta)  Energy = -925.65648732861735
 Total Coulomb        Energy = 708.74226910743369
    7    -915.4733453766      9.26e-06  
 Alpha HF Exchange    Energy =  -6.85286187676431
 Beta HF Exchange     Energy =  -6.85286187676431
 DFT Correlation      Energy =  -2.73858223728369
 DFT Exchange         Energy = -54.34615345155612
 One-Electron (alpha) Energy = -925.66239622345097
 One-Electron (beta)  Energy = -925.66239622345074
 Total Coulomb        Energy = 708.75463368977353
    8    -915.4733460647      1.72e-06  
 Alpha HF Exchange    Energy =  -6.85286224660496
 Beta HF Exchange     Energy =  -6.85286224660497
 DFT Correlation      Energy =  -2.73858181530151
 DFT Exchange         Energy = -54.34615337734252
 One-Electron (alpha) Energy = -925.66236408074133
 One-Electron (beta)  Energy = -925.66236408074155
 Total Coulomb        Energy = 708.75456962534372
    9    -915.4733460872      5.12e-07  Convergence criterion met
 ---------------------------------------
 SCF time:   CPU 29.49s  wall 2.00s 
<S^2> =         -0.000000000
 Alpha HF Exchange    Energy =  -6.85286224660496
 Beta HF Exchange     Energy =  -6.85286224660497
 DFT Correlation      Energy =  -2.73858181530151
 DFT Exchange         Energy = -54.34615337734252
 One-Electron (alpha) Energy = -925.66236408074133
 One-Electron (beta)  Energy = -925.66236408074155
 Total Coulomb        Energy = 708.75456962534372
 Nuclear repulsion Energy = 297.88727213480502
 SCF   energy in the final basis set =     -915.4733460872
 Total energy in the final basis set =     -915.4733460872
 
 --------------------------------------------------------------
 
                    Orbital Energies (a.u.)
 --------------------------------------------------------------
 
 Alpha MOs
 -- Occupied --
-88.881 -88.858 -10.236 -10.212 -10.192  -7.944  -7.929  -5.909
 -5.905  -5.899  -5.894  -5.890  -5.883  -0.874  -0.793  -0.713
 -0.642  -0.589  -0.506  -0.456  -0.438  -0.430  -0.403  -0.385
 -0.364  -0.332  -0.314  -0.248  -0.226
 -- Virtual --
  0.019   0.048   0.063   0.088   0.114   0.125   0.133   0.152
  0.172   0.173   0.193   0.215   0.333   0.339   0.360   0.371
  0.375   0.390   0.421   0.447   0.507   0.521   0.550   0.588
  0.606   0.625   0.675   0.691   0.723   0.742   0.755   0.769
  0.789   0.821   0.834   0.848   0.873   0.879   0.903   0.932
  0.950   0.961   1.023   1.107   1.115   1.121   1.195   1.265
  1.380   1.401   1.451   1.571   1.635   1.720   1.771   1.813
  1.854   1.959   2.033   2.046   2.060   2.081   2.089   2.098
  2.122   2.129   2.212   2.249   2.287   2.339   2.369   2.451
  2.512   2.591   2.621   2.650   2.723   2.733   2.744   2.783
  2.836   2.862   2.886   3.181   3.246   3.320   3.431   3.451
  3.475   3.978   4.038   4.278   4.472   4.605
 
 Beta MOs
 -- Occupied --
-88.881 -88.858 -10.236 -10.212 -10.192  -7.944  -7.929  -5.909
 -5.905  -5.899  -5.894  -5.890  -5.883  -0.874  -0.793  -0.713
 -0.642  -0.589  -0.506  -0.456  -0.438  -0.430  -0.403  -0.385
 -0.364  -0.332  -0.314  -0.248  -0.226
 -- Virtual --
  0.019   0.048   0.063   0.088   0.114   0.125   0.133   0.152
  0.172   0.173   0.193   0.215   0.333   0.339   0.360   0.371
  0.375   0.390   0.421   0.447   0.507   0.521   0.550   0.588
  0.606   0.625   0.675   0.691   0.723   0.742   0.755   0.769
  0.789   0.821   0.834   0.848   0.873   0.879   0.903   0.932
  0.950   0.961   1.023   1.107   1.115   1.121   1.195   1.265
  1.380   1.401   1.451   1.571   1.635   1.720   1.771   1.813
  1.854   1.959   2.033   2.046   2.060   2.081   2.089   2.098
  2.122   2.129   2.212   2.249   2.287   2.339   2.369   2.451
  2.512   2.591   2.621   2.650   2.723   2.733   2.744   2.783
  2.836   2.862   2.886   3.181   3.246   3.320   3.431   3.451
  3.475   3.978   4.038   4.278   4.472   4.605
 --------------------------------------------------------------
 
          Ground-State Mulliken Net Atomic Charges

     Atom                 Charge (a.u.)    Spin (a.u.)
  --------------------------------------------------------
      1 S                    -0.044773      -0.000000
      2 S                    -0.017066       0.000000
      3 C                    -0.219294       0.000000
      4 C                    -0.298045      -0.000000
      5 C                    -0.307039       0.000000
      6 H                     0.149400      -0.000000
      7 H                     0.123292       0.000000
      8 H                     0.146471       0.000000
      9 H                     0.106528      -0.000000
     10 H                     0.108892      -0.000000
     11 H                     0.127774      -0.000000
     12 H                     0.058076       0.000000
     13 H                     0.065783       0.000000
  --------------------------------------------------------
  Sum of atomic charges =    -0.000000
  Sum of spin   charges =     0.000000

 -----------------------------------------------------------------
                    Cartesian Multipole Moments
 -----------------------------------------------------------------
    Charge (ESU x 10^10)
                 0.0000
    Dipole Moment (Debye)
         X       1.4730      Y       1.3825      Z       1.0273
       Tot       2.2663
    Quadrupole Moments (Debye-Ang)
        XX     -52.5586     XY       2.2980     YY     -47.6449
        XZ      -0.4485     YZ      -2.2845     ZZ     -44.8646
    Octopole Moments (Debye-Ang^2)
       XXX      34.6008    XXY       7.8793    XYY       2.7626
       YYY      38.6152    XXZ      -1.0104    XYZ       0.0127
       YYZ       0.1153    XZZ      11.7822    YZZ       7.2774
       ZZZ      -3.6530
    Hexadecapole Moments (Debye-Ang^3)
      XXXX    -688.2560   XXXY      52.6304   XXYY    -172.4581
      XYYY      30.7540   YYYY    -377.8880   XXXZ      -3.8531
      XXYZ      -2.1188   XYYZ       2.1009   YYYZ      -1.3725
      XXZZ    -129.2183   XYZZ       7.7487   YYZZ     -73.6873
      XZZZ      -3.9917   YZZZ       5.5412   ZZZZ     -90.6981
 -----------------------------------------------------------------
 Calculating analytic gradient of the SCF energy
 Gradient of SCF Energy
            1           2           3           4           5           6
    1   0.0033139   0.2062624  -0.0165568  -0.1784689  -0.0012110   0.0017886
    2   0.0020008   0.0868236  -0.0097199  -0.0750765  -0.0019291   0.0038988
    3   0.0024443   0.0541785  -0.0066722  -0.0479210   0.0039551   0.0002058
            7           8           9          10          11          12
    1  -0.0110298  -0.0075438   0.0007569   0.0002052   0.0003319  -0.0016128
    2  -0.0069791  -0.0036674  -0.0000042   0.0003774   0.0003778  -0.0002448
    3  -0.0028725  -0.0022584  -0.0003365  -0.0000402  -0.0008772  -0.0008123
           13
    1   0.0037641
    2   0.0041426
    3   0.0010067
 Max gradient component =       2.063E-01
 RMS gradient           =       4.898E-02
 Gradient time:  CPU 12.08 s  wall 1.06 s
 Geometry Optimization Parameters
   NAtoms,    NIC,     NZ,  NCons,   NDum,   NFix, NCnnct, MaxDiis
       13      82       0       1       0       0       0       0

 Cartesian Hessian Update
 Hessian Updated using BFGS Update


** CONSTRAINED OPTIMIZATION IN DELOCALIZED INTERNAL COORDINATES **
   Searching for a Minimum

   Optimization Cycle:   3

                       Coordinates (Angstroms)
     ATOM                X               Y               Z
      1  S         0.6862951594   -1.7194093498    0.1186569961
      2  S        -2.1187474457    0.1275433284   -0.0707999317
      3  C         0.5012407266    0.0597805369   -0.3479023473
      4  C        -0.7500650618    0.7235633511    0.2756537558
      5  C         1.7707439739    0.8300514609    0.0435905484
      6  H         0.3985072920    0.0682864677   -1.4371667746
      7  H        -0.6142673502    0.7670198002    1.3638189778
      8  H        -0.7883394391    1.7607396943   -0.0772700957
      9  H         1.6986943215    1.8767776304   -0.2782741555
     10  H         1.9211172972    0.8268858088    1.1281765417
     11  H         2.6587031980    0.3989022089   -0.4261887273
     12  H         0.8081968501   -1.4965465574    1.4429996365
     13  H        -1.9323795219   -1.0985943805    0.4537055758
   Point Group: c1    Number of degrees of freedom:    33


   Energy is   -915.473346087

              Constraints and their Current Values
                                        Value     Constraint
   Distance(Angs):        2   4             1.532502     1.200000
 Hessian Updated using BFGS Update
**WARNING** Constraint Gradient Reduced for constraint   1

   Using Lagrange Multiplier Algorithm


 31 Hessian modes will be used to form the next step
  Hessian Eigenvalues:
    -0.748285    0.112413    0.113018    0.113031    0.187436    0.191671
     0.196117    0.205416    0.209598    0.211975    0.236574    0.319942
     0.361518    0.400512    0.401843    0.404832    0.444329    0.512810
     0.538885    0.597286    0.660244    0.661186    0.726843    0.743379
     0.856698    0.857102    0.857201    0.857500    0.857956    0.858774
     1.364642

 Minimum Search - Taking P-RFO Step
 Searching for Lamda that Maximizes Along the Constraint modes Only
 Value Taken    Lamda =   0.08945535
 Searching for Lamda that Minimizes Along All other modes
 Value Taken    Lamda =  -0.02375521
 Calculated Step too Large.  Step scaled by  0.841901
 Step Taken.  Stepsize is  0.300000

                             Maximum     Tolerance    Cnvgd?
         Gradient            0.300000       0.000300      NO
         Displacement        0.231358       0.001200      NO
         Energy change      0.038079       0.000001      NO


 New Cartesian Coordinates Obtained by Inverse Iteration

 Displacement from previous Coordinates is:  0.290092
 ----------------------------------------------------------------
             Standard Nuclear Orientation (Angstroms)
    I     Atom           X                Y                Z
 ----------------------------------------------------------------
    1      S       0.7006786212    -1.7403216382     0.1173458678
    2      S      -2.0586980858     0.1917531552    -0.0525753386
    3      C       0.5021789065     0.0457743352    -0.3384546841
    4      C      -0.7806917599     0.6917702080     0.2714415153
    5      C       1.7594090865     0.8425649466     0.0450845745
    6      H       0.3948220198     0.0387667019    -1.4272608751
    7      H      -0.5853841703     0.7556065354     1.3549754772
    8      H      -0.7682465954     1.7322251472    -0.0830167474
    9      H       1.6649386555     1.8858813827    -0.2829978649
   10      H       1.9069033947     0.8471026095     1.1298552296
   11      H       2.6546245088     0.4227897205    -0.4185397727
   12      H       0.8408204911    -1.5196587504     1.4432234447
   13      H      -1.9916550726    -1.0692543536     0.4299191738
 ----------------------------------------------------------------
 Nuclear Repulsion Energy =   301.1931429221 hartrees
 There are       29 alpha and       29 beta electrons

                       Distance Matrix (Angstroms)
             S (  1)   S (  2)   C (  3)   C (  4)   C (  5)   H (  6)
   S (  2)  3.372825
   C (  3)  1.853994  2.580916
   C (  4)  2.851890  1.410072  1.560462
   C (  5)  2.792389  3.874408  1.537077  2.554621
   H (  6)  2.375819  2.816545  1.094109  2.166526  2.162404
   H (  7)  3.068443  2.114186  2.134095  1.102844  2.687272  3.035705
   H (  8)  3.775774  2.009787  2.126816  1.099246  2.682713  2.455101
   H (  9)  3.773516  4.097394  2.177402  2.777483  1.097758  2.516817
   H ( 10)  3.029013  4.189704  2.184333  2.825627  1.094761  3.078740
   H ( 11)  2.963803  4.733151  2.186682  3.514231  1.092048  2.504336
   H ( 12)  1.351400  3.684230  2.395754  2.982079  2.894598  3.296556
   H ( 13)  2.792256  1.351827  2.837762  2.143071  4.227722  3.220575
             H (  7)   H (  8)   H (  9)   H ( 10)   H ( 11)   H ( 12)
   H (  8)  1.747868
   H (  9)  3.004069  2.446220
   H ( 10)  2.504106  3.067724  1.770244
   H ( 11)  3.708609  3.680115  1.771578  1.771061
   H ( 12)  2.686760  3.936147  3.905984  2.614630  3.244866
   H ( 13)  2.482629  3.099697  4.755182  4.400124  4.953180  3.041803

 
 Applying Cartesian multipole field
    Component          Value
    ---------          -----
     (2,0,0)        1.00000E-11
     (0,2,0)        2.00000E-11
     (0,0,2)       -3.00000E-10
 Nucleus-field energy     =    -0.0000000007 hartrees
 Requested basis set is 6-31G(d,p)
 There are 46 shells and 123 basis functions
 A cutoff of  1.0D-14 yielded   1038 shell pairs
 There are      7581 function pairs
 Smallest overlap matrix eigenvalue = 5.05E-03
 Guess from superposition of atomic densities
 Warning:  Energy on first SCF cycle will be non-variational
 SAD guess density has 58.000000 electrons

 -----------------------------------------------------------------------
  General SCF calculation program by
  Eric Jon Sundstrom, Paul Horn, Yuezhi Mao, Dmitri Zuev, Alec White,
  David Stuck, Shaama M.S., Shane Yost, Joonho Lee, David Small,
  Daniel Levine, Susi Lehtola, Hugh Burton, Evgeny Epifanovsky
 -----------------------------------------------------------------------
 Exchange:     0.2000 Hartree-Fock + 0.0800 Slater + 0.7200 B88
 Correlation:  0.1900 VWN1RPA + 0.8100 LYP
 Using SG-1 standard quadrature grid
 using 12 threads for integral computing
 -------------------------------------------------------
 OpenMP Integral computing Module                
 Release: version 1.0, May 2013, Q-Chem Inc. Pittsburgh 
 -------------------------------------------------------
 -------------------------------------------------------
 OpenMP BLAS3 based DFT computing Module                
 Release: version 1.0, May 2013, Q-Chem Inc. Pittsburgh 
 -------------------------------------------------------
 A unrestricted SCF calculation will be
 performed using DIIS
 SCF converges when DIIS error is below 1.0e-06
 Alpha HF Exchange    Energy =  -6.91629798535963
 Beta HF Exchange     Energy =  -6.91629798535963
 DFT Correlation      Energy =  -2.72716495764833
 DFT Exchange         Energy = -53.99318609911040
 One-Electron (alpha) Energy = -926.78517112240229
 One-Electron (beta)  Energy = -926.78517112240229
 Total Coulomb        Energy = 706.22802950749383
 ---------------------------------------
  Cycle       Energy         DIIS error
 ---------------------------------------
    1    -916.7021168433      3.43e-02  
 Alpha HF Exchange    Energy =  -6.89193611668215
 Beta HF Exchange     Energy =  -6.89193611668215
 DFT Correlation      Energy =  -2.75704217053178
 DFT Exchange         Energy = -54.67681055284113
 One-Electron (alpha) Energy = -931.42864676299166
 One-Electron (beta)  Energy = -931.42864676299121
 Total Coulomb        Energy = 717.57664252082748
    2    -915.3052330404      3.42e-03  
 Alpha HF Exchange    Energy =  -6.82498452247809
 Beta HF Exchange     Energy =  -6.82498452247810
 DFT Correlation      Energy =  -2.72558859439772
 DFT Exchange         Energy = -54.11449465044894
 One-Electron (alpha) Energy = -925.85647140365268
 One-Electron (beta)  Energy = -925.85647140365313
 Total Coulomb        Energy = 705.74119120019077
    3    -915.2686609755      4.03e-03  
 Alpha HF Exchange    Energy =  -6.85811653741884
 Beta HF Exchange     Energy =  -6.85811653741884
 DFT Correlation      Energy =  -2.74213378295660
 DFT Exchange         Energy = -54.39140119514272
 One-Electron (alpha) Energy = -928.87462573531957
 One-Electron (beta)  Energy = -928.87462573531957
 Total Coulomb        Energy = 712.00773165032160
    4    -915.3981449518      4.92e-04  
 Alpha HF Exchange    Energy =  -6.85911489719253
 Beta HF Exchange     Energy =  -6.85911489719253
 DFT Correlation      Energy =  -2.74206394189384
 DFT Exchange         Energy = -54.39811433199338
 One-Electron (alpha) Energy = -928.85630418381288
 One-Electron (beta)  Energy = -928.85630418381311
 Total Coulomb        Energy = 711.97783803046559
    5    -915.4000354840      1.67e-04  
 Alpha HF Exchange    Energy =  -6.85897025601687
 Beta HF Exchange     Energy =  -6.85897025601687
 DFT Correlation      Energy =  -2.74205664645235
 DFT Exchange         Energy = -54.39720007258490
 One-Electron (alpha) Energy = -928.85584972927290
 One-Electron (beta)  Energy = -928.85584972927313
 Total Coulomb        Energy = 711.97551964200579
    6    -915.4002341262      4.16e-05  
 Alpha HF Exchange    Energy =  -6.85880455342082
 Beta HF Exchange     Energy =  -6.85880455342082
 DFT Correlation      Energy =  -2.74199012018088
 DFT Exchange         Energy = -54.39577959733803
 One-Electron (alpha) Energy = -928.84060741681981
 One-Electron (beta)  Energy = -928.84060741681958
 Total Coulomb        Energy = 711.94320414176514
    7    -915.4002465948      1.15e-05  
 Alpha HF Exchange    Energy =  -6.85885578294948
 Beta HF Exchange     Energy =  -6.85885578294948
 DFT Correlation      Energy =  -2.74201305950418
 DFT Exchange         Energy = -54.39619266216006
 One-Electron (alpha) Energy = -928.84610906345006
 One-Electron (beta)  Energy = -928.84610906345017
 Total Coulomb        Energy = 711.95474484535862
    8    -915.4002476477      1.83e-06  
 Alpha HF Exchange    Energy =  -6.85886035932367
 Beta HF Exchange     Energy =  -6.85886035932368
 DFT Correlation      Energy =  -2.74201402526585
 DFT Exchange         Energy = -54.39622536369701
 One-Electron (alpha) Energy = -928.84658373815091
 One-Electron (beta)  Energy = -928.84658373815114
 Total Coulomb        Energy = 711.95573698931935
    9    -915.4002476731      5.87e-07  Convergence criterion met
 ---------------------------------------
 SCF time:   CPU 29.48s  wall 2.00s 
<S^2> =         -0.000000000
 Alpha HF Exchange    Energy =  -6.85886035932367
 Beta HF Exchange     Energy =  -6.85886035932368
 DFT Correlation      Energy =  -2.74201402526585
 DFT Exchange         Energy = -54.39622536369701
 One-Electron (alpha) Energy = -928.84658373815091
 One-Electron (beta)  Energy = -928.84658373815114
 Total Coulomb        Energy = 711.95573698931935
 Nuclear repulsion Energy = 301.19314292144674
 SCF   energy in the final basis set =     -915.4002476731
 Total energy in the final basis set =     -915.4002476731
 
 --------------------------------------------------------------
 
                    Orbital Energies (a.u.)
 --------------------------------------------------------------
 
 Alpha MOs
 -- Occupied --
-88.881 -88.852 -10.234 -10.208 -10.192  -7.943  -7.930  -5.908
 -5.904  -5.898  -5.894  -5.889  -5.883  -0.903  -0.798  -0.712
 -0.639  -0.589  -0.519  -0.460  -0.446  -0.431  -0.405  -0.389
 -0.362  -0.333  -0.305  -0.248  -0.219
 -- Virtual --
  0.019   0.052   0.064   0.078   0.109   0.125   0.134   0.155
  0.173   0.176   0.191   0.218   0.330   0.337   0.361   0.374
  0.376   0.392   0.433   0.450   0.515   0.524   0.557   0.597
  0.616   0.639   0.681   0.695   0.723   0.730   0.753   0.768
  0.778   0.818   0.828   0.851   0.872   0.877   0.904   0.935
  0.949   0.965   1.034   1.108   1.113   1.125   1.187   1.387
  1.404   1.416   1.467   1.582   1.649   1.738   1.778   1.812
  1.854   1.970   2.031   2.051   2.061   2.083   2.089   2.096
  2.119   2.131   2.210   2.244   2.293   2.355   2.416   2.468
  2.519   2.588   2.631   2.672   2.723   2.739   2.751   2.787
  2.834   2.864   2.885   3.181   3.238   3.320   3.433   3.443
  3.477   3.979   4.046   4.279   4.487   4.619
 
 Beta MOs
 -- Occupied --
-88.881 -88.852 -10.234 -10.208 -10.192  -7.943  -7.930  -5.908
 -5.904  -5.898  -5.894  -5.889  -5.883  -0.903  -0.798  -0.712
 -0.639  -0.589  -0.519  -0.460  -0.446  -0.431  -0.405  -0.389
 -0.362  -0.333  -0.305  -0.248  -0.219
 -- Virtual --
  0.019   0.052   0.064   0.078   0.109   0.125   0.134   0.155
  0.173   0.176   0.191   0.218   0.330   0.337   0.361   0.374
  0.376   0.392   0.433   0.450   0.515   0.524   0.557   0.597
  0.616   0.639   0.681   0.695   0.723   0.730   0.753   0.768
  0.778   0.818   0.828   0.851   0.872   0.877   0.904   0.935
  0.949   0.965   1.034   1.108   1.113   1.125   1.187   1.387
  1.404   1.416   1.467   1.582   1.649   1.738   1.778   1.812
  1.854   1.970   2.031   2.051   2.061   2.083   2.089   2.096
  2.119   2.131   2.210   2.244   2.293   2.355   2.416   2.468
  2.519   2.588   2.631   2.672   2.723   2.739   2.751   2.787
  2.834   2.864   2.885   3.181   3.238   3.320   3.433   3.443
  3.477   3.979   4.046   4.279   4.487   4.619
 --------------------------------------------------------------
 
          Ground-State Mulliken Net Atomic Charges

     Atom                 Charge (a.u.)    Spin (a.u.)
  --------------------------------------------------------
      1 S                    -0.048493      -0.000000
      2 S                    -0.016539      -0.000000
      3 C                    -0.228589      -0.000000
      4 C                    -0.262026       0.000000
      5 C                    -0.307907       0.000000
      6 H                     0.145711       0.000000
      7 H                     0.109301       0.000000
      8 H                     0.149539      -0.000000
      9 H                     0.106219      -0.000000
     10 H                     0.109754       0.000000
     11 H                     0.128647      -0.000000
     12 H                     0.057276       0.000000
     13 H                     0.057107      -0.000000
  --------------------------------------------------------
  Sum of atomic charges =    -0.000000
  Sum of spin   charges =    -0.000000

 -----------------------------------------------------------------
                    Cartesian Multipole Moments
 -----------------------------------------------------------------
    Charge (ESU x 10^10)
                 0.0000
    Dipole Moment (Debye)
         X       1.3769      Y       1.4358      Z       0.9995
       Tot       2.2263
    Quadrupole Moments (Debye-Ang)
        XX     -52.1825     XY       2.3937     YY     -47.6293
        XZ      -0.4328     YZ      -2.2067     ZZ     -44.9185
    Octopole Moments (Debye-Ang^2)
       XXX      31.1053    XXY       7.2377    XYY       2.1868
       YYY      38.3729    XXZ      -0.7605    XYZ      -0.3458
       YYZ      -0.2221    XZZ      10.7697    YZZ       6.8045
       ZZZ      -4.4695
    Hexadecapole Moments (Debye-Ang^3)
      XXXX    -666.3437   XXXY      59.6340   XXYY    -171.5047
      XYYY      35.9139   YYYY    -384.2942   XXXZ      -3.8828
      XXYZ      -1.7125   XYYZ       2.8557   YYYZ      -1.2816
      XXZZ    -125.5370   XYZZ       9.8221   YYZZ     -74.6955
      XZZZ      -2.6132   YZZZ       5.6766   ZZZZ     -90.6598
 -----------------------------------------------------------------
 Calculating analytic gradient of the SCF energy
 Gradient of SCF Energy
            1           2           3           4           5           6
    1   0.0035029   0.4079867  -0.0173491  -0.3801273   0.0015742   0.0012738
    2  -0.0019418   0.1582160  -0.0056041  -0.1463246   0.0000947   0.0027595
    3   0.0002544   0.1072905  -0.0018561  -0.1004765   0.0026385   0.0009058
            7           8           9          10          11          12
    1  -0.0103728  -0.0077192   0.0004957  -0.0000349  -0.0000452  -0.0011559
    2  -0.0074481  -0.0038158   0.0002771  -0.0000182   0.0003906   0.0003788
    3  -0.0048196  -0.0033844  -0.0002660  -0.0003385  -0.0003287   0.0003652
           13
    1   0.0019712
    2   0.0030358
    3   0.0000151
 Max gradient component =       4.080E-01
 RMS gradient           =       9.867E-02
 Gradient time:  CPU 12.04 s  wall 1.06 s
 Geometry Optimization Parameters
   NAtoms,    NIC,     NZ,  NCons,   NDum,   NFix, NCnnct, MaxDiis
       13      82       0       1       0       0       0       0

 Cartesian Hessian Update
 Hessian Updated using BFGS Update


** CONSTRAINED OPTIMIZATION IN DELOCALIZED INTERNAL COORDINATES **
   Searching for a Minimum

   Optimization Cycle:   4

                       Coordinates (Angstroms)
     ATOM                X               Y               Z
      1  S         0.7006786212   -1.7403216382    0.1173458678
      2  S        -2.0586980858    0.1917531552   -0.0525753386
      3  C         0.5021789065    0.0457743352   -0.3384546841
      4  C        -0.7806917599    0.6917702080    0.2714415153
      5  C         1.7594090865    0.8425649466    0.0450845745
      6  H         0.3948220198    0.0387667019   -1.4272608751
      7  H        -0.5853841703    0.7556065354    1.3549754772
      8  H        -0.7682465954    1.7322251472   -0.0830167474
      9  H         1.6649386555    1.8858813827   -0.2829978649
     10  H         1.9069033947    0.8471026095    1.1298552296
     11  H         2.6546245088    0.4227897205   -0.4185397727
     12  H         0.8408204911   -1.5196587504    1.4432234447
     13  H        -1.9916550726   -1.0692543536    0.4299191738
   Point Group: c1    Number of degrees of freedom:    33


   Energy is   -915.400247673

              Constraints and their Current Values
                                        Value     Constraint
   Distance(Angs):        2   4             1.410072     1.200000
 Hessian Updated using BFGS Update
**WARNING** Constraint Gradient Reduced for constraint   1

   Using Lagrange Multiplier Algorithm


 33 Hessian modes will be used to form the next step
  Hessian Eigenvalues:
    -0.604897    0.112218    0.113018    0.113021    0.113029    0.185411
     0.191664    0.195766    0.205397    0.209052    0.209889    0.236467
     0.315960    0.361216    0.399755    0.401841    0.401841    0.403086
     0.443866    0.512767    0.538838    0.597429    0.660089    0.661081
     0.724597    0.743388    0.855594    0.857022    0.857155    0.857434
     0.857940    0.858630    1.708385

 Minimum Search - Taking P-RFO Step
 Searching for Lamda that Maximizes Along the Constraint modes Only
 Value Taken    Lamda =   0.12538782


 ********************************************
 ** ERROR IN DETERMINING Lamda IN CONFormD **
 ********************************************


 ** Scaling Hessian by  2.234717 **


 33 Hessian modes will be used to form the next step
  Hessian Eigenvalues:
    -0.379431    0.250448    0.252562    0.252568    0.252586    0.408859
     0.428273    0.436759    0.458894    0.463049    0.468647    0.528248
     0.697573    0.806329    0.889131    0.897995    0.898000    0.899183
     0.991061    1.145772    1.199449    1.335084    1.474237    1.477157
     1.610736    1.661094    1.906417    1.915158    1.915489    1.916083
     1.917241    1.918664    2.893271

 Minimum Search - Taking P-RFO Step
 Searching for Lamda that Maximizes Along the Constraint modes Only
 Value Taken    Lamda =   0.17227240
 Searching for Lamda that Minimizes Along All other modes
 Value Taken    Lamda =  -0.00900878
 Calculated Step too Large.  Step scaled by  0.995869
 Step Taken.  Stepsize is  0.300000

                             Maximum     Tolerance    Cnvgd?
         Gradient            0.300000       0.000300      NO
         Displacement        0.490607       0.001200      NO
         Energy change      0.073098       0.000001      NO


 New Cartesian Coordinates Obtained by Inverse Iteration

 Displacement from previous Coordinates is:  0.268290
 ----------------------------------------------------------------
             Standard Nuclear Orientation (Angstroms)
    I     Atom           X                Y                Z
 ----------------------------------------------------------------
    1      S       0.7066719710    -1.7544894775     0.1169061229
    2      S      -2.0047005395     0.2397494497    -0.0380316616
    3      C       0.5035238632     0.0354111578    -0.3303141132
    4      C      -0.8145069740     0.6603733457     0.2684709359
    5      C       1.7471486486     0.8546532193     0.0466694872
    6      H       0.3914881545     0.0117752590    -1.4190840354
    7      H      -0.5457620219     0.7502322836     1.3432287289
    8      H      -0.7392543712     1.7035551954    -0.0816864161
    9      H       1.6325622702     1.8940316985    -0.2876420024
   10      H       1.8913128391     0.8672090355     1.1319108973
   11      H       2.6492000826     0.4445518449    -0.4104750730
   12      H       0.8677979384    -1.5392106061     1.4431139799
   13      H      -2.0457818611    -1.0428424058     0.4059331495
 ----------------------------------------------------------------
 Nuclear Repulsion Energy =   304.8905276805 hartrees
 There are       29 alpha and       29 beta electrons

                       Distance Matrix (Angstroms)
             S (  1)   S (  2)   C (  3)   C (  4)   C (  5)   H (  6)
   S (  2)  3.369352
   C (  3)  1.856076  2.533451
   C (  4)  2.858062  1.299011  1.576809
   C (  5)  2.809831  3.802848  1.536189  2.578569
   H (  6)  2.361842  2.775067  1.094774  2.173234  2.167185
   H (  7)  3.057137  2.072915  2.100647  1.111487  2.636173  3.009008
   H (  8)  3.753427  1.935455  2.094998  1.102951  2.630458  2.435022
   H (  9)  3.785847  4.003578  2.175091  2.796305  1.097817  2.522561
   H ( 10)  3.050723  4.115992  2.180814  2.847766  1.094847  3.080392
   H ( 11)  2.981162  4.673270  2.185806  3.536215  1.091266  2.510349
   H ( 12)  1.353194  3.689138  2.399412  3.008007  2.907559  3.290077
   H ( 13)  2.857618  1.357879  2.864202  2.106152  4.256276  3.222296
             H (  7)   H (  8)   H (  9)   H ( 10)   H ( 11)   H ( 12)
   H (  8)  1.725296
   H (  9)  2.951798  2.388349
   H ( 10)  2.449015  3.015324  1.771002
   H ( 11)  3.657417  3.629713  1.774720  1.769742
   H ( 12)  2.692523  3.927234  3.920145  2.633493  3.247230
   H ( 13)  2.518670  3.080176  4.757782  4.435770  4.992166  3.132263

 
 Applying Cartesian multipole field
    Component          Value
    ---------          -----
     (2,0,0)        1.00000E-11
     (0,2,0)        2.00000E-11
     (0,0,2)       -3.00000E-10
 Nucleus-field energy     =    -0.0000000006 hartrees
 Requested basis set is 6-31G(d,p)
 There are 46 shells and 123 basis functions
 A cutoff of  1.0D-14 yielded   1039 shell pairs
 There are      7599 function pairs
 Smallest overlap matrix eigenvalue = 4.82E-03
 Guess from superposition of atomic densities
 Warning:  Energy on first SCF cycle will be non-variational
 SAD guess density has 58.000000 electrons

 -----------------------------------------------------------------------
  General SCF calculation program by
  Eric Jon Sundstrom, Paul Horn, Yuezhi Mao, Dmitri Zuev, Alec White,
  David Stuck, Shaama M.S., Shane Yost, Joonho Lee, David Small,
  Daniel Levine, Susi Lehtola, Hugh Burton, Evgeny Epifanovsky
 -----------------------------------------------------------------------
 Exchange:     0.2000 Hartree-Fock + 0.0800 Slater + 0.7200 B88
 Correlation:  0.1900 VWN1RPA + 0.8100 LYP
 Using SG-1 standard quadrature grid
 using 12 threads for integral computing
 -------------------------------------------------------
 OpenMP Integral computing Module                
 Release: version 1.0, May 2013, Q-Chem Inc. Pittsburgh 
 -------------------------------------------------------
[...]
    3      C       0.5308907327     0.0190283613    -0.3481308741
    4      C      -0.8833309344     0.6383744683     0.2741962198
    5      C       1.7422956524     0.8548762357     0.0395503938
    6      H       0.3951114484    -0.0116764598    -1.4361499143
    7      H      -0.5350171126     0.7363842416     1.3599832098
    8      H      -0.7030156768     1.6923653597    -0.0122244107
    9      H       1.6335402174     1.8803434953    -0.3366079569
   10      H       1.8461361092     0.9116832483     1.1296729980
   11      H       2.6687795016     0.4403212465    -0.3649610852
   12      H       0.9427468174    -1.5302085214     1.4281548828
   13      H      -2.1126277955    -1.0250920696     0.3860675067
 ----------------------------------------------------------------
 Nuclear Repulsion Energy =   307.6101305700 hartrees
 There are       29 alpha and       29 beta electrons

                       Distance Matrix (Angstroms)
             S (  1)   S (  2)   C (  3)   C (  4)   C (  5)   H (  6)
   S (  2)  3.356096
   C (  3)  1.839246  2.540075
   C (  4)  2.868045  1.200000  1.664603
   C (  5)  2.811678  3.767796  1.521986  2.644966
   H (  6)  2.353209  2.763864  1.096888  2.232099  2.177960
   H (  7)  3.040260  2.070740  2.137385  1.144492  2.635097  3.040246
   H (  8)  3.719357  1.910319  2.106042  1.106999  2.585269  2.477338
   H (  9)  3.780151  3.965105  2.163438  2.872318  1.097682  2.514446
   H ( 10)  3.073919  4.053630  2.170393  2.873418  1.096530  3.088934
   H ( 11)  2.990965  4.661485  2.179068  3.614587  1.092638  2.553686
   H ( 12)  1.351224  3.736898  2.392687  3.060871  2.873348  3.287870
   H ( 13)  2.910804  1.373945  2.935545  2.071426  4.302882  3.261325
             H (  7)   H (  8)   H (  9)   H ( 10)   H ( 11)   H ( 12)
   H (  8)  1.680797
   H (  9)  2.981561  2.366443
   H ( 10)  2.398679  2.900271  1.770164
   H ( 11)  3.650671  3.614006  1.773750  1.769987
   H ( 12)  2.706636  3.894639  3.901724  2.620694  3.174499
   H ( 13)  2.557375  3.087105  4.795580  4.469436  5.057009  3.267477

 
 Applying Cartesian multipole field
    Component          Value
    ---------          -----
     (2,0,0)        1.00000E-11
     (0,2,0)        2.00000E-11
     (0,0,2)       -3.00000E-10
 Nucleus-field energy     =    -0.0000000007 hartrees
 Requested basis set is 6-31G(d,p)
 There are 46 shells and 123 basis functions
 A cutoff of  1.0D-14 yielded   1039 shell pairs
 There are      7599 function pairs
 Smallest overlap matrix eigenvalue = 4.41E-03
 Guess from superposition of atomic densities
 Warning:  Energy on first SCF cycle will be non-variational
 SAD guess density has 58.000000 electrons

 -----------------------------------------------------------------------
  General SCF calculation program by
  Eric Jon Sundstrom, Paul Horn, Yuezhi Mao, Dmitri Zuev, Alec White,
  David Stuck, Shaama M.S., Shane Yost, Joonho Lee, David Small,
  Daniel Levine, Susi Lehtola, Hugh Burton, Evgeny Epifanovsky
 -----------------------------------------------------------------------
 Exchange:     0.2000 Hartree-Fock + 0.0800 Slater + 0.7200 B88
 Correlation:  0.1900 VWN1RPA + 0.8100 LYP
 Using SG-1 standard quadrature grid
 using 12 threads for integral computing
 -------------------------------------------------------
 OpenMP Integral computing Module                
 Release: version 1.0, May 2013, Q-Chem Inc. Pittsburgh 
 -------------------------------------------------------
 -------------------------------------------------------
 OpenMP BLAS3 based DFT computing Module                
 Release: version 1.0, May 2013, Q-Chem Inc. Pittsburgh 
 -------------------------------------------------------
 A unrestricted SCF calculation will be
 performed using DIIS
 SCF converges when DIIS error is below 1.0e-06
 Alpha HF Exchange    Energy =  -6.94586608466819
 Beta HF Exchange     Energy =  -6.94586608466819
 DFT Correlation      Energy =  -2.73211442096905
 DFT Exchange         Energy = -54.06332245889330
 One-Electron (alpha) Energy = -932.68266394288639
 One-Electron (beta)  Energy = -932.68266394288639
 Total Coulomb        Energy = 711.39747505330138
 ---------------------------------------
  Cycle       Energy         DIIS error
 ---------------------------------------
    1    -917.0448913124      4.03e-02  
 Alpha HF Exchange    Energy =  -6.91043135913872
 Beta HF Exchange     Energy =  -6.91043135913872
 DFT Correlation      Energy =  -2.76607985907047
 DFT Exchange         Energy = -54.84593138299476
 One-Electron (alpha) Energy = -938.16354689625678
 One-Electron (beta)  Energy = -938.16354689625655
 Total Coulomb        Energy = 725.20462003051216
    2    -914.9452171531      4.42e-03  
 Alpha HF Exchange    Energy =  -6.82627682975880
 Beta HF Exchange     Energy =  -6.82627682975879
 DFT Correlation      Energy =  -2.72708246769448
 DFT Exchange         Energy = -54.13848063955866
 One-Electron (alpha) Energy = -930.69303676012623
 One-Electron (beta)  Energy = -930.69303676012601
 Total Coulomb        Energy = 709.43446931351946
    3    -914.8595904042      5.42e-03  
 Alpha HF Exchange    Energy =  -6.86997661300524
 Beta HF Exchange     Energy =  -6.86997661300524
 DFT Correlation      Energy =  -2.74843670183302
 DFT Exchange         Energy = -54.50412808195364
 One-Electron (alpha) Energy = -934.96831890649889
 One-Electron (beta)  Energy = -934.96831890649867
 Total Coulomb        Energy = 718.22951660761839
    4    -915.0895086459      5.87e-04  
 Alpha HF Exchange    Energy =  -6.87073588870182
 Beta HF Exchange     Energy =  -6.87073588870182
 DFT Correlation      Energy =  -2.74825573624581
 DFT Exchange         Energy = -54.50873534850295
 One-Electron (alpha) Energy = -934.89531619242803
 One-Electron (beta)  Energy = -934.89531619242791
 Total Coulomb        Energy = 718.08691116685497
    5    -915.0920535109      2.50e-04  
 Alpha HF Exchange    Energy =  -6.87033344526124
 Beta HF Exchange     Energy =  -6.87033344526125
 DFT Correlation      Energy =  -2.74818891283898
 DFT Exchange         Energy = -54.50593225753049
 One-Electron (alpha) Energy = -934.87892466334483
 One-Electron (beta)  Energy = -934.87892466334529
 Total Coulomb        Energy = 718.05001210775470
    6    -915.0924947106      7.32e-05  
 Alpha HF Exchange    Energy =  -6.87011958110854
 Beta HF Exchange     Energy =  -6.87011958110854
 DFT Correlation      Energy =  -2.74807490477124
 DFT Exchange         Energy = -54.50402753018803
 One-Electron (alpha) Energy = -934.86245498021299
 One-Electron (beta)  Energy = -934.86245498021344
 Total Coulomb        Energy = 718.01458658999729
    7    -915.0925343983      2.01e-05  
 Alpha HF Exchange    Energy =  -6.87018669824518
 Beta HF Exchange     Energy =  -6.87018669824517
 DFT Correlation      Energy =  -2.74811256898648
 DFT Exchange         Energy = -54.50458283799422
 One-Electron (alpha) Energy = -934.86905336799771
 One-Electron (beta)  Energy = -934.86905336799748
 Total Coulomb        Energy = 718.02850738203233
    8    -915.0925375882      2.63e-06  
 Alpha HF Exchange    Energy =  -6.87019799999417
 Beta HF Exchange     Energy =  -6.87019799999419
 DFT Correlation      Energy =  -2.74811589196047
 DFT Exchange         Energy = -54.50466903945659
 One-Electron (alpha) Energy = -934.87036154374618
 One-Electron (beta)  Energy = -934.87036154374744
 Total Coulomb        Energy = 718.03123580690271
    9    -915.0925376427      9.33e-07  Convergence criterion met
 ---------------------------------------
 SCF time:   CPU 29.45s  wall 2.00s 
<S^2> =         -0.000000000
 Alpha HF Exchange    Energy =  -6.87019799999417
 Beta HF Exchange     Energy =  -6.87019799999419
 DFT Correlation      Energy =  -2.74811589196047
 DFT Exchange         Energy = -54.50466903945659
 One-Electron (alpha) Energy = -934.87036154374618
 One-Electron (beta)  Energy = -934.87036154374744
 Total Coulomb        Energy = 718.03123580690271
 Nuclear repulsion Energy = 307.61013056926686
 SCF   energy in the final basis set =     -915.0925376427
 Total energy in the final basis set =     -915.0925376427
 
 --------------------------------------------------------------
 
                    Orbital Energies (a.u.)
 --------------------------------------------------------------
 
 Alpha MOs
 -- Occupied --
-88.877 -88.840 -10.226 -10.209 -10.192  -7.940  -7.939  -5.905
 -5.904  -5.900  -5.895  -5.894  -5.890  -0.952  -0.800  -0.710
 -0.630  -0.591  -0.532  -0.467  -0.463  -0.434  -0.412  -0.395
 -0.361  -0.332  -0.283  -0.249  -0.199
 -- Virtual --
  0.026   0.037   0.065   0.072   0.091   0.120   0.133   0.147
  0.170   0.177   0.192   0.221   0.323   0.336   0.361   0.379
  0.383   0.400   0.449   0.467   0.522   0.543   0.555   0.605
  0.628   0.665   0.692   0.704   0.715   0.730   0.738   0.764
  0.774   0.811   0.829   0.857   0.867   0.880   0.916   0.948
  0.956   0.979   1.062   1.072   1.115   1.140   1.186   1.406
  1.416   1.463   1.588   1.627   1.746   1.781   1.798   1.854
  1.876   1.973   2.034   2.064   2.067   2.086   2.090   2.095
  2.117   2.139   2.216   2.250   2.311   2.364   2.443   2.497
  2.540   2.574   2.632   2.679   2.720   2.744   2.754   2.800
  2.858   2.865   2.928   3.163   3.218   3.335   3.431   3.442
  3.475   3.982   4.050   4.285   4.522   4.652
 
 Beta MOs
 -- Occupied --
-88.877 -88.840 -10.226 -10.209 -10.192  -7.940  -7.939  -5.905
 -5.904  -5.900  -5.895  -5.894  -5.890  -0.952  -0.800  -0.710
 -0.630  -0.591  -0.532  -0.467  -0.463  -0.434  -0.412  -0.395
 -0.361  -0.332  -0.283  -0.249  -0.199
 -- Virtual --
  0.026   0.037   0.065   0.072   0.091   0.120   0.133   0.147
  0.170   0.177   0.192   0.221   0.323   0.336   0.361   0.379
  0.383   0.400   0.449   0.467   0.522   0.543   0.555   0.605
  0.628   0.665   0.692   0.704   0.715   0.730   0.738   0.764
  0.774   0.811   0.829   0.857   0.867   0.880   0.916   0.948
  0.956   0.979   1.062   1.072   1.115   1.140   1.186   1.406
  1.416   1.463   1.588   1.627   1.746   1.781   1.798   1.854
  1.876   1.973   2.034   2.064   2.067   2.086   2.090   2.095
  2.117   2.139   2.216   2.250   2.311   2.364   2.443   2.497
  2.540   2.574   2.632   2.679   2.720   2.744   2.754   2.800
  2.858   2.865   2.928   3.163   3.218   3.335   3.431   3.442
  3.475   3.982   4.050   4.285   4.522   4.652
 --------------------------------------------------------------
 
          Ground-State Mulliken Net Atomic Charges

     Atom                 Charge (a.u.)    Spin (a.u.)
  --------------------------------------------------------
      1 S                    -0.055329      -0.000000
      2 S                     0.069665      -0.000000
      3 C                    -0.252563      -0.000000
      4 C                    -0.253691       0.000000
      5 C                    -0.312740      -0.000000
      6 H                     0.136769       0.000000
      7 H                     0.065404       0.000000
      8 H                     0.161156       0.000000
      9 H                     0.105934      -0.000000
     10 H                     0.111091       0.000000
     11 H                     0.131131       0.000000
     12 H                     0.056143       0.000000
     13 H                     0.037030       0.000000
  --------------------------------------------------------
  Sum of atomic charges =     0.000000
  Sum of spin   charges =    -0.000000

 -----------------------------------------------------------------
                    Cartesian Multipole Moments
 -----------------------------------------------------------------
    Charge (ESU x 10^10)
                 0.0000
    Dipole Moment (Debye)
         X       1.0702      Y       1.7004      Z       0.8784
       Tot       2.1928
    Quadrupole Moments (Debye-Ang)
        XX     -50.9318     XY       2.3104     YY     -47.6249
        XZ      -0.2347     YZ      -1.9389     ZZ     -45.0803
    Octopole Moments (Debye-Ang^2)
       XXX      26.7751    XXY       7.0280    XYY       1.5596
       YYY      39.0206    XXZ       0.2531    XYZ      -1.3801
       YYZ      -0.2528    XZZ       9.2930    YZZ       6.3437
       ZZZ      -5.3014
    Hexadecapole Moments (Debye-Ang^3)
      XXXX    -636.2626   XXXY      63.8137   XXYY    -170.1289
      XYYY      40.5141   YYYY    -389.4010   XXXZ      -4.6870
      XXYZ      -0.9005   XYYZ       3.7635   YYYZ      -0.9537
      XXZZ    -120.2087   XYZZ      11.5043   YYZZ     -75.8072
      XZZZ      -1.1566   YZZZ       5.4520   ZZZZ     -92.9507
 -----------------------------------------------------------------
 Calculating analytic gradient of the SCF energy
 Gradient of SCF Energy
            1           2           3           4           5           6
    1  -0.0001348   1.1387340   0.0000849  -1.1387364  -0.0001048   0.0000258
    2   0.0000177   0.3815545   0.0001260  -0.3815970  -0.0000408  -0.0000384
    3   0.0000191   0.3363368   0.0000133  -0.3364616   0.0000054  -0.0000042
            7           8           9          10          11          12
    1   0.0000446   0.0000520   0.0000057   0.0000158   0.0000055   0.0000525
    2   0.0000558   0.0000208  -0.0000221  -0.0000384  -0.0000296  -0.0000614
    3   0.0000368   0.0001010   0.0000159  -0.0000025  -0.0000518  -0.0000350
           13
    1  -0.0000448
    2   0.0000528
    3   0.0000266
 Max gradient component =       1.139E+00
 RMS gradient           =       2.824E-01
 Gradient time:  CPU 12.07 s  wall 1.07 s
 Geometry Optimization Parameters
   NAtoms,    NIC,     NZ,  NCons,   NDum,   NFix, NCnnct, MaxDiis
       13      82       0       1       0       0       0       0

 Cartesian Hessian Update
 Hessian Updated using BFGS Update
**WARNING** Hereditary positive definiteness endangered


** CONSTRAINED OPTIMIZATION IN DELOCALIZED INTERNAL COORDINATES **
   Searching for a Minimum

   Optimization Cycle:  29

                       Coordinates (Angstroms)
     ATOM                X               Y               Z
      1  S         0.6931292092   -1.7525141449    0.1189269828
      2  S        -1.9789381689    0.2711145391   -0.0494779524
      3  C         0.5308907327    0.0190283613   -0.3481308741
      4  C        -0.8833309344    0.6383744683    0.2741962198
      5  C         1.7422956524    0.8548762357    0.0395503938
      6  H         0.3951114484   -0.0116764598   -1.4361499143
      7  H        -0.5350171126    0.7363842416    1.3599832098
      8  H        -0.7030156768    1.6923653597   -0.0122244107
      9  H         1.6335402174    1.8803434953   -0.3366079569
     10  H         1.8461361092    0.9116832483    1.1296729980
     11  H         2.6687795016    0.4403212465   -0.3649610852
     12  H         0.9427468174   -1.5302085214    1.4281548828
     13  H        -2.1126277955   -1.0250920696    0.3860675067
   Point Group: c1    Number of degrees of freedom:    33


   Energy is   -915.092537643

              Constraints and their Current Values
                                        Value     Constraint
   Distance(Angs):        2   4             1.200000     1.200000
 Hessian Updated using BFGS Update

 32 Hessian modes will be used to form the next step
  Hessian Eigenvalues:
     0.003129    0.037266    0.061239    0.112917    0.182105    0.240931
     0.268549    0.311618    0.441701    0.455809    0.459458    0.471789
     0.500387    0.631828    0.745954    0.864096    0.893960    0.900235
     0.903907    0.972728    1.068175    1.126721    1.269675    1.346022
     1.470201    1.474003    1.637267    1.851991    1.898829    1.915090
     1.916263    1.916807

 Minimum Search - Taking Simple RFO Step
 Searching for Lamda that Minimizes Along All modes
 Value Taken    Lamda =   0.00000000
 Step Taken.  Stepsize is  0.003035

                             Maximum     Tolerance    Cnvgd?
         Gradient           0.000129      0.000300     YES
         Displacement       0.001722      0.001200      NO
         Energy change     -0.000001      0.000001     YES


                       Distance Matrix (Angstroms)
             S (  1)   S (  2)   C (  3)   C (  4)   C (  5)   H (  6)
   S (  2)  3.356096
   C (  3)  1.839246  2.540075
   C (  4)  2.868045  1.200000  1.664603
   C (  5)  2.811678  3.767796  1.521986  2.644966
   H (  6)  2.353209  2.763864  1.096888  2.232099  2.177960
   H (  7)  3.040260  2.070740  2.137385  1.144492  2.635097  3.040246
   H (  8)  3.719357  1.910319  2.106042  1.106999  2.585269  2.477338
   H (  9)  3.780151  3.965105  2.163438  2.872318  1.097682  2.514446
   H ( 10)  3.073919  4.053630  2.170393  2.873418  1.096530  3.088934
   H ( 11)  2.990965  4.661485  2.179068  3.614587  1.092638  2.553686
   H ( 12)  1.351224  3.736898  2.392687  3.060871  2.873348  3.287870
   H ( 13)  2.910804  1.373945  2.935545  2.071426  4.302882  3.261325
             H (  7)   H (  8)   H (  9)   H ( 10)   H ( 11)   H ( 12)
   H (  8)  1.680797
   H (  9)  2.981561  2.366443
   H ( 10)  2.398679  2.900271  1.770164
   H ( 11)  3.650671  3.614006  1.773750  1.769987
   H ( 12)  2.706636  3.894639  3.901724  2.620694  3.174499
   H ( 13)  2.557375  3.087105  4.795580  4.469436  5.057009  3.267477

 
 Final energy is   -915.092537642729     


 ******************************
 **  OPTIMIZATION CONVERGED  **
 ******************************

                       Coordinates (Angstroms)
     ATOM                X               Y               Z
      1  S         0.6931292092   -1.7525141449    0.1189269828
      2  S        -1.9789381689    0.2711145391   -0.0494779524
      3  C         0.5308907327    0.0190283613   -0.3481308741
      4  C        -0.8833309344    0.6383744683    0.2741962198
      5  C         1.7422956524    0.8548762357    0.0395503938
      6  H         0.3951114484   -0.0116764598   -1.4361499143
      7  H        -0.5350171126    0.7363842416    1.3599832098
      8  H        -0.7030156768    1.6923653597   -0.0122244107
      9  H         1.6335402174    1.8803434953   -0.3366079569
     10  H         1.8461361092    0.9116832483    1.1296729980
     11  H         2.6687795016    0.4403212465   -0.3649610852
     12  H         0.9427468174   -1.5302085214    1.4281548828
     13  H        -2.1126277955   -1.0250920696    0.3860675067

Z-matrix Print:
$molecule
0 1
S 
C  1 1.200000
H  2 1.106999 1 111.735523
H  2 1.144492 1 124.053422 3 114.710602 0
H  1 1.373945 2 106.981764 3 -178.184417 0
C  2 1.664603 1 124.122503 3 -115.155197 0
H  6 1.096888 2 106.026666 1 46.865602 0
C  6 1.521986 2 112.126521 1 168.769617 0
H  8 1.092638 6 111.853580 2 179.575593 0
H  8 1.096530 6 110.919629 2 59.052186 0
H  8 1.097682 6 110.298097 2 -60.007761 0
S  6 1.839246 2 109.777947 1 -64.483754 0
H  12 1.351224 6 95.962475 2 -71.197429 0
$end

PES scan, value:    1.2000 energy: -915.0925376427
------- Summary of potential scan: ------ 
    1.2000      -915.0925376427
----------------------------------------- 
Archival summary:
1\1\hpc0250\JobtypUnspecified\ProcedureUnspecified\6-31G**\238\knomura\WedMar1323:31:002019WedMar1323:31:002019\0\\#,JobtypUnspecified,ProcedureUnspecified,6-31G**,\\0,1\S\C,1,1.2\H,2,1.107,1,111.736\H,2,1.14449,1,124.053,3,114.711,0\H,1,1.37394,2,106.982,3,-178.184,0\C,2,1.6646,1,124.123,3,-115.155,0\H,6,1.09689,2,106.027,1,46.8656,0\C,6,1.52199,2,112.127,1,168.77,0\H,8,1.09264,6,111.854,2,179.576,0\H,8,1.09653,6,110.92,2,59.0522,0\H,8,1.09768,6,110.298,2,-60.0078,0\S,6,1.83925,2,109.778,1,-64.4838,0\H,12,1.35122,6,95.9625,2,-71.1974,0\\\@

 Total job time:  116.94s(wall), 1349.21s(cpu) 
 Wed Mar 13 23:31:00 2019

        *************************************************************
        *                                                           *
        *  Thank you very much for using Q-Chem.  Have a nice day.  *
        *                                                           *
        *************************************************************


