
Running Job 1 of 1 thiol/03/C-S.xyz.data/inputs/bond_singlet_1.7.in
qchem thiol/03/C-S.xyz.data/inputs/bond_singlet_1.7.in_26423.0 /staging/scratch/2868767/qchem26423/ 1
/usr/usc/qchem/5.1.1/exe/qcprog.exe_s thiol/03/C-S.xyz.data/inputs/bond_singlet_1.7.in_26423.0 /staging/scratch/2868767/qchem26423/
Check license passed

                  Welcome to Q-Chem
     A Quantum Leap Into The Future Of Chemistry


 Q-Chem 5.1, Q-Chem, Inc., Pleasanton, CA (2018)

 Yihan Shao,  Zhengting Gan,  E. Epifanovsky,  A. T. B. Gilbert,  M. Wormit,  
 J. Kussmann,  A. W. Lange,  A. Behn,  Jia Deng,  Xintian Feng,  D. Ghosh,  
 M. Goldey,  P. R. Horn,  L. D. Jacobson,  I. Kaliman,  T. Kus,  A. Landau,  
 Jie Liu,  E. I. Proynov,  R. M. Richard,  R. P. Steele,  E. J. Sundstrom,  
 H. L. Woodcock III,  P. M. Zimmerman,  D. Zuev,  B. Albrecht,  E. Alguire,  
 S. A. Baeppler,  D. Barton,  Z. Benda,  Y. A. Bernard,  E. J. Berquist,  
 K. B. Bravaya,  H. Burton,  D. Casanova,  Chun-Min Chang,  Yunqing Chen,  
 A. Chien,  K. D. Closser,  M. P. Coons,  S. Coriani,  S. Dasgupta,  
 A. L. Dempwolff,  M. Diedenhofen,  Hainam Do,  R. G. Edgar,  Po-Tung Fang,  
 S. Faraji,  S. Fatehi,  Qingguo Feng,  K. D. Fenk,  J. Fosso-Tande,  
 Qinghui Ge,  A. Ghysels,  G. Gidofalvi,  J. Gomes,  J. Gonthier,  A. Gunina,  
 D. Hait,  M. W. D. Hanson-Heine,  P. H. P. Harbach,  A. W. Hauser,  
 J. E. Herr,  E. G. Hohenstein,  Z. C. Holden,  Kerwin Hui,  B. C. Huynh,  
 T.-C. Jagau,  Hyunjun Ji,  B. Kaduk,  K. Khistyaev,  Jaehoon Kim,  
 P. Klunzinger,  K. Koh,  D. Kosenkov,  L. Koulias,  T. Kowalczyk,  
 C. M. Krauter,  A. Kunitsa,  Ka Un Lao,  A. Laurent,  K. V. Lawler,  
 Joonho Lee,  D. Lefrancois,  S. Lehtola,  D. S. Levine,  Yi-Pei Li,  
 You-Sheng Lin,  Fenglai Liu,  E. Livshits,  A. Luenser,  P. Manohar,  
 E. Mansoor,  S. F. Manzer,  Shan-Ping Mao,  Yuezhi Mao,  N. Mardirossian,  
 A. V. Marenich,  T. Markovich,  L. A. Martinez-Martinez,  S. A. Maurer,  
 N. J. Mayhall,  S. C. McKenzie,  J.-M. Mewes,  A. F. Morrison,  
 J. W. Mullinax,  K. Nanda,  T. S. Nguyen-Beck,  R. Olivares-Amaya,  
 J. A. Parkhill,  T. M. Perrine,  F. Plasser,  P. Pokhilko,  S. Prager,  
 A. Prociuk,  E. Ramos,  D. R. Rehn,  F. Rob,  M. Schneider,  N. Sergueev,  
 S. M. Sharada,  S. Sharma,  D. W. Small,  T. Stauch,  T. Stein,  
 Yu-Chuan Su,  A. J. W. Thom,  A. Tkatchenko,  T. Tsuchimochi,  N. M. Tubman,  
 L. Vogt,  M. L. Vidal,  O. Vydrov,  M. A. Watson,  J. Wenzel,  
 M. de Wergifosse,  T. A. Wesolowski,  A. White,  J. Witte,  A. Yamada,  
 Jun Yang,  K. Yao,  S. Yeganeh,  S. R. Yost,  Zhi-Qiang You,  A. Zech,  
 Igor Ying Zhang,  Xing Zhang,  Yan Zhao,  Ying Zhu,  B. R. Brooks,  
 G. K. L. Chan,  C. J. Cramer,  M. S. Gordon,  W. J. Hehre,  A. Klamt,  
 M. W. Schmidt,  C. D. Sherrill,  D. G. Truhlar,  A. Aspuru-Guzik,  R. Baer,  
 A. T. Bell,  N. A. Besley,  Jeng-Da Chai,  A. E. DePrince, III,  
 R. A. DiStasio Jr.,  A. Dreuw,  B. D. Dunietz,  T. R. Furlani,  
 Chao-Ping Hsu,  Yousung Jung,  Jing Kong,  D. S. Lambrecht,  WanZhen Liang,  
 C. Ochsenfeld,  V. A. Rassolov,  L. V. Slipchenko,  J. E. Subotnik,  
 T. Van Voorhis,  J. M. Herbert,  A. I. Krylov,  P. M. W. Gill,  M. Head-Gordon

 Contributors to earlier versions of Q-Chem not listed above: 
 R. D. Adamson,  B. Austin,  J. Baker,  G. J. O. Beran,  K. Brandhorst,  
 S. T. Brown,  E. F. C. Byrd,  A. K. Chakraborty,  C.-L. Cheng,  
 Siu Hung Chien,  D. M. Chipman,  D. L. Crittenden,  H. Dachsel,  
 R. J. Doerksen,  A. D. Dutoi,  L. Fusti-Molnar,  W. A. Goddard III,  
 A. Golubeva-Zadorozhnaya,  S. R. Gwaltney,  G. Hawkins,  A. Heyden,  
 S. Hirata,  G. Kedziora,  F. J. Keil,  C. Kelley,  Jihan Kim,  R. A. King,  
 R. Z. Khaliullin,  P. P. Korambath,  W. Kurlancheek,  A. M. Lee,  M. S. Lee,  
 S. V. Levchenko,  Ching Yeh Lin,  D. Liotard,  R. C. Lochan,  I. Lotan,  
 P. E. Maslen,  N. Nair,  D. P. O'Neill,  D. Neuhauser,  E. Neuscamman,  
 C. M. Oana,  R. Olson,  B. Peters,  R. Peverati,  P. A. Pieniazek,  
 Y. M. Rhee,  J. Ritchie,  M. A. Rohrdanz,  E. Rosta,  N. J. Russ,  
 H. F. Schaefer III,  N. E. Schultz,  N. Shenvi,  A. C. Simmonett,  A. Sodt,  
 D. Stuck,  K. S. Thanthiriwatte,  V. Vanovschi,  Tao Wang,  A. Warshel,  
 C. F. Williams,  Q. Wu,  X. Xu,  W. Zhang

 Please cite Q-Chem as follows:
 Y. Shao et al., Mol. Phys. 113, 184-215 (2015)
 DOI: 10.1080/00268976.2014.952696

 Q-Chem 5.1.1 for Intel X86 EM64T Linux

 Parts of Q-Chem use Armadillo 8.300.2 (Tropical Shenanigans).
 http://arma.sourceforge.net/

 Q-Chem begins on Wed Mar 13 23:23:05 2019  

Host: 
0

     Scratch files written to /staging/scratch/2868767/qchem26423//
 Aug318 |scratch|qcdevops|jenkins|workspace|build_RNUM 6013   
Processing $rem in /usr/usc/qchem/5.1.1/config/preferences.
 MEM_TOTAL  2000 
Input Ideriv = 2
Curr. Ideriv = -1
Max.  Ideriv = 2

Checking the input file for inconsistencies... 	...done.

--------------------------------------------------------------
User input:
--------------------------------------------------------------

$comment
potential surface scanner
$end

$rem
JOBTYPE  PES_SCAN
UNRESTRICTED TRUE
SYM_IGNORE  TRUE
GEOM_OPT_MAX_CYCLES 400
SCF_MAX_CYCLES 400
METHOD   B3LYP
BASIS   6-31G**
PDB_PRINT 2
SCF_CONVERGENCE 6
THRESH 14
SCF_PRINT 1
$end
$molecule
0 1
S 0.653000 -1.655100 0.136100
S -2.273700 -0.042700 -0.103500
C 0.513800 0.101500 -0.361300
C -0.697000 0.778900 0.292500
C 1.803900 0.817400 0.036300
H 0.414100 0.130900 -1.452400
H -0.592400 0.804400 1.383200
H -0.770600 1.816900 -0.049700
H 1.768400 1.866200 -0.278900
H 1.962400 0.805000 1.120700
H 2.677400 0.363600 -0.445400
H 0.755100 -1.437500 1.455700
H -1.974700 -1.224500 0.455700
$end
$scan
stre 2 4 1.700000 1.701000 0.100000
$end
--------------------------------------------------------------
 ----------------------------------------------------------------
             Standard Nuclear Orientation (Angstroms)
    I     Atom           X                Y                Z
 ----------------------------------------------------------------
    1      S       0.6530000000    -1.6551000000     0.1361000000
    2      S      -2.2737000000    -0.0427000000    -0.1035000000
    3      C       0.5138000000     0.1015000000    -0.3613000000
    4      C      -0.6970000000     0.7789000000     0.2925000000
    5      C       1.8039000000     0.8174000000     0.0363000000
    6      H       0.4141000000     0.1309000000    -1.4524000000
    7      H      -0.5924000000     0.8044000000     1.3832000000
    8      H      -0.7706000000     1.8169000000    -0.0497000000
    9      H       1.7684000000     1.8662000000    -0.2789000000
   10      H       1.9624000000     0.8050000000     1.1207000000
   11      H       2.6774000000     0.3636000000    -0.4454000000
   12      H       0.7551000000    -1.4375000000     1.4557000000
   13      H      -1.9747000000    -1.2245000000     0.4557000000
 ----------------------------------------------------------------
 Nuclear Repulsion Energy =   290.8061723522 hartrees
 There are       29 alpha and       29 beta electrons
 Requested basis set is 6-31G(d,p)
 There are 46 shells and 123 basis functions

 Total QAlloc Memory Limit   2000 MB
 Mega-Array Size       188 MB
 MEM_STATIC part       192 MB
A total of 1 constraints
  
            1
    1   1.0100000
    2   2.0100000
    3   4.0100000
    4   1.7000000
    5   1.7010000
    6   0.1000000
    7   0.0000000
    8   0.0000000
    9   0.0000000
   10   0.0000000

                       Distance Matrix (Angstroms)
             S (  1)   S (  2)   C (  3)   C (  4)   C (  5)   H (  6)
   S (  2)  3.350047
   C (  3)  1.830963  2.803107
   C (  4)  2.787708  1.821490  1.533741
   C (  5)  2.729063  4.169669  1.528056  2.514283
   H (  6)  2.402124  3.012298  1.096040  2.167746  2.149198
   H (  7)  3.025792  2.398880  2.181978  1.096001  2.748920  3.083386
   H (  8)  3.757119  2.391718  2.165496  1.095428  2.763050  2.492725
   H (  9)  3.716974  4.473616  2.166790  2.754436  1.095716  2.494493
   H ( 10)  2.955682  4.490190  2.188533  2.785499  1.095992  3.077741
   H ( 11)  2.917445  4.979495  2.181040  3.479015  1.095888  2.488117
   H ( 12)  1.341312  3.681060  2.393373  2.893796  2.863434  3.321627
   H ( 13)  2.681859  1.341177  2.935711  2.381756  4.315446  3.344297
             H (  7)   H (  8)   H (  9)   H ( 10)   H ( 11)   H ( 12)
   H (  8)  1.763552
   H (  9)  3.076259  2.549801
   H ( 10)  2.568250  3.140552  1.767105
   H ( 11)  3.772224  3.762627  1.764032  1.777281
   H ( 12)  2.616702  3.896808  3.866529  2.568775  3.248597
   H ( 13)  2.624394  3.309894  4.909466  4.479046  4.997607  2.914992

 
 A cutoff of  1.0D-14 yielded   1033 shell pairs
 There are      7542 function pairs
 
 -------------------------------------------------------
 OpenMP Integral Computing Module                       
 Release: version 1.0, May 2013, Q-Chem Inc. Pittsburgh 
 -------------------------------------------------------
 Integral Job Info:
 Integral job number is                      11
 Integral operator is                         1
 short-range coefficients                     0
 long-range coefficients              100000000
 Omega coefficients                           0
 if combine SR and LR in K                    0
 Integral screening is                        0
 Integral computing path is                   2
 max size of driver memory is            800000
 size of driver memory is                593474
 size of scratch memory is             15267112
 max col of scratch BK array               1296
 max len of scratch array in speh3          155
 max len of scratch index in speh4           18
 max int batch size is                      520
 min int batch size is                       52
 fixed nKL is                                52
 max L of basis functions is                  2
 order of int derivative is                   0
 number of shells is                         46
 number of basis is                         123
 number of cartesian basis is               123
 number of contracted shell pairs          1033
 number of primitive shell pairs           3974
 maxK2 (contraction) of shell pair           36
 max number of K2 of shell pair               1
 max number of CS2 of shell pair             80
 max number of PS2 of shell pair            354
 mem total for path MDJ                  519084
 -------------------------------------------------------
 Smallest overlap matrix eigenvalue = 5.32E-03

 Scale SEOQF with 1.000000e-01/1.000000e-01/1.000000e+00

 Standard Electronic Orientation quadrupole field applied
 Nucleus-field energy     =    -0.0000000011 hartrees
 Guess from superposition of atomic densities
 Warning:  Energy on first SCF cycle will be non-variational
 SAD guess density has 58.000000 electrons

 -----------------------------------------------------------------------
  General SCF calculation program by
  Eric Jon Sundstrom, Paul Horn, Yuezhi Mao, Dmitri Zuev, Alec White,
  David Stuck, Shaama M.S., Shane Yost, Joonho Lee, David Small,
  Daniel Levine, Susi Lehtola, Hugh Burton, Evgeny Epifanovsky
 -----------------------------------------------------------------------
 Exchange:     0.2000 Hartree-Fock + 0.0800 Slater + 0.7200 B88
 Correlation:  0.1900 VWN1RPA + 0.8100 LYP
 Using SG-1 standard quadrature grid
 using 12 threads for integral computing
 -------------------------------------------------------
 OpenMP Integral computing Module                
 Release: version 1.0, May 2013, Q-Chem Inc. Pittsburgh 
 -------------------------------------------------------
 -------------------------------------------------------
 OpenMP BLAS3 based DFT computing Module                
 Release: version 1.0, May 2013, Q-Chem Inc. Pittsburgh 
 -------------------------------------------------------
 A unrestricted SCF calculation will be
 performed using DIIS
 SCF converges when DIIS error is below 1.0e-06
 Alpha HF Exchange    Energy =  -6.86860418470643
 Beta HF Exchange     Energy =  -6.86860418470643
 DFT Correlation      Energy =  -2.71728058875326
 DFT Exchange         Energy = -53.89352891367010
 One-Electron (alpha) Energy = -916.70586215165179
 One-Electron (beta)  Energy = -916.70586215165179
 Total Coulomb        Energy = 696.76699239042875
 ---------------------------------------
  Cycle       Energy         DIIS error
 ---------------------------------------
    1    -916.1865774336      2.85e-02  
 Alpha HF Exchange    Energy =  -6.86971263644539
 Beta HF Exchange     Energy =  -6.86971263644539
 DFT Correlation      Energy =  -2.74409399772525
 DFT Exchange         Energy = -54.50147737483252
 One-Electron (alpha) Energy = -920.72960993610070
 One-Electron (beta)  Energy = -920.72960993610104
 Total Coulomb        Energy = 706.18405706375609
    2    -915.4539871028      2.83e-03  
 Alpha HF Exchange    Energy =  -6.81529932414627
 Beta HF Exchange     Energy =  -6.81529932414627
 DFT Correlation      Energy =  -2.71846496072072
 DFT Exchange         Energy = -54.04165878911405
 One-Electron (alpha) Energy = -916.56372188784849
 One-Electron (beta)  Energy = -916.56372188784803
 Total Coulomb        Energy = 697.27720351538869
    3    -915.4347903073      3.25e-03  
 Alpha HF Exchange    Energy =  -6.84069511450833
 Beta HF Exchange     Energy =  -6.84069511450833
 DFT Correlation      Energy =  -2.73152250796606
 DFT Exchange         Energy = -54.25571982027957
 One-Electron (alpha) Energy = -918.69056560103184
 One-Electron (beta)  Energy = -918.69056560103195
 Total Coulomb        Energy = 701.72362510795381
    4    -915.5199663003      4.83e-04  
 Alpha HF Exchange    Energy =  -6.84200958650548
 Beta HF Exchange     Energy =  -6.84200958650548
 DFT Correlation      Energy =  -2.73151262195696
 DFT Exchange         Energy = -54.26493451546445
 One-Electron (alpha) Energy = -918.71756739542866
 One-Electron (beta)  Energy = -918.71756739542832
 Total Coulomb        Energy = 701.78756719936246
    5    -915.5218615508      1.38e-04  
 Alpha HF Exchange    Energy =  -6.84189437479299
 Beta HF Exchange     Energy =  -6.84189437479299
 DFT Correlation      Energy =  -2.73151319638994
 DFT Exchange         Energy = -54.26421812721281
 One-Electron (alpha) Energy = -918.71807144472336
 One-Electron (beta)  Energy = -918.71807144472302
 Total Coulomb        Energy = 701.78749265404872
    6    -915.5219979575      3.74e-05  
 Alpha HF Exchange    Energy =  -6.84173127652597
 Beta HF Exchange     Energy =  -6.84173127652598
 DFT Correlation      Energy =  -2.73145508456732
 DFT Exchange         Energy = -54.26284056248265
 One-Electron (alpha) Energy = -918.70135627841466
 One-Electron (beta)  Energy = -918.70135627841478
 Total Coulomb        Energy = 701.75229023259624
    7    -915.5220081732      7.61e-06  
 Alpha HF Exchange    Energy =  -6.84178894557164
 Beta HF Exchange     Energy =  -6.84178894557164
 DFT Correlation      Energy =  -2.73147746417039
 DFT Exchange         Energy = -54.26329699897541
 One-Electron (alpha) Energy = -918.70806105302984
 One-Electron (beta)  Energy = -918.70806105302995
 Total Coulomb        Energy = 701.76629345009951
    8    -915.5220086591      1.51e-06  
 Alpha HF Exchange    Energy =  -6.84178235010642
 Beta HF Exchange     Energy =  -6.84178235010643
 DFT Correlation      Energy =  -2.73147461643586
 DFT Exchange         Energy = -54.26324233705524
 One-Electron (alpha) Energy = -918.70716644607910
 One-Electron (beta)  Energy = -918.70716644607967
 Total Coulomb        Energy = 701.76443351557725
    9    -915.5220086792      2.35e-07  Convergence criterion met
 ---------------------------------------
 SCF time:   CPU 29.74s  wall 3.00s 
<S^2> =         -0.000000000
 Alpha HF Exchange    Energy =  -6.84178235010642
 Beta HF Exchange     Energy =  -6.84178235010643
 DFT Correlation      Energy =  -2.73147461643586
 DFT Exchange         Energy = -54.26324233705524
 One-Electron (alpha) Energy = -918.70716644607910
 One-Electron (beta)  Energy = -918.70716644607967
 Total Coulomb        Energy = 701.76443351557725
 Nuclear repulsion Energy = 290.80617235111839
 SCF   energy in the final basis set =     -915.5220086792
 Total energy in the final basis set =     -915.5220086792
 
 --------------------------------------------------------------
 
                    Orbital Energies (a.u.)
 --------------------------------------------------------------
 
 Alpha MOs
 -- Occupied --
-88.879 -88.869 -10.239 -10.229 -10.194  -7.942  -7.932  -5.907
 -5.903  -5.897  -5.897  -5.893  -5.886  -0.843  -0.761  -0.715
 -0.656  -0.591  -0.484  -0.453  -0.430  -0.424  -0.400  -0.383
 -0.366  -0.324  -0.321  -0.245  -0.235
 -- Virtual --
  0.018   0.040   0.065   0.079   0.096   0.119   0.135   0.154
  0.166   0.171   0.202   0.212   0.328   0.337   0.358   0.367
  0.376   0.396   0.405   0.442   0.494   0.518   0.536   0.563
  0.579   0.647   0.660   0.685   0.726   0.748   0.756   0.783
  0.811   0.820   0.836   0.853   0.870   0.883   0.888   0.928
  0.945   0.962   0.980   1.033   1.089   1.129   1.166   1.210
  1.363   1.376   1.399   1.566   1.609   1.721   1.771   1.821
  1.853   1.924   2.032   2.035   2.062   2.075   2.094   2.095
  2.116   2.123   2.162   2.202   2.235   2.280   2.352   2.438
  2.490   2.586   2.599   2.628   2.721   2.723   2.751   2.774
  2.825   2.859   2.886   3.175   3.232   3.314   3.428   3.457
  3.468   3.970   4.011   4.271   4.446   4.591
 
 Beta MOs
 -- Occupied --
-88.879 -88.869 -10.239 -10.229 -10.194  -7.942  -7.932  -5.907
 -5.903  -5.897  -5.897  -5.893  -5.886  -0.843  -0.761  -0.715
 -0.656  -0.591  -0.484  -0.453  -0.430  -0.424  -0.400  -0.383
 -0.366  -0.324  -0.321  -0.245  -0.235
 -- Virtual --
  0.018   0.040   0.065   0.079   0.096   0.119   0.135   0.154
  0.166   0.171   0.202   0.212   0.328   0.337   0.358   0.367
  0.376   0.396   0.405   0.442   0.494   0.518   0.536   0.563
  0.579   0.647   0.660   0.685   0.726   0.748   0.756   0.783
  0.811   0.820   0.836   0.853   0.870   0.883   0.888   0.928
  0.945   0.962   0.980   1.033   1.089   1.129   1.166   1.210
  1.363   1.376   1.399   1.566   1.609   1.721   1.771   1.821
  1.853   1.924   2.032   2.035   2.062   2.075   2.094   2.095
  2.116   2.123   2.162   2.202   2.235   2.280   2.352   2.438
  2.490   2.586   2.599   2.628   2.721   2.723   2.751   2.774
  2.825   2.859   2.886   3.175   3.232   3.314   3.428   3.457
  3.468   3.970   4.011   4.271   4.446   4.591
 --------------------------------------------------------------
 
          Ground-State Mulliken Net Atomic Charges

     Atom                 Charge (a.u.)    Spin (a.u.)
  --------------------------------------------------------
      1 S                    -0.042247      -0.000000
      2 S                    -0.043972       0.000000
      3 C                    -0.204044      -0.000000
      4 C                    -0.322612       0.000000
      5 C                    -0.307845       0.000000
      6 H                     0.155117      -0.000000
      7 H                     0.135624      -0.000000
      8 H                     0.145126      -0.000000
      9 H                     0.106579      -0.000000
     10 H                     0.108876      -0.000000
     11 H                     0.130155      -0.000000
     12 H                     0.058227      -0.000000
     13 H                     0.081015       0.000000
  --------------------------------------------------------
  Sum of atomic charges =    -0.000000
  Sum of spin   charges =     0.000000

 -----------------------------------------------------------------
                    Cartesian Multipole Moments
 -----------------------------------------------------------------
    Charge (ESU x 10^10)
                -0.0000
    Dipole Moment (Debye)
         X       1.7224      Y       1.3979      Z       1.0471
       Tot       2.4530
    Quadrupole Moments (Debye-Ang)
        XX     -53.2230     XY       2.5303     YY     -47.4794
        XZ      -0.4609     YZ      -2.3302     ZZ     -44.8941
    Octopole Moments (Debye-Ang^2)
       XXX      43.4654    XXY       8.6172    XYY       3.8472
       YYY      39.9574    XXZ      -1.6154    XYZ       0.5731
       YYZ       0.6838    XZZ      14.4077    YZZ       8.4765
       ZZZ      -2.9942
    Hexadecapole Moments (Debye-Ang^3)
      XXXX    -751.3241   XXXY      33.6731   XXYY    -176.8919
      XYYY      14.7589   YYYY    -362.3460   XXXZ      -4.9527
      XXYZ      -2.6142   XYYZ       0.0567   YYYZ      -1.0543
      XXZZ    -139.8968   XYZZ       1.1698   YYZZ     -71.5973
      XZZZ      -6.7603   YZZZ       5.4019   ZZZZ     -91.9179
 -----------------------------------------------------------------
 Calculating analytic gradient of the SCF energy
 Gradient of SCF Energy
            1           2           3           4           5           6
    1   0.0002227   0.0141548  -0.0084846  -0.0006409  -0.0059392   0.0024780
    2   0.0147686  -0.0076285  -0.0094234   0.0047502  -0.0073493   0.0058484
    3   0.0084502   0.0045173  -0.0116582  -0.0005776   0.0044183  -0.0018788
            7           8           9          10          11          12
    1  -0.0032202   0.0024903   0.0002295   0.0005791   0.0018568  -0.0018755
    2  -0.0010194   0.0011742  -0.0018446   0.0009799   0.0003233  -0.0026893
    3   0.0010187   0.0011999  -0.0003271   0.0008242  -0.0018397  -0.0037968
           13
    1  -0.0018506
    2   0.0021097
    3  -0.0003504
 Max gradient component =       1.477E-02
 RMS gradient           =       5.331E-03
 Gradient time:  CPU 11.44 s  wall 0.98 s
 Geometry Optimization Parameters
   NAtoms,    NIC,     NZ,  NCons,   NDum,   NFix, NCnnct, MaxDiis
       13      82       0       1       0       0       0       0


** CONSTRAINED OPTIMIZATION IN DELOCALIZED INTERNAL COORDINATES **
   Searching for a Minimum

   Optimization Cycle:   1

                       Coordinates (Angstroms)
     ATOM                X               Y               Z
      1  S         0.6530000000   -1.6551000000    0.1361000000
      2  S        -2.2737000000   -0.0427000000   -0.1035000000
      3  C         0.5138000000    0.1015000000   -0.3613000000
      4  C        -0.6970000000    0.7789000000    0.2925000000
      5  C         1.8039000000    0.8174000000    0.0363000000
      6  H         0.4141000000    0.1309000000   -1.4524000000
      7  H        -0.5924000000    0.8044000000    1.3832000000
      8  H        -0.7706000000    1.8169000000   -0.0497000000
      9  H         1.7684000000    1.8662000000   -0.2789000000
     10  H         1.9624000000    0.8050000000    1.1207000000
     11  H         2.6774000000    0.3636000000   -0.4454000000
     12  H         0.7551000000   -1.4375000000    1.4557000000
     13  H        -1.9747000000   -1.2245000000    0.4557000000
   Point Group: c1    Number of degrees of freedom:    33


   Energy is   -915.522008679

              Constraints and their Current Values
                                        Value     Constraint
   Distance(Angs):        2   4             1.821490     1.700000

 Attempting to Generate Delocalized Internal Coordinates

   Using Lagrange Multiplier Algorithm


 34 Hessian modes will be used to form the next step
  Hessian Eigenvalues:
    -0.885000    0.045000    0.045000    0.045000    0.045000    0.075919
     0.076295    0.078850    0.081805    0.083482    0.084194    0.094223
     0.127259    0.144645    0.160000    0.160000    0.160000    0.160000
     0.160000    0.176672    0.204035    0.220629    0.238218    0.263175
     0.263282    0.290806    0.296036    0.341239    0.341283    0.341292
     0.341409    0.341604    0.341929    1.129944

 Minimum Search - Taking P-RFO Step
 Searching for Lamda that Maximizes Along the Constraint modes Only
 Value Taken    Lamda =   0.03443197
 Searching for Lamda that Minimizes Along All other modes
 Value Taken    Lamda =  -0.02393265
 Step Taken.  Stepsize is  0.297155

                             Maximum     Tolerance    Cnvgd?
         Gradient            0.229583       0.000300      NO
         Displacement        0.222595       0.001200      NO
         Energy change     *********       0.000001      NO


 New Cartesian Coordinates Obtained by Inverse Iteration

 Displacement from previous Coordinates is:  0.456137
 ----------------------------------------------------------------
             Standard Nuclear Orientation (Angstroms)
    I     Atom           X                Y                Z
 ----------------------------------------------------------------
    1      S       0.7063236750    -1.7186826351     0.1190989552
    2      S      -2.2454343393     0.0797996544    -0.0917028659
    3      C       0.5179140341     0.0643143839    -0.3452128098
    4      C      -0.7204933212     0.7405903018     0.2831265671
    5      C       1.7906300763     0.8343921811     0.0430772728
    6      H       0.4118535685     0.0735216240    -1.4334466174
    7      H      -0.6038043732     0.7790799215     1.3712224142
    8      H      -0.7805442052     1.7738738844    -0.0731237780
    9      H       1.7223393651     1.8822505856    -0.2781605010
   10      H       1.9446559694     0.8306156454     1.1268872048
   11      H       2.6750085204     0.4005928192    -0.4300821145
   12      H       0.8285734617    -1.4886203780     1.4429730883
   13      H      -2.0073224316    -1.1267279881     0.4543431840
 ----------------------------------------------------------------
 Nuclear Repulsion Energy =   290.7496584866 hartrees
 There are       29 alpha and       29 beta electrons

                       Distance Matrix (Angstroms)
             S (  1)   S (  2)   C (  3)   C (  4)   C (  5)   H (  6)
   S (  2)  3.462925
   C (  3)  1.852070  2.774996
   C (  4)  2.847935  1.703698  1.544607
   C (  5)  2.774832  4.108210  1.537399  2.524314
   H (  6)  2.389374  2.976826  1.093429  2.161900  2.158720
   H (  7)  3.085947  2.307399  2.171472  1.095012  2.738676  3.065215
   H (  8)  3.800747  2.239673  2.163936  1.094621  2.739903  2.482637
   H (  9)  3.762555  4.361975  2.181749  2.754245  1.098119  2.514669
   H ( 10)  3.007994  4.427815  2.188581  2.796973  1.094706  3.078633
   H ( 11)  2.944257  4.942486  2.184798  3.486215  1.092789  2.497116
   H ( 12)  1.349265  3.776863  2.388666  2.951988  2.877785  3.299657
   H ( 13)  2.797619  1.345575  2.904254  2.274230  4.294133  3.294960
             H (  7)   H (  8)   H (  9)   H ( 10)   H ( 11)   H ( 12)
   H (  8)  1.762665
   H (  9)  3.057514  2.513605
   H ( 10)  2.560665  3.123536  1.769045
   H ( 11)  3.760128  3.735527  1.768041  1.772706
   H ( 12)  2.683155  3.941025  3.888945  2.593146  3.238331
   H ( 13)  2.538234  3.193227  4.847772  4.461126  5.003912  3.025006

 
 Applying Cartesian multipole field
    Component          Value
    ---------          -----
     (2,0,0)        1.00000E-11
     (0,2,0)        2.00000E-11
     (0,0,2)       -3.00000E-10
 Nucleus-field energy     =    -0.0000000005 hartrees
 Requested basis set is 6-31G(d,p)
 There are 46 shells and 123 basis functions
 A cutoff of  1.0D-14 yielded   1033 shell pairs
 There are      7539 function pairs
 Smallest overlap matrix eigenvalue = 5.43E-03
 Guess from superposition of atomic densities
 Warning:  Energy on first SCF cycle will be non-variational
 SAD guess density has 58.000000 electrons

 -----------------------------------------------------------------------
  General SCF calculation program by
  Eric Jon Sundstrom, Paul Horn, Yuezhi Mao, Dmitri Zuev, Alec White,
  David Stuck, Shaama M.S., Shane Yost, Joonho Lee, David Small,
  Daniel Levine, Susi Lehtola, Hugh Burton, Evgeny Epifanovsky
 -----------------------------------------------------------------------
 Exchange:     0.2000 Hartree-Fock + 0.0800 Slater + 0.7200 B88
 Correlation:  0.1900 VWN1RPA + 0.8100 LYP
 Using SG-1 standard quadrature grid
 using 12 threads for integral computing
 -------------------------------------------------------
 OpenMP Integral computing Module                
 Release: version 1.0, May 2013, Q-Chem Inc. Pittsburgh 
 -------------------------------------------------------
 -------------------------------------------------------
 OpenMP BLAS3 based DFT computing Module                
 Release: version 1.0, May 2013, Q-Chem Inc. Pittsburgh 
 -------------------------------------------------------
 A unrestricted SCF calculation will be
 performed using DIIS
 SCF converges when DIIS error is below 1.0e-06
 Alpha HF Exchange    Energy =  -6.87570142595933
 Beta HF Exchange     Energy =  -6.87570142595933
 DFT Correlation      Energy =  -2.71854632683381
 DFT Exchange         Energy = -53.90822994481389
 One-Electron (alpha) Energy = -916.61795355678407
 One-Electron (beta)  Energy = -916.61795355678407
 Total Coulomb        Energy = 696.60216763387439
 ---------------------------------------
  Cycle       Energy         DIIS error
 ---------------------------------------
    1    -916.2622601172      2.93e-02  
 Alpha HF Exchange    Energy =  -6.87284650643761
 Beta HF Exchange     Energy =  -6.87284650643760
 DFT Correlation      Energy =  -2.74576386619576
 DFT Exchange         Energy = -54.52483842643030
 One-Electron (alpha) Energy = -920.70272914284919
 One-Electron (beta)  Energy = -920.70272914284897
 Total Coulomb        Energy = 706.22611141610594
    2    -915.4459836890      2.91e-03  
 Alpha HF Exchange    Energy =  -6.81692206760920
 Beta HF Exchange     Energy =  -6.81692206760920
 DFT Correlation      Energy =  -2.71934093406921
 DFT Exchange         Energy = -54.05269050655218
 One-Electron (alpha) Energy = -916.37619496744560
 One-Electron (beta)  Energy = -916.37619496744549
 Total Coulomb        Energy = 696.98354497841603
    3    -915.4250620462      3.35e-03  
 Alpha HF Exchange    Energy =  -6.84321543930242
 Beta HF Exchange     Energy =  -6.84321543930242
 DFT Correlation      Energy =  -2.73281867818341
 DFT Exchange         Energy = -54.27399028448783
 One-Electron (alpha) Energy = -918.60214529947200
 One-Electron (beta)  Energy = -918.60214529947257
 Total Coulomb        Energy = 701.63240869918752
    4    -915.5154632550      4.66e-04  
 Alpha HF Exchange    Energy =  -6.84452240686182
 Beta HF Exchange     Energy =  -6.84452240686183
 DFT Correlation      Energy =  -2.73283703891422
 DFT Exchange         Energy = -54.28319845091233
 One-Electron (alpha) Energy = -918.62540648717322
 One-Electron (beta)  Energy = -918.62540648717356
 Total Coulomb        Energy = 701.68904378006141
    5    -915.5171910118      1.42e-04  
 Alpha HF Exchange    Energy =  -6.84440775020859
 Beta HF Exchange     Energy =  -6.84440775020860
 DFT Correlation      Energy =  -2.73283645097929
 DFT Exchange         Energy = -54.28248854753521
 One-Electron (alpha) Energy = -918.62715868667556
 One-Electron (beta)  Energy = -918.62715868667556
 Total Coulomb        Energy = 701.69146431858474
    6    -915.5173350676      3.73e-05  
 Alpha HF Exchange    Energy =  -6.84424079164825
 Beta HF Exchange     Energy =  -6.84424079164825
 DFT Correlation      Energy =  -2.73277660770230
 DFT Exchange         Energy = -54.28108061515197
 One-Electron (alpha) Energy = -918.61020582462413
 One-Electron (beta)  Energy = -918.61020582462436
 Total Coulomb        Energy = 701.65574674620143
    7    -915.5173452231      8.03e-06  
 Alpha HF Exchange    Energy =  -6.84429776977092
 Beta HF Exchange     Energy =  -6.84429776977092
 DFT Correlation      Energy =  -2.73279880555067
 DFT Exchange         Energy = -54.28153166224766
 One-Electron (alpha) Energy = -918.61668140380266
 One-Electron (beta)  Energy = -918.61668140380300
 Total Coulomb        Energy = 701.66928457492645
    8    -915.5173457539      1.67e-06  
 Alpha HF Exchange    Energy =  -6.84429398703050
 Beta HF Exchange     Energy =  -6.84429398703050
 DFT Correlation      Energy =  -2.73279699478105
 DFT Exchange         Energy = -54.28149942585899
 One-Electron (alpha) Energy = -918.61614076486569
 One-Electron (beta)  Energy = -918.61614076486569
 Total Coulomb        Energy = 701.66816166241324
    9    -915.5173457759      4.56e-07  Convergence criterion met
 ---------------------------------------
 SCF time:   CPU 29.08s  wall 3.00s 
<S^2> =         -0.000000000
 Alpha HF Exchange    Energy =  -6.84429398703050
 Beta HF Exchange     Energy =  -6.84429398703050
 DFT Correlation      Energy =  -2.73279699478105
 DFT Exchange         Energy = -54.28149942585899
 One-Electron (alpha) Energy = -918.61614076486569
 One-Electron (beta)  Energy = -918.61614076486569
 Total Coulomb        Energy = 701.66816166241324
 Nuclear repulsion Energy = 290.74965848607201
 SCF   energy in the final basis set =     -915.5173457759
 Total energy in the final basis set =     -915.5173457759
 
 --------------------------------------------------------------
 
                    Orbital Energies (a.u.)
 --------------------------------------------------------------
 
 Alpha MOs
 -- Occupied --
-88.881 -88.868 -10.238 -10.222 -10.193  -7.944  -7.933  -5.909
 -5.905  -5.899  -5.898  -5.894  -5.888  -0.846  -0.777  -0.713
 -0.650  -0.588  -0.491  -0.452  -0.428  -0.426  -0.400  -0.381
 -0.363  -0.331  -0.323  -0.247  -0.234
 -- Virtual --
  0.017   0.040   0.063   0.092   0.104   0.119   0.135   0.153
  0.168   0.172   0.199   0.212   0.330   0.339   0.359   0.366
  0.370   0.389   0.405   0.441   0.500   0.518   0.540   0.573
  0.582   0.643   0.664   0.683   0.722   0.750   0.755   0.773
  0.804   0.817   0.839   0.846   0.872   0.883   0.897   0.930
  0.945   0.958   0.998   1.061   1.099   1.118   1.173   1.194
  1.373   1.393   1.411   1.570   1.614   1.710   1.768   1.810
  1.851   1.929   2.033   2.041   2.061   2.079   2.090   2.098
  2.115   2.126   2.188   2.222   2.258   2.286   2.353   2.440
  2.499   2.587   2.612   2.633   2.720   2.724   2.740   2.773
  2.832   2.860   2.884   3.179   3.243   3.318   3.430   3.455
  3.474   3.971   4.014   4.272   4.453   4.593
 
 Beta MOs
 -- Occupied --
-88.881 -88.868 -10.238 -10.222 -10.193  -7.944  -7.933  -5.909
 -5.905  -5.899  -5.898  -5.894  -5.888  -0.846  -0.777  -0.713
 -0.650  -0.588  -0.491  -0.452  -0.428  -0.426  -0.400  -0.381
 -0.363  -0.331  -0.323  -0.247  -0.234
 -- Virtual --
  0.017   0.040   0.063   0.092   0.104   0.119   0.135   0.153
  0.168   0.172   0.199   0.212   0.330   0.339   0.359   0.366
  0.370   0.389   0.405   0.441   0.500   0.518   0.540   0.573
  0.582   0.643   0.664   0.683   0.722   0.750   0.755   0.773
  0.804   0.817   0.839   0.846   0.872   0.883   0.897   0.930
  0.945   0.958   0.998   1.061   1.099   1.118   1.173   1.194
  1.373   1.393   1.411   1.570   1.614   1.710   1.768   1.810
  1.851   1.929   2.033   2.041   2.061   2.079   2.090   2.098
  2.115   2.126   2.188   2.222   2.258   2.286   2.353   2.440
  2.499   2.587   2.612   2.633   2.720   2.724   2.740   2.773
  2.832   2.860   2.884   3.179   3.243   3.318   3.430   3.455
  3.474   3.971   4.014   4.272   4.453   4.593
 --------------------------------------------------------------
 
          Ground-State Mulliken Net Atomic Charges

     Atom                 Charge (a.u.)    Spin (a.u.)
  --------------------------------------------------------
      1 S                    -0.041667      -0.000000
      2 S                    -0.022571       0.000000
      3 C                    -0.209586      -0.000000
      4 C                    -0.324548       0.000000
      5 C                    -0.307874      -0.000000
      6 H                     0.151018       0.000000
      7 H                     0.132028      -0.000000
      8 H                     0.144386      -0.000000
      9 H                     0.108285      -0.000000
     10 H                     0.109415       0.000000
     11 H                     0.129355      -0.000000
     12 H                     0.057405      -0.000000
     13 H                     0.074355      -0.000000
  --------------------------------------------------------
  Sum of atomic charges =    -0.000000
  Sum of spin   charges =    -0.000000

 -----------------------------------------------------------------
                    Cartesian Multipole Moments
 -----------------------------------------------------------------
    Charge (ESU x 10^10)
                 0.0000
    Dipole Moment (Debye)
         X       1.5469      Y       1.3402      Z       1.0276
       Tot       2.2902
    Quadrupole Moments (Debye-Ang)
        XX     -52.6303     XY       2.5329     YY     -47.7328
        XZ      -0.3613     YZ      -2.3010     ZZ     -45.0074
    Octopole Moments (Debye-Ang^2)
       XXX      38.3178    XXY       7.9913    XYY       3.7712
       YYY      39.2622    XXZ      -1.0934    XYZ       0.2905
       YYZ       0.3845    XZZ      13.3345    YZZ       7.7916
       ZZZ      -3.0221
    Hexadecapole Moments (Debye-Ang^3)
      XXXX    -738.6960   XXXY      51.5143   XXYY    -180.0373
      XYYY      28.8335   YYYY    -378.5014   XXXZ      -4.9801
      XXYZ      -3.1193   XYYZ       1.2837   YYYZ      -1.5846
      XXZZ    -138.3817   XYZZ       6.6588   YYZZ     -73.9038
      XZZZ      -5.9630   YZZZ       5.4000   ZZZZ     -91.0553
 -----------------------------------------------------------------
 Calculating analytic gradient of the SCF energy
 Gradient of SCF Energy
            1           2           3           4           5           6
    1   0.0038787   0.0562326  -0.0081920  -0.0453351  -0.0003757   0.0012583
    2   0.0002200   0.0247997  -0.0087158  -0.0170269  -0.0026833   0.0038850
    3   0.0014963   0.0149189  -0.0063704  -0.0120287   0.0040219   0.0004735
            7           8           9          10          11          12
    1  -0.0051403  -0.0050625   0.0009365   0.0001729   0.0002202  -0.0014292
    2  -0.0034476  -0.0022510   0.0005677   0.0004900   0.0007015   0.0004453
    3  -0.0010766  -0.0010042  -0.0004015  -0.0001998  -0.0007345  -0.0003288
           13
    1   0.0028358
    2   0.0030153
    3   0.0012339
 Max gradient component =       5.623E-02
 RMS gradient           =       1.323E-02
 Gradient time:  CPU 11.57 s  wall 0.98 s
 Geometry Optimization Parameters
   NAtoms,    NIC,     NZ,  NCons,   NDum,   NFix, NCnnct, MaxDiis
       13      82       0       1       0       0       0       0

 Cartesian Hessian Update
 Hessian Updated using BFGS Update


** CONSTRAINED OPTIMIZATION IN DELOCALIZED INTERNAL COORDINATES **
   Searching for a Minimum

   Optimization Cycle:   2

                       Coordinates (Angstroms)
     ATOM                X               Y               Z
      1  S         0.7063236750   -1.7186826351    0.1190989552
      2  S        -2.2454343393    0.0797996544   -0.0917028659
      3  C         0.5179140341    0.0643143839   -0.3452128098
      4  C        -0.7204933212    0.7405903018    0.2831265671
      5  C         1.7906300763    0.8343921811    0.0430772728
      6  H         0.4118535685    0.0735216240   -1.4334466174
      7  H        -0.6038043732    0.7790799215    1.3712224142
      8  H        -0.7805442052    1.7738738844   -0.0731237780
      9  H         1.7223393651    1.8822505856   -0.2781605010
     10  H         1.9446559694    0.8306156454    1.1268872048
     11  H         2.6750085204    0.4005928192   -0.4300821145
     12  H         0.8285734617   -1.4886203780    1.4429730883
     13  H        -2.0073224316   -1.1267279881    0.4543431840
   Point Group: c1    Number of degrees of freedom:    33


   Energy is   -915.517345776

              Constraints and their Current Values
                                        Value     Constraint
   Distance(Angs):        2   4             1.703698     1.700000
 Hessian Updated using BFGS Update

   Using Lagrange Multiplier Algorithm


 29 Hessian modes will be used to form the next step
  Hessian Eigenvalues:
    -0.879622    0.044346    0.045055    0.073233    0.076587    0.077516
     0.081775    0.083443    0.084872    0.094211    0.128351    0.144253
     0.159353    0.165832    0.180424    0.205480    0.227403    0.240804
     0.262803    0.263569    0.291355    0.297455    0.341183    0.341280
     0.341340    0.341499    0.341729    0.342889    1.139935

 Minimum Search - Taking P-RFO Step
 Searching for Lamda that Maximizes Along the Constraint modes Only
 Value Taken    Lamda =   0.00008295
 Searching for Lamda that Minimizes Along All other modes
 Value Taken    Lamda =  -0.00242502
 Step Taken.  Stepsize is  0.164239

                             Maximum     Tolerance    Cnvgd?
         Gradient            0.007693       0.000300      NO
         Displacement        0.072344       0.001200      NO
         Energy change      0.004663       0.000001      NO


 New Cartesian Coordinates Obtained by Inverse Iteration

 Displacement from previous Coordinates is:  0.280292
 ----------------------------------------------------------------
             Standard Nuclear Orientation (Angstroms)
    I     Atom           X                Y                Z
 ----------------------------------------------------------------
    1      S       0.7011886158    -1.7241730159     0.1326332076
    2      S      -2.2516542260     0.0966197198    -0.1008325674
    3      C       0.5255484577     0.0647772831    -0.3241206731
    4      C      -0.7243969367     0.7287621234     0.2965441985
    5      C       1.7957567024     0.8507525267     0.0367056538
    6      H       0.4042704571     0.0509786545    -1.4112832027
    7      H      -0.5749739053     0.7815664967     1.3826043302
    8      H      -0.7463512443     1.7654689763    -0.0610373021
    9      H       1.7095246869     1.8929214665    -0.2962162133
   10      H       1.9588045191     0.8590630173     1.1193050768
   11      H       2.6776257085     0.4144666114    -0.4373070222
   12      H       0.8667026133    -1.5072935267     1.4556688891
   13      H      -2.1023454485    -1.1489103330     0.3963356248
 ----------------------------------------------------------------
 Nuclear Repulsion Energy =   290.0413163622 hartrees
 There are       29 alpha and       29 beta electrons

                       Distance Matrix (Angstroms)
             S (  1)   S (  2)   C (  3)   C (  4)   C (  5)   H (  6)
   S (  2)  3.476934
   C (  3)  1.854674  2.786346
   C (  4)  2.841840  1.700008  1.545466
   C (  5)  2.799558  4.119365  1.536679  2.536449
   H (  6)  2.371287  2.961976  1.093993  2.156375  2.161607
   H (  7)  3.077296  2.341152  2.153566  1.097562  2.727012  3.049342
   H (  8)  3.782920  2.247794  2.139928  1.096863  2.703437  2.467098
   H (  9)  3.779421  4.353827  2.178231  2.762355  1.097447  2.517899
   H ( 10)  3.037800  4.449496  2.183710  2.809534  1.094840  3.077898
   H ( 11)  2.967308  4.950964  2.183238  3.494435  1.092120  2.499779
   H ( 12)  1.350872  3.836585  2.399051  2.979113  2.904648  3.295674
   H ( 13)  2.874068  1.349376  2.982938  2.331170  4.395815  3.315169
             H (  7)   H (  8)   H (  9)   H ( 10)   H ( 11)   H ( 12)
   H (  8)  1.755430
   H (  9)  3.045075  2.470401
   H ( 10)  2.548601  3.087499  1.770510
   H ( 11)  3.745163  3.700055  1.772838  1.771274
   H ( 12)  2.706040  3.951369  3.916748  2.627826  3.248994
   H ( 13)  2.651854  3.246770  4.925721  4.587764  5.097767  3.172676

 
 Applying Cartesian multipole field
    Component          Value
    ---------          -----
     (2,0,0)        1.00000E-11
     (0,2,0)        2.00000E-11
     (0,0,2)       -3.00000E-10
 Nucleus-field energy     =    -0.0000000004 hartrees
 Requested basis set is 6-31G(d,p)
 There are 46 shells and 123 basis functions
 A cutoff of  1.0D-14 yielded   1033 shell pairs
 There are      7539 function pairs
 Smallest overlap matrix eigenvalue = 5.43E-03
 Guess from superposition of atomic densities
 Warning:  Energy on first SCF cycle will be non-variational
 SAD guess density has 58.000000 electrons

 -----------------------------------------------------------------------
  General SCF calculation program by
  Eric Jon Sundstrom, Paul Horn, Yuezhi Mao, Dmitri Zuev, Alec White,
  David Stuck, Shaama M.S., Shane Yost, Joonho Lee, David Small,
  Daniel Levine, Susi Lehtola, Hugh Burton, Evgeny Epifanovsky
 -----------------------------------------------------------------------
 Exchange:     0.2000 Hartree-Fock + 0.0800 Slater + 0.7200 B88
 Correlation:  0.1900 VWN1RPA + 0.8100 LYP
 Using SG-1 standard quadrature grid
 using 12 threads for integral computing
 -------------------------------------------------------
 OpenMP Integral computing Module                
 Release: version 1.0, May 2013, Q-Chem Inc. Pittsburgh 
 -------------------------------------------------------
 -------------------------------------------------------
 OpenMP BLAS3 based DFT computing Module                
 Release: version 1.0, May 2013, Q-Chem Inc. Pittsburgh 
 -------------------------------------------------------
 A unrestricted SCF calculation will be
 performed using DIIS
 SCF converges when DIIS error is below 1.0e-06
 Alpha HF Exchange    Energy =  -6.87457739466596
 Beta HF Exchange     Energy =  -6.87457739466596
 DFT Correlation      Energy =  -2.71804221143696
 DFT Exchange         Energy = -53.90631756328934
 One-Electron (alpha) Energy = -915.91323989671298
 One-Electron (beta)  Energy = -915.91323989671298
 Total Coulomb        Energy = 695.90403044814263
 ---------------------------------------
  Cycle       Energy         DIIS error
 ---------------------------------------
    1    -916.2546475475      2.92e-02  
 Alpha HF Exchange    Energy =  -6.87223168361562
 Beta HF Exchange     Energy =  -6.87223168361562
 DFT Correlation      Energy =  -2.74525968742786
 DFT Exchange         Energy = -54.52031194750549
 One-Electron (alpha) Energy = -919.99594309291228
 One-Electron (beta)  Energy = -919.99594309291206
 Total Coulomb        Energy = 705.51330435382124
    2    -915.4473004724      2.90e-03  
 Alpha HF Exchange    Energy =  -6.81636553058806
 Beta HF Exchange     Energy =  -6.81636553058806
 DFT Correlation      Energy =  -2.71884845510863
 DFT Exchange         Energy = -54.04868427204924
 One-Electron (alpha) Energy = -915.66446043330268
 One-Electron (beta)  Energy = -915.66446043330245
 Total Coulomb        Energy = 696.26108805964645
    3    -915.4267802335      3.33e-03  
 Alpha HF Exchange    Energy =  -6.84267373993265
 Beta HF Exchange     Energy =  -6.84267373993265
 DFT Correlation      Energy =  -2.73232506072461
 DFT Exchange         Energy = -54.27009845755145
 One-Electron (alpha) Energy = -917.89630980059746
 One-Electron (beta)  Energy = -917.89630980059746
 Total Coulomb        Energy = 700.92268177428161
    4    -915.5163924632      4.66e-04  
 Alpha HF Exchange    Energy =  -6.84395967124015
 Beta HF Exchange     Energy =  -6.84395967124014
 DFT Correlation      Energy =  -2.73233962499901
 DFT Exchange         Energy = -54.27913720218390
 One-Electron (alpha) Energy = -917.91755612734687
 One-Electron (beta)  Energy = -917.91755612734721
 Total Coulomb        Energy = 700.97507060981729
    5    -915.5181214527      1.43e-04  
 Alpha HF Exchange    Energy =  -6.84384093006444
 Beta HF Exchange     Energy =  -6.84384093006443
 DFT Correlation      Energy =  -2.73233592834696
 DFT Exchange         Energy = -54.27838678382341
 One-Electron (alpha) Energy = -917.91858280933263
 One-Electron (beta)  Energy = -917.91858280933252
 Total Coulomb        Energy = 700.97598709050465
    6    -915.5182667387      3.68e-05  
 Alpha HF Exchange    Energy =  -6.84367802623409
 Beta HF Exchange     Energy =  -6.84367802623409
 DFT Correlation      Energy =  -2.73227821120910
 DFT Exchange         Energy = -54.27701332920695
 One-Electron (alpha) Energy = -917.90225370272333
 One-Electron (beta)  Energy = -917.90225370272276
 Total Coulomb        Energy = 700.94156206328444
    7    -915.5182765732      8.06e-06  
 Alpha HF Exchange    Energy =  -6.84373408151474
 Beta HF Exchange     Energy =  -6.84373408151473
 DFT Correlation      Energy =  -2.73230007587509
 DFT Exchange         Energy = -54.27745754599243
 One-Electron (alpha) Energy = -917.90860119444324
 One-Electron (beta)  Energy = -917.90860119444301
 Total Coulomb        Energy = 700.95483470699924
    8    -915.5182771050      1.72e-06  
 Alpha HF Exchange    Energy =  -6.84373096750072
 Beta HF Exchange     Energy =  -6.84373096750073
 DFT Correlation      Energy =  -2.73229850304088
 DFT Exchange         Energy = -54.27743063409045
 One-Electron (alpha) Energy = -917.90813054241130
 One-Electron (beta)  Energy = -917.90813054241141
 Total Coulomb        Energy = 700.95385866726951
    9    -915.5182771279      4.72e-07  Convergence criterion met
 ---------------------------------------
 SCF time:   CPU 29.26s  wall 2.00s 
<S^2> =          0.000000000
 Alpha HF Exchange    Energy =  -6.84373096750072
 Beta HF Exchange     Energy =  -6.84373096750073
 DFT Correlation      Energy =  -2.73229850304088
 DFT Exchange         Energy = -54.27743063409045
 One-Electron (alpha) Energy = -917.90813054241130
 One-Electron (beta)  Energy = -917.90813054241141
 Total Coulomb        Energy = 700.95385866726951
 Nuclear repulsion Energy = 290.04131636180819
 SCF   energy in the final basis set =     -915.5182771279
 Total energy in the final basis set =     -915.5182771279
 
 --------------------------------------------------------------
 
                    Orbital Energies (a.u.)
 --------------------------------------------------------------
 
 Alpha MOs
 -- Occupied --
-88.880 -88.870 -10.238 -10.223 -10.194  -7.943  -7.935  -5.908
 -5.904  -5.900  -5.897  -5.896  -5.889  -0.845  -0.776  -0.713
 -0.651  -0.588  -0.490  -0.452  -0.429  -0.426  -0.400  -0.384
 -0.360  -0.331  -0.320  -0.246  -0.235
 -- Virtual --
  0.018   0.044   0.064   0.086   0.103   0.118   0.135   0.153
  0.168   0.173   0.199   0.214   0.326   0.339   0.356   0.365
  0.371   0.389   0.402   0.440   0.501   0.518   0.542   0.574
  0.583   0.644   0.663   0.688   0.722   0.749   0.756   0.769
  0.802   0.815   0.838   0.847   0.873   0.884   0.892   0.930
  0.943   0.960   0.997   1.057   1.093   1.119   1.171   1.187
  1.381   1.389   1.405   1.573   1.611   1.717   1.774   1.813
  1.853   1.923   2.031   2.047   2.061   2.081   2.091   2.095
  2.110   2.123   2.169   2.214   2.251   2.291   2.355   2.438
  2.490   2.583   2.615   2.639   2.716   2.727   2.738   2.766
  2.823   2.862   2.885   3.179   3.240   3.314   3.430   3.449
  3.476   3.970   4.012   4.269   4.451   4.592
 
 Beta MOs
 -- Occupied --
-88.880 -88.870 -10.238 -10.223 -10.194  -7.943  -7.935  -5.908
 -5.904  -5.900  -5.897  -5.896  -5.889  -0.845  -0.776  -0.713
 -0.651  -0.588  -0.490  -0.452  -0.429  -0.426  -0.400  -0.384
 -0.360  -0.331  -0.320  -0.246  -0.235
 -- Virtual --
  0.018   0.044   0.064   0.086   0.103   0.118   0.135   0.153
  0.168   0.173   0.199   0.214   0.326   0.339   0.356   0.365
  0.371   0.389   0.402   0.440   0.501   0.518   0.542   0.574
  0.583   0.644   0.663   0.688   0.722   0.749   0.756   0.769
  0.802   0.815   0.838   0.847   0.873   0.884   0.892   0.930
  0.943   0.960   0.997   1.057   1.093   1.119   1.171   1.187
  1.381   1.389   1.405   1.573   1.611   1.717   1.774   1.813
  1.853   1.923   2.031   2.047   2.061   2.081   2.091   2.095
  2.110   2.123   2.169   2.214   2.251   2.291   2.355   2.438
  2.490   2.583   2.615   2.639   2.716   2.727   2.738   2.766
  2.823   2.862   2.885   3.179   3.240   3.314   3.430   3.449
  3.476   3.970   4.012   4.269   4.451   4.592
 --------------------------------------------------------------
 
          Ground-State Mulliken Net Atomic Charges

     Atom                 Charge (a.u.)    Spin (a.u.)
  --------------------------------------------------------
      1 S                    -0.046164       0.000000
      2 S                    -0.024498      -0.000000
      3 C                    -0.211380       0.000000
      4 C                    -0.318091      -0.000000
      5 C                    -0.308573      -0.000000
      6 H                     0.150185      -0.000000
      7 H                     0.129706       0.000000
      8 H                     0.144009       0.000000
      9 H                     0.109831      -0.000000
     10 H                     0.109930       0.000000
     11 H                     0.130707       0.000000
     12 H                     0.056914       0.000000
     13 H                     0.077424      -0.000000
  --------------------------------------------------------
  Sum of atomic charges =     0.000000
  Sum of spin   charges =    -0.000000

 -----------------------------------------------------------------
                    Cartesian Multipole Moments
 -----------------------------------------------------------------
    Charge (ESU x 10^10)
                -0.0000
    Dipole Moment (Debye)
         X       1.5280      Y       1.2989      Z       1.0255
       Tot       2.2524
    Quadrupole Moments (Debye-Ang)
        XX     -52.3179     XY       2.9518     YY     -47.7086
        XZ      -0.2575     YZ      -2.1692     ZZ     -45.1772
    Octopole Moments (Debye-Ang^2)
       XXX      38.0849    XXY       6.8361    XYY       3.7913
       YYY      38.8544    XXZ      -1.0775    XYZ      -0.0724
       YYZ       0.2090    XZZ      13.6383    YZZ       7.5849
       ZZZ      -3.3952
    Hexadecapole Moments (Debye-Ang^3)
      XXXX    -740.1333   XXXY      54.6035   XXYY    -181.1326
      XYYY      30.0423   YYYY    -381.3465   XXXZ      -6.4848
      XXYZ      -2.5854   XYYZ       1.1590   YYYZ      -0.7546
      XXZZ    -139.2581   XYZZ       6.8343   YYZZ     -74.4490
      XZZZ      -6.9397   YZZZ       6.3451   ZZZZ     -91.6047
 -----------------------------------------------------------------
 Calculating analytic gradient of the SCF energy
 Gradient of SCF Energy
            1           2           3           4           5           6
    1   0.0016207   0.0582853  -0.0040017  -0.0547396   0.0016289   0.0003423
    2  -0.0011399   0.0225525  -0.0033215  -0.0186089  -0.0002308   0.0024728
    3  -0.0000454   0.0162525  -0.0014916  -0.0152737   0.0017702   0.0006057
            7           8           9          10          11          12
    1  -0.0003744  -0.0007785   0.0004140  -0.0001661   0.0000214  -0.0009031
    2  -0.0016662  -0.0009402   0.0004671  -0.0000015   0.0004253   0.0004140
    3  -0.0007169  -0.0012079  -0.0001871  -0.0002943  -0.0002071   0.0003634
           13
    1  -0.0013491
    2  -0.0004226
    3   0.0004322
 Max gradient component =       5.829E-02
 RMS gradient           =       1.414E-02
 Gradient time:  CPU 11.64 s  wall 0.99 s
 Geometry Optimization Parameters
   NAtoms,    NIC,     NZ,  NCons,   NDum,   NFix, NCnnct, MaxDiis
       13      82       0       1       0       0       0       0

 Cartesian Hessian Update
 Hessian Updated using BFGS Update


** CONSTRAINED OPTIMIZATION IN DELOCALIZED INTERNAL COORDINATES **
   Searching for a Minimum

   Optimization Cycle:   3

                       Coordinates (Angstroms)
     ATOM                X               Y               Z
      1  S         0.7011886158   -1.7241730159    0.1326332076
      2  S        -2.2516542260    0.0966197198   -0.1008325674
      3  C         0.5255484577    0.0647772831   -0.3241206731
      4  C        -0.7243969367    0.7287621234    0.2965441985
      5  C         1.7957567024    0.8507525267    0.0367056538
      6  H         0.4042704571    0.0509786545   -1.4112832027
      7  H        -0.5749739053    0.7815664967    1.3826043302
      8  H        -0.7463512443    1.7654689763   -0.0610373021
      9  H         1.7095246869    1.8929214665   -0.2962162133
     10  H         1.9588045191    0.8590630173    1.1193050768
     11  H         2.6776257085    0.4144666114   -0.4373070222
     12  H         0.8667026133   -1.5072935267    1.4556688891
     13  H        -2.1023454485   -1.1489103330    0.3963356248
   Point Group: c1    Number of degrees of freedom:    33


   Energy is   -915.518277128

              Constraints and their Current Values
                                        Value     Constraint
   Distance(Angs):        2   4             1.700008     1.700000
 Hessian Updated using BFGS Update

   Using Lagrange Multiplier Algorithm


 31 Hessian modes will be used to form the next step
  Hessian Eigenvalues:
    -0.880037    0.034297    0.045002    0.045056    0.064456    0.076857
     0.077370    0.081772    0.083409    0.083991    0.094036    0.129714
     0.144268    0.159603    0.160498    0.174998    0.203105    0.218443
     0.225577    0.239942    0.263325    0.264669    0.292943    0.298936
     0.340547    0.341275    0.341364    0.341481    0.341675    0.341965
     1.139558

 Minimum Search - Taking P-RFO Step
 Searching for Lamda that Maximizes Along the Constraint modes Only
 Value Taken    Lamda =   0.00000017
 Searching for Lamda that Minimizes Along All other modes
 Value Taken    Lamda =  -0.00052356
 Step Taken.  Stepsize is  0.107920

                             Maximum     Tolerance    Cnvgd?
         Gradient            0.002261       0.000300      NO
         Displacement        0.045343       0.001200      NO
         Energy change     -0.000931       0.000001      NO


 New Cartesian Coordinates Obtained by Inverse Iteration

 Displacement from previous Coordinates is:  0.151386
 ----------------------------------------------------------------
             Standard Nuclear Orientation (Angstroms)
    I     Atom           X                Y                Z
 ----------------------------------------------------------------
    1      S       0.6881005226    -1.7228972789     0.1457794055
    2      S      -2.2545491457     0.1082526696    -0.1184193219
    3      C       0.5253787827     0.0659253611    -0.3104284260
    4      C      -0.7294735342     0.7256877295     0.3092710409
    5      C       1.7942611493     0.8537107041     0.0310364120
    6      H       0.3945687363     0.0330528742    -1.3973902638
    7      H      -0.5768230507     0.7850251146     1.3965846971
    8      H      -0.7376177629     1.7671127989    -0.0390733714
    9      H       1.7007421630     1.8908993256    -0.3120955687
   10      H       1.9662397633     0.8730505284     1.1127089853
   11      H       2.6715801810     0.4096310842    -0.4440989411
   12      H       0.8943178814    -1.5175332726     1.4645731029
   13      H      -2.0970256861    -1.1469176390     0.3505522491
 ----------------------------------------------------------------
 Nuclear Repulsion Energy =   290.0769041497 hartrees
 There are       29 alpha and       29 beta electrons

                       Distance Matrix (Angstroms)
             S (  1)   S (  2)   C (  3)   C (  4)   C (  5)   H (  6)
   S (  2)  3.475931
   C (  3)  1.853238  2.786873
   C (  4)  2.834046  1.700000  1.547245
   C (  5)  2.806362  4.119576  1.532079  2.542251
   H (  6)  2.356034  2.942660  1.095298  2.157755  2.161717
   H (  7)  3.074772  2.359666  2.155423  1.099579  2.737057  3.052108
   H (  8)  3.774522  2.249265  2.136079  1.098170  2.692514  2.476658
   H (  9)  3.780822  4.342772  2.170717  2.765820  1.096470  2.517051
   H ( 10)  3.050826  4.462696  2.180104  2.816753  1.095430  3.078367
   H ( 11)  2.971502  4.946074  2.177655  3.497803  1.092085  2.497070
   H ( 12)  1.350525  3.881290  2.407091  3.000577  2.913370  3.293160
   H ( 13)  2.851423  1.349148  2.963931  2.319171  4.387108  3.264303
             H (  7)   H (  8)   H (  9)   H ( 10)   H ( 11)   H ( 12)
   H (  8)  1.746844
   H (  9)  3.054480  2.456718
   H ( 10)  2.560372  3.071937  1.771037
   H ( 11)  3.752487  3.691806  1.775981  1.770851
   H ( 12)  2.733250  3.963971  3.927376  2.643429  3.242785
   H ( 13)  2.671629  3.239039  4.908205  4.601226  5.078771  3.213493

 
 Applying Cartesian multipole field
    Component          Value
    ---------          -----
     (2,0,0)        1.00000E-11
     (0,2,0)        2.00000E-11
     (0,0,2)       -3.00000E-10
 Nucleus-field energy     =    -0.0000000006 hartrees
 Requested basis set is 6-31G(d,p)
 There are 46 shells and 123 basis functions
 A cutoff of  1.0D-14 yielded   1032 shell pairs
 There are      7538 function pairs
 Smallest overlap matrix eigenvalue = 5.42E-03
 Guess from superposition of atomic densities
 Warning:  Energy on first SCF cycle will be non-variational
 SAD guess density has 58.000000 electrons

 -----------------------------------------------------------------------
  General SCF calculation program by
  Eric Jon Sundstrom, Paul Horn, Yuezhi Mao, Dmitri Zuev, Alec White,
  David Stuck, Shaama M.S., Shane Yost, Joonho Lee, David Small,
  Daniel Levine, Susi Lehtola, Hugh Burton, Evgeny Epifanovsky
 -----------------------------------------------------------------------
 Exchange:     0.2000 Hartree-Fock + 0.0800 Slater + 0.7200 B88
 Correlation:  0.1900 VWN1RPA + 0.8100 LYP
 Using SG-1 standard quadrature grid
 using 12 threads for integral computing
 -------------------------------------------------------
 OpenMP Integral computing Module                
 Release: version 1.0, May 2013, Q-Chem Inc. Pittsburgh 
 -------------------------------------------------------
 -------------------------------------------------------
 OpenMP BLAS3 based DFT computing Module                
 Release: version 1.0, May 2013, Q-Chem Inc. Pittsburgh 
 -------------------------------------------------------
 A unrestricted SCF calculation will be
 performed using DIIS
 SCF converges when DIIS error is below 1.0e-06
 Alpha HF Exchange    Energy =  -6.87480789617212
 Beta HF Exchange     Energy =  -6.87480789617212
 DFT Correlation      Energy =  -2.71809810382210
 DFT Exchange         Energy = -53.90674455765857
 One-Electron (alpha) Energy = -915.94914839237890
 One-Electron (beta)  Energy = -915.94914839237890
 Total Coulomb        Energy = 695.93839250401254
 ---------------------------------------
  Cycle       Energy         DIIS error
 ---------------------------------------
    1    -916.2574585854      2.92e-02  
 Alpha HF Exchange    Energy =  -6.87218606236488
 Beta HF Exchange     Energy =  -6.87218606236488
 DFT Correlation      Energy =  -2.74531486968589
 DFT Exchange         Energy = -54.52010942936299
 One-Electron (alpha) Energy = -920.03240588540712
 One-Electron (beta)  Energy = -920.03240588540723
 Total Coulomb        Energy = 705.54993613701083
    2    -915.4477679084      2.90e-03  
 Alpha HF Exchange    Energy =  -6.81634503525309
 Beta HF Exchange     Energy =  -6.81634503525309
 DFT Correlation      Energy =  -2.71890080794748
 DFT Exchange         Energy = -54.04864939310205
 One-Electron (alpha) Energy = -915.69761156045831
 One-Electron (beta)  Energy = -915.69761156045831
 Total Coulomb        Energy = 696.29141089942323
    3    -915.4271483439      3.33e-03  
 Alpha HF Exchange    Energy =  -6.84264697332776
 Beta HF Exchange     Energy =  -6.84264697332776
 DFT Correlation      Energy =  -2.73238222608613
 DFT Exchange         Energy = -54.27003814186804
 One-Electron (alpha) Energy = -917.93227056466742
 One-Electron (beta)  Energy = -917.93227056466765
 Total Coulomb        Energy = 700.95863206284923
    4    -915.5167192319      4.67e-04  
 Alpha HF Exchange    Energy =  -6.84392973876829
 Beta HF Exchange     Energy =  -6.84392973876830
 DFT Correlation      Energy =  -2.73239699064433
 DFT Exchange         Energy = -54.27904839660126
 One-Electron (alpha) Energy = -917.95287864680427
 One-Electron (beta)  Energy = -917.95287864680483
 Total Coulomb        Energy = 701.00970203526265
    5    -915.5184559740      1.42e-04  
 Alpha HF Exchange    Energy =  -6.84381411049102
 Beta HF Exchange     Energy =  -6.84381411049102
 DFT Correlation      Energy =  -2.73239291262910
 DFT Exchange         Energy = -54.27831823512241
 One-Electron (alpha) Energy = -917.95395796817490
 One-Electron (beta)  Energy = -917.95395796817525
 Total Coulomb        Energy = 701.01075210443366
    6    -915.5185990515      3.63e-05  
 Alpha HF Exchange    Energy =  -6.84365238042564
 Beta HF Exchange     Energy =  -6.84365238042563
 DFT Correlation      Energy =  -2.73233591091619
 DFT Exchange         Energy = -54.27695542761727
 One-Electron (alpha) Energy = -917.93784182149125
 One-Electron (beta)  Energy = -917.93784182149102
 Total Coulomb        Energy = 700.97676695746622
    7    -915.5186086357      8.01e-06  
 Alpha HF Exchange    Energy =  -6.84370745792854
 Beta HF Exchange     Energy =  -6.84370745792853
 DFT Correlation      Energy =  -2.73235737168769
 DFT Exchange         Energy = -54.27739173023525
 One-Electron (alpha) Energy = -917.94407295844212
 One-Electron (beta)  Energy = -917.94407295844178
 Total Coulomb        Energy = 700.98979662749059
    8    -915.5186091580      1.73e-06  
 Alpha HF Exchange    Energy =  -6.84370457428265
 Beta HF Exchange     Energy =  -6.84370457428266
 DFT Correlation      Energy =  -2.73235589547092
 DFT Exchange         Energy = -54.27736668270829
 One-Electron (alpha) Energy = -917.94363221041147
 One-Electron (beta)  Energy = -917.94363221041203
 Total Coulomb        Energy = 700.98888281729307
    9    -915.5186091811      4.79e-07  Convergence criterion met
 ---------------------------------------
 SCF time:   CPU 28.85s  wall 2.00s 
<S^2> =          0.000000000
 Alpha HF Exchange    Energy =  -6.84370457428265
 Beta HF Exchange     Energy =  -6.84370457428266
 DFT Correlation      Energy =  -2.73235589547092
 DFT Exchange         Energy = -54.27736668270829
 One-Electron (alpha) Energy = -917.94363221041147
 One-Electron (beta)  Energy = -917.94363221041203
 Total Coulomb        Energy = 700.98888281729307
 Nuclear repulsion Energy = 290.07690414916448
 SCF   energy in the final basis set =     -915.5186091811
 Total energy in the final basis set =     -915.5186091811
 
 --------------------------------------------------------------
 
                    Orbital Energies (a.u.)
 --------------------------------------------------------------
 
 Alpha MOs
 -- Occupied --
-88.880 -88.870 -10.238 -10.222 -10.195  -7.942  -7.935  -5.907
 -5.904  -5.900  -5.897  -5.896  -5.890  -0.845  -0.776  -0.713
 -0.651  -0.588  -0.489  -0.452  -0.430  -0.426  -0.400  -0.384
 -0.359  -0.332  -0.319  -0.247  -0.236
 -- Virtual --
  0.019   0.043   0.064   0.087   0.102   0.118   0.135   0.153
  0.168   0.173   0.198   0.216   0.326   0.340   0.355   0.365
  0.371   0.389   0.401   0.439   0.501   0.519   0.542   0.574
  0.583   0.644   0.661   0.690   0.722   0.748   0.759   0.768
  0.802   0.814   0.835   0.848   0.873   0.884   0.891   0.929
  0.942   0.962   0.997   1.056   1.089   1.122   1.169   1.189
  1.385   1.387   1.405   1.573   1.611   1.719   1.777   1.816
  1.854   1.922   2.030   2.049   2.061   2.081   2.092   2.094
  2.112   2.122   2.169   2.208   2.250   2.291   2.357   2.436
  2.489   2.580   2.614   2.644   2.713   2.725   2.739   2.767
  2.823   2.862   2.887   3.179   3.238   3.312   3.430   3.447
  3.475   3.970   4.012   4.269   4.451   4.592
 
 Beta MOs
 -- Occupied --
-88.880 -88.870 -10.238 -10.222 -10.195  -7.942  -7.935  -5.907
 -5.904  -5.900  -5.897  -5.896  -5.890  -0.845  -0.776  -0.713
 -0.651  -0.588  -0.489  -0.452  -0.430  -0.426  -0.400  -0.384
 -0.359  -0.332  -0.319  -0.247  -0.236
 -- Virtual --
  0.019   0.043   0.064   0.087   0.102   0.118   0.135   0.153
  0.168   0.173   0.198   0.216   0.326   0.340   0.355   0.365
  0.371   0.389   0.401   0.439   0.501   0.519   0.542   0.574
  0.583   0.644   0.661   0.690   0.722   0.748   0.759   0.768
  0.802   0.814   0.835   0.848   0.873   0.884   0.891   0.929
  0.942   0.962   0.997   1.056   1.089   1.122   1.169   1.189
  1.385   1.387   1.405   1.573   1.611   1.719   1.777   1.816
  1.854   1.922   2.030   2.049   2.061   2.081   2.092   2.094
  2.112   2.122   2.169   2.208   2.250   2.291   2.357   2.436
  2.489   2.580   2.614   2.644   2.713   2.725   2.739   2.767
  2.823   2.862   2.887   3.179   3.238   3.312   3.430   3.447
  3.475   3.970   4.012   4.269   4.451   4.592
 --------------------------------------------------------------
 
          Ground-State Mulliken Net Atomic Charges

     Atom                 Charge (a.u.)    Spin (a.u.)
  --------------------------------------------------------
      1 S                    -0.048098       0.000000
      2 S                    -0.023123      -0.000000
      3 C                    -0.212249      -0.000000
      4 C                    -0.317281      -0.000000
      5 C                    -0.308492       0.000000
      6 H                     0.150533       0.000000
      7 H                     0.128772       0.000000
      8 H                     0.142141       0.000000
      9 H                     0.111098       0.000000
     10 H                     0.110095      -0.000000
     11 H                     0.131153      -0.000000
     12 H                     0.057350       0.000000
     13 H                     0.078101       0.000000
  --------------------------------------------------------
  Sum of atomic charges =     0.000000
  Sum of spin   charges =    -0.000000

 -----------------------------------------------------------------
                    Cartesian Multipole Moments
 -----------------------------------------------------------------
    Charge (ESU x 10^10)
                 0.0000
    Dipole Moment (Debye)
         X       1.5542      Y       1.2892      Z       1.0144
       Tot       2.2598
    Quadrupole Moments (Debye-Ang)
        XX     -52.1688     XY       2.9668     YY     -47.7116
        XZ      -0.1126     YZ      -2.0305     ZZ     -45.2580
    Octopole Moments (Debye-Ang^2)
       XXX      38.7709    XXY       6.5738    XYY       4.0557
       YYY      38.4407    XXZ      -1.2233    XYZ      -0.4490
       YYZ       0.1791    XZZ      13.9791    YZZ       7.4255
       ZZZ      -3.3503
    Hexadecapole Moments (Debye-Ang^3)
      XXXX    -738.6315   XXXY      54.4473   XXYY    -180.9975
      XYYY      30.4238   YYYY    -381.5801   XXXZ      -7.3910
      XXYZ      -1.9058   XYYZ       0.9199   YYYZ       0.0745
      XXZZ    -139.1946   XYZZ       6.8778   YYZZ     -74.5674
      XZZZ      -8.6312   YZZZ       7.1503   ZZZZ     -92.3625
 -----------------------------------------------------------------
 Calculating analytic gradient of the SCF energy
 Gradient of SCF Energy
            1           2           3           4           5           6
    1   0.0002571   0.0561170  -0.0000231  -0.0571625   0.0009070   0.0001120
    2  -0.0000637   0.0223260  -0.0007021  -0.0227329   0.0003301   0.0010483
    3  -0.0004569   0.0154112   0.0002531  -0.0152617   0.0002471  -0.0000381
            7           8           9          10          11          12
    1   0.0013814  -0.0001895  -0.0000954  -0.0001406  -0.0001293  -0.0006403
    2   0.0003358  -0.0004074  -0.0000032  -0.0001616  -0.0000237  -0.0000110
    3   0.0000350  -0.0007574   0.0000165  -0.0000345  -0.0000406   0.0001951
           13
    1  -0.0003936
    2   0.0000655
    3   0.0004311
 Max gradient component =       5.716E-02
 RMS gradient           =       1.424E-02
 Gradient time:  CPU 11.93 s  wall 1.05 s
 Geometry Optimization Parameters
   NAtoms,    NIC,     NZ,  NCons,   NDum,   NFix, NCnnct, MaxDiis
       13      82       0       1       0       0       0       0

 Cartesian Hessian Update
 Hessian Updated using BFGS Update


** CONSTRAINED OPTIMIZATION IN DELOCALIZED INTERNAL COORDINATES **
   Searching for a Minimum

   Optimization Cycle:   4

                       Coordinates (Angstroms)
     ATOM                X               Y               Z
      1  S         0.6881005226   -1.7228972789    0.1457794055
      2  S        -2.2545491457    0.1082526696   -0.1184193219
      3  C         0.5253787827    0.0659253611   -0.3104284260
      4  C        -0.7294735342    0.7256877295    0.3092710409
      5  C         1.7942611493    0.8537107041    0.0310364120
      6  H         0.3945687363    0.0330528742   -1.3973902638
      7  H        -0.5768230507    0.7850251146    1.3965846971
      8  H        -0.7376177629    1.7671127989   -0.0390733714
      9  H         1.7007421630    1.8908993256   -0.3120955687
     10  H         1.9662397633    0.8730505284    1.1127089853
     11  H         2.6715801810    0.4096310842   -0.4440989411
     12  H         0.8943178814   -1.5175332726    1.4645731029
     13  H        -2.0970256861   -1.1469176390    0.3505522491
   Point Group: c1    Number of degrees of freedom:    33


   Energy is   -915.518609181

              Constraints and their Current Values
                                        Value     Constraint
   Distance(Angs):        2   4             1.700000     1.700000
 Hessian Updated using BFGS Update

 31 Hessian modes will be used to form the next step
  Hessian Eigenvalues:
     0.019742    0.045000    0.045003    0.045071    0.074662    0.077254
     0.078056    0.081804    0.083488    0.085695    0.094203    0.134658
     0.145708    0.159880    0.160016    0.161721    0.183326    0.202249
     0.212312    0.224466    0.240843    0.263270    0.264625    0.293039
     0.295856    0.341206    0.341270    0.341369    0.341563    0.341752
     0.343365

 Minimum Search - Taking Simple RFO Step
 Searching for Lamda that Minimizes Along All modes
 Value Taken    Lamda =  -0.00019347
 Step Taken.  Stepsize is  0.090664

                             Maximum     Tolerance    Cnvgd?
         Gradient           0.001195      0.000300      NO
         Displacement       0.041270      0.001200      NO
         Energy change     -0.000332      0.000001      NO


 New Cartesian Coordinates Obtained by Inverse Iteration

 Displacement from previous Coordinates is:  0.145557
 ----------------------------------------------------------------
             Standard Nuclear Orientation (Angstroms)
    I     Atom           X                Y                Z
 ----------------------------------------------------------------
    1      S       0.6816887914    -1.7219730333     0.1609440952
    2      S      -2.2555105154     0.1204610528    -0.1300035077
    3      C       0.5220744668     0.0654619439    -0.3010673606
    4      C      -0.7323020500     0.7272889293     0.3189916145
    5      C       1.7921500789     0.8521797226     0.0259152741
    6      H       0.3836550192     0.0185709126    -1.3869981054
    7      H      -0.5906090914     0.7816321673     1.4082939023
    8      H      -0.7320337176     1.7739698039    -0.0161273236
    9      H       1.6979595215     1.8860762759    -0.3257568452
   10      H       1.9719103441     0.8815825310     1.1063937121
   11      H       2.6661016832     0.4015341931    -0.4495457925
   12      H       0.9288601730    -1.5155585491     1.4722216219
   13      H      -2.0942447036    -1.1462259499     0.3057387149
 ----------------------------------------------------------------
 Nuclear Repulsion Energy =   290.0926431070 hartrees
 There are       29 alpha and       29 beta electrons

                       Distance Matrix (Angstroms)
             S (  1)   S (  2)   C (  3)   C (  4)   C (  5)   H (  6)
   S (  2)  3.479419
   C (  3)  1.853066  2.783391
   C (  4)  2.832531  1.700000  1.547885
   C (  5)  2.806710  4.116221  1.529358  2.544474
   H (  6)  2.348285  2.924998  1.095721  2.158250  2.162195
   H (  7)  3.072892  2.361229  2.161685  1.099823  2.755629  3.056977
   H (  8)  3.775127  2.251231  2.138452  1.099020  2.687558  2.491079
   H (  9)  3.779908  4.334241  2.167476  2.768512  1.096124  2.518175
   H ( 10)  3.055658  4.469795  2.179225  2.820740  1.095724  3.079667
   H ( 11)  2.969827  4.939977  2.175280  3.499416  1.092216  2.497006
   H ( 12)  1.350240  3.922232  2.410322  3.019895  2.905728  3.290280
   H ( 13)  2.838707  1.349212  2.946443  2.316273  4.379040  3.219021
             H (  7)   H (  8)   H (  9)   H ( 10)   H ( 11)   H ( 12)
   H (  8)  1.741755
   H (  9)  3.076406  2.452204
   H ( 10)  2.582177  3.060673  1.770625
   H ( 11)  3.768582  3.690360  1.776651  1.770112
   H ( 12)  2.754988  3.974261  3.923692  2.639710  3.222800
   H ( 13)  2.682011  3.238327  4.896372  4.613748  5.062303  3.261327

 
 Applying Cartesian multipole field
    Component          Value
    ---------          -----
     (2,0,0)        1.00000E-11
     (0,2,0)        2.00000E-11
     (0,0,2)       -3.00000E-10
 Nucleus-field energy     =    -0.0000000007 hartrees
 Requested basis set is 6-31G(d,p)
 There are 46 shells and 123 basis functions
 A cutoff of  1.0D-14 yielded   1032 shell pairs
 There are      7538 function pairs
 Smallest overlap matrix eigenvalue = 5.41E-03
 Guess from superposition of atomic densities
 Warning:  Energy on first SCF cycle will be non-variational
 SAD guess density has 58.000000 electrons

 -----------------------------------------------------------------------
  General SCF calculation program by
  Eric Jon Sundstrom, Paul Horn, Yuezhi Mao, Dmitri Zuev, Alec White,
  David Stuck, Shaama M.S., Shane Yost, Joonho Lee, David Small,
  Daniel Levine, Susi Lehtola, Hugh Burton, Evgeny Epifanovsky
 -----------------------------------------------------------------------
 Exchange:     0.2000 Hartree-Fock + 0.0800 Slater + 0.7200 B88
 Correlation:  0.1900 VWN1RPA + 0.8100 LYP
 Using SG-1 standard quadrature grid
 using 12 threads for integral computing
 -------------------------------------------------------
 OpenMP Integral computing Module                
 Release: version 1.0, May 2013, Q-Chem Inc. Pittsburgh 
 -------------------------------------------------------
 -------------------------------------------------------
 OpenMP BLAS3 based DFT computing Module                
 Release: version 1.0, May 2013, Q-Chem Inc. Pittsburgh 
 -------------------------------------------------------
 A unrestricted SCF calculation will be
 performed using DIIS
 SCF converges when DIIS error is below 1.0e-06
 Alpha HF Exchange    Energy =  -6.87497202152307
 Beta HF Exchange     Energy =  -6.87497202152307
 DFT Correlation      Energy =  -2.71813460952733
 DFT Exchange         Energy = -53.90705612950153
 One-Electron (alpha) Energy = -915.96468439825139
 One-Electron (beta)  Energy = -915.96468439825139
 Total Coulomb        Energy = 695.95262044849574
 ---------------------------------------
  Cycle       Energy         DIIS error
 ---------------------------------------
    1    -916.2592400238      2.92e-02  
 Alpha HF Exchange    Energy =  -6.87220708560910
 Beta HF Exchange     Energy =  -6.87220708560911
 DFT Correlation      Energy =  -2.74535333515794
 DFT Exchange         Energy = -54.52028965516827
 One-Electron (alpha) Energy = -920.04783298946938
 One-Electron (beta)  Energy = -920.04783298946938
 Total Coulomb        Energy = 705.56505373311893
    2    -915.4480263011      2.89e-03  
 Alpha HF Exchange    Energy =  -6.81638043830662
 Beta HF Exchange     Energy =  -6.81638043830661
 DFT Correlation      Energy =  -2.71894573526865
 DFT Exchange         Energy = -54.04895352494795
 One-Electron (alpha) Energy = -915.71223822664774
 One-Electron (beta)  Energy = -915.71223822664763
 Total Coulomb        Energy = 696.30507798631845
    3    -915.4274154975      3.33e-03  
 Alpha HF Exchange    Energy =  -6.84267334681077
 Beta HF Exchange     Energy =  -6.84267334681076
 DFT Correlation      Energy =  -2.73242547160213
 DFT Exchange         Energy = -54.27026609748701
 One-Electron (alpha) Energy = -917.94762764899156
 One-Electron (beta)  Energy = -917.94762764899122
 Total Coulomb        Energy = 700.97379415731029
    4    -915.5168562971      4.67e-04  
 Alpha HF Exchange    Energy =  -6.84395468417722
 Beta HF Exchange     Energy =  -6.84395468417722
 DFT Correlation      Energy =  -2.73243934407709
 DFT Exchange         Energy = -54.27926271360689
[...]
    2      S      -2.2588562677     0.1588609677    -0.1664570198
    3      C       0.5120103484     0.0590343287    -0.2903433535
    4      C      -0.7360285497     0.7250059173     0.3340191114
    5      C       1.7871284037     0.8485702641     0.0137088893
    6      H       0.3641120070    -0.0042144610    -1.3735878566
    7      H      -0.6228475964     0.7157616983     1.4269751777
    8      H      -0.7109626715     1.7855797312     0.0501911138
    9      H       1.6985832448     1.8729539507    -0.3666241233
   10      H       1.9675110466     0.9080927431     1.0928748161
   11      H       2.6592849691     0.3821804399    -0.4499404286
   12      H       1.0229146154    -1.4808267978     1.4869677198
   13      H      -2.1180283812    -1.1248219150     0.2257540981
 ----------------------------------------------------------------
 Nuclear Repulsion Energy =   289.9253422921 hartrees
 There are       29 alpha and       29 beta electrons

                       Distance Matrix (Angstroms)
             S (  1)   S (  2)   C (  3)   C (  4)   C (  5)   H (  6)
   S (  2)  3.504236
   C (  3)  1.855128  2.775431
   C (  4)  2.826835  1.700000  1.546269
   C (  5)  2.806683  4.108303  1.530275  2.546407
   H (  6)  2.353282  2.892010  1.095122  2.158238  2.162593
   H (  7)  3.019082  2.350678  2.160643  1.098840  2.796953  3.055423
   H (  8)  3.773858  2.255909  2.143032  1.098182  2.668291  2.527112
   H (  9)  3.780612  4.317350  2.168889  2.781370  1.096292  2.513673
   H ( 10)  3.061284  4.473192  2.180063  2.813985  1.095755  3.080038
   H ( 11)  2.965052  4.931364  2.177311  3.501468  1.092313  2.504046
   H ( 12)  1.349502  4.023979  2.406456  3.047765  2.860176  3.285907
   H ( 13)  2.855938  1.349631  2.930013  2.311603  4.380581  3.158271
             H (  7)   H (  8)   H (  9)   H ( 10)   H ( 11)   H ( 12)
   H (  8)  1.745798
   H (  9)  3.153591  2.446892
   H ( 10)  2.618888  3.005228  1.770146
   H ( 11)  3.795587  3.684865  1.775470  1.770710
   H ( 12)  2.745384  3.967376  3.891038  2.598944  3.146445
   H ( 13)  2.658241  3.237452  4.889182  4.645027  5.054735  3.403369

 
 Applying Cartesian multipole field
    Component          Value
    ---------          -----
     (2,0,0)        1.00000E-11
     (0,2,0)        2.00000E-11
     (0,0,2)       -3.00000E-10
 Nucleus-field energy     =    -0.0000000012 hartrees
 Requested basis set is 6-31G(d,p)
 There are 46 shells and 123 basis functions
 A cutoff of  1.0D-14 yielded   1032 shell pairs
 There are      7538 function pairs
 Smallest overlap matrix eigenvalue = 5.39E-03
 Guess from superposition of atomic densities
 Warning:  Energy on first SCF cycle will be non-variational
 SAD guess density has 58.000000 electrons

 -----------------------------------------------------------------------
  General SCF calculation program by
  Eric Jon Sundstrom, Paul Horn, Yuezhi Mao, Dmitri Zuev, Alec White,
  David Stuck, Shaama M.S., Shane Yost, Joonho Lee, David Small,
  Daniel Levine, Susi Lehtola, Hugh Burton, Evgeny Epifanovsky
 -----------------------------------------------------------------------
 Exchange:     0.2000 Hartree-Fock + 0.0800 Slater + 0.7200 B88
 Correlation:  0.1900 VWN1RPA + 0.8100 LYP
 Using SG-1 standard quadrature grid
 using 12 threads for integral computing
 -------------------------------------------------------
 OpenMP Integral computing Module                
 Release: version 1.0, May 2013, Q-Chem Inc. Pittsburgh 
 -------------------------------------------------------
 -------------------------------------------------------
 OpenMP BLAS3 based DFT computing Module                
 Release: version 1.0, May 2013, Q-Chem Inc. Pittsburgh 
 -------------------------------------------------------
 A unrestricted SCF calculation will be
 performed using DIIS
 SCF converges when DIIS error is below 1.0e-06
 Alpha HF Exchange    Energy =  -6.87506988806152
 Beta HF Exchange     Energy =  -6.87506988806152
 DFT Correlation      Energy =  -2.71815540175321
 DFT Exchange         Energy = -53.90721251372631
 One-Electron (alpha) Energy = -915.79651810021801
 One-Electron (beta)  Energy = -915.79651810021801
 Total Coulomb        Energy = 695.78369883055586
 ---------------------------------------
  Cycle       Energy         DIIS error
 ---------------------------------------
    1    -916.2595027705      2.92e-02  
 Alpha HF Exchange    Energy =  -6.87231026565282
 Beta HF Exchange     Energy =  -6.87231026565282
 DFT Correlation      Energy =  -2.74535828469749
 DFT Exchange         Energy = -54.52097429115054
 One-Electron (alpha) Energy = -919.87908740049897
 One-Electron (beta)  Energy = -919.87908740049863
 Total Coulomb        Energy = 705.39550929583788
    2    -915.4482763214      2.89e-03  
 Alpha HF Exchange    Energy =  -6.81648125769843
 Beta HF Exchange     Energy =  -6.81648125769844
 DFT Correlation      Energy =  -2.71896322766287
 DFT Exchange         Energy = -54.04961492743271
 One-Electron (alpha) Energy = -915.54334299161656
 One-Electron (beta)  Energy = -915.54334299161678
 Total Coulomb        Energy = 696.13515353778007
    3    -915.4277308250      3.33e-03  
 Alpha HF Exchange    Energy =  -6.84275087921271
 Beta HF Exchange     Energy =  -6.84275087921273
 DFT Correlation      Energy =  -2.73242855791325
 DFT Exchange         Energy = -54.27074465292982
 One-Electron (alpha) Energy = -917.77733864778338
 One-Electron (beta)  Energy = -917.77733864778395
 Total Coulomb        Energy = 700.80095796090268
    4    -915.5170520130      4.67e-04  
 Alpha HF Exchange    Energy =  -6.84404721832257
 Beta HF Exchange     Energy =  -6.84404721832257
 DFT Correlation      Energy =  -2.73244908118533
 DFT Exchange         Energy = -54.27986603130145
 One-Electron (alpha) Energy = -917.79887325022719
 One-Electron (beta)  Energy = -917.79887325022685
 Total Coulomb        Energy = 700.85402591953687
    5    -915.5187878391      1.42e-04  
 Alpha HF Exchange    Energy =  -6.84392690951418
 Beta HF Exchange     Energy =  -6.84392690951419
 DFT Correlation      Energy =  -2.73244305458998
 DFT Exchange         Energy = -54.27909791949351
 One-Electron (alpha) Energy = -917.79962644230977
 One-Electron (beta)  Energy = -917.79962644231023
 Total Coulomb        Energy = 700.85437442855243
    6    -915.5189309582      3.62e-05  
 Alpha HF Exchange    Energy =  -6.84376460569716
 Beta HF Exchange     Energy =  -6.84376460569716
 DFT Correlation      Energy =  -2.73238560936163
 DFT Exchange         Energy = -54.27773032815967
 One-Electron (alpha) Energy = -917.78341276901358
 One-Electron (beta)  Energy = -917.78341276901347
 Total Coulomb        Energy = 700.82018792373322
    7    -915.5189404723      8.10e-06  
 Alpha HF Exchange    Energy =  -6.84381983658813
 Beta HF Exchange     Energy =  -6.84381983658814
 DFT Correlation      Energy =  -2.73240716496610
 DFT Exchange         Energy = -54.27816817745394
 One-Electron (alpha) Energy = -917.78966058202411
 One-Electron (beta)  Energy = -917.78966058202434
 Total Coulomb        Energy = 700.83325288173069
    8    -915.5189410070      1.72e-06  
 Alpha HF Exchange    Energy =  -6.84381721289111
 Beta HF Exchange     Energy =  -6.84381721289111
 DFT Correlation      Energy =  -2.73240578068386
 DFT Exchange         Energy = -54.27814511897542
 One-Electron (alpha) Energy = -917.78924977251268
 One-Electron (beta)  Energy = -917.78924977251256
 Total Coulomb        Energy = 700.83240154984662
    9    -915.5189410297      4.82e-07  Convergence criterion met
 ---------------------------------------
 SCF time:   CPU 29.27s  wall 2.00s 
<S^2> =         -0.000000000
 Alpha HF Exchange    Energy =  -6.84381721289111
 Beta HF Exchange     Energy =  -6.84381721289111
 DFT Correlation      Energy =  -2.73240578068386
 DFT Exchange         Energy = -54.27814511897542
 One-Electron (alpha) Energy = -917.78924977251268
 One-Electron (beta)  Energy = -917.78924977251256
 Total Coulomb        Energy = 700.83240154984662
 Nuclear repulsion Energy = 289.92534229094696
 SCF   energy in the final basis set =     -915.5189410297
 Total energy in the final basis set =     -915.5189410297
 
 --------------------------------------------------------------
 
                    Orbital Energies (a.u.)
 --------------------------------------------------------------
 
 Alpha MOs
 -- Occupied --
-88.880 -88.870 -10.238 -10.222 -10.195  -7.943  -7.935  -5.908
 -5.904  -5.900  -5.897  -5.896  -5.889  -0.845  -0.776  -0.714
 -0.651  -0.589  -0.488  -0.452  -0.433  -0.425  -0.400  -0.383
 -0.359  -0.333  -0.319  -0.248  -0.235
 -- Virtual --
  0.018   0.044   0.064   0.086   0.103   0.119   0.133   0.152
  0.166   0.173   0.198   0.217   0.328   0.341   0.356   0.365
  0.371   0.391   0.399   0.437   0.501   0.520   0.538   0.577
  0.581   0.639   0.659   0.689   0.720   0.742   0.763   0.771
  0.804   0.811   0.835   0.850   0.874   0.884   0.890   0.930
  0.942   0.967   0.999   1.055   1.082   1.127   1.165   1.192
  1.378   1.384   1.409   1.573   1.615   1.719   1.776   1.817
  1.854   1.922   2.031   2.053   2.058   2.085   2.089   2.093
  2.111   2.130   2.169   2.206   2.249   2.289   2.353   2.433
  2.499   2.578   2.605   2.646   2.713   2.726   2.741   2.767
  2.824   2.863   2.887   3.179   3.240   3.310   3.430   3.448
  3.475   3.972   4.010   4.267   4.451   4.590
 
 Beta MOs
 -- Occupied --
-88.880 -88.870 -10.238 -10.222 -10.195  -7.943  -7.935  -5.908
 -5.904  -5.900  -5.897  -5.896  -5.889  -0.845  -0.776  -0.714
 -0.651  -0.589  -0.488  -0.452  -0.433  -0.425  -0.400  -0.383
 -0.359  -0.333  -0.319  -0.248  -0.235
 -- Virtual --
  0.018   0.044   0.064   0.086   0.103   0.119   0.133   0.152
  0.166   0.173   0.198   0.217   0.328   0.341   0.356   0.365
  0.371   0.391   0.399   0.437   0.501   0.520   0.538   0.577
  0.581   0.639   0.659   0.689   0.720   0.742   0.763   0.771
  0.804   0.811   0.835   0.850   0.874   0.884   0.890   0.930
  0.942   0.967   0.999   1.055   1.082   1.127   1.165   1.192
  1.378   1.384   1.409   1.573   1.615   1.719   1.776   1.817
  1.854   1.922   2.031   2.053   2.058   2.085   2.089   2.093
  2.111   2.130   2.169   2.206   2.249   2.289   2.353   2.433
  2.499   2.578   2.605   2.646   2.713   2.726   2.741   2.767
  2.824   2.863   2.887   3.179   3.240   3.310   3.430   3.448
  3.475   3.972   4.010   4.267   4.451   4.590
 --------------------------------------------------------------
 
          Ground-State Mulliken Net Atomic Charges

     Atom                 Charge (a.u.)    Spin (a.u.)
  --------------------------------------------------------
      1 S                    -0.048728       0.000000
      2 S                    -0.027558       0.000000
      3 C                    -0.213707       0.000000
      4 C                    -0.313770      -0.000000
      5 C                    -0.311345      -0.000000
      6 H                     0.152144      -0.000000
      7 H                     0.130401      -0.000000
      8 H                     0.140817       0.000000
      9 H                     0.112819      -0.000000
     10 H                     0.110096       0.000000
     11 H                     0.131614       0.000000
     12 H                     0.058181      -0.000000
     13 H                     0.079035       0.000000
  --------------------------------------------------------
  Sum of atomic charges =    -0.000000
  Sum of spin   charges =     0.000000

 -----------------------------------------------------------------
                    Cartesian Multipole Moments
 -----------------------------------------------------------------
    Charge (ESU x 10^10)
                 0.0000
    Dipole Moment (Debye)
         X       1.6556      Y       1.2530      Z       0.9883
       Tot       2.2995
    Quadrupole Moments (Debye-Ang)
        XX     -51.8869     XY       3.0128     YY     -47.7845
        XZ       0.1808     YZ      -1.5462     ZZ     -45.4466
    Octopole Moments (Debye-Ang^2)
       XXX      40.3797    XXY       5.2608    XYY       4.6470
       YYY      37.2356    XXZ      -1.2233    XYZ      -1.5549
       YYZ      -0.5553    XZZ      14.6882    YZZ       6.8767
       ZZZ      -3.6082
    Hexadecapole Moments (Debye-Ang^3)
      XXXX    -738.4773   XXXY      58.6830   XXYY    -180.6031
      XYYY      34.6148   YYYY    -381.1722   XXXZ     -11.5097
      XXYZ       0.2720   XYYZ       0.0594   YYYZ       5.2291
      XXZZ    -139.4341   XYZZ       8.1896   YYZZ     -75.3052
      XZZZ     -14.1625   YZZZ      11.1800   ZZZZ     -95.6274
 -----------------------------------------------------------------
 Calculating analytic gradient of the SCF energy
 Gradient of SCF Energy
            1           2           3           4           5           6
    1  -0.0000138   0.0563282   0.0000368  -0.0563455  -0.0000095   0.0000024
    2   0.0000208   0.0209493  -0.0000106  -0.0209369   0.0000047   0.0000036
    3  -0.0000145   0.0184818  -0.0000162  -0.0185073   0.0000087  -0.0000024
            7           8           9          10          11          12
    1   0.0000033   0.0000069  -0.0000044   0.0000140   0.0000001  -0.0000091
    2  -0.0000156   0.0000122   0.0000092  -0.0000388   0.0000143  -0.0000229
    3   0.0000057   0.0000361   0.0000475   0.0000112  -0.0000122  -0.0000257
           13
    1  -0.0000095
    2   0.0000106
    3  -0.0000126
 Max gradient component =       5.635E-02
 RMS gradient           =       1.424E-02
 Gradient time:  CPU 11.92 s  wall 1.05 s
 Geometry Optimization Parameters
   NAtoms,    NIC,     NZ,  NCons,   NDum,   NFix, NCnnct, MaxDiis
       13      82       0       1       0       0       0       0

 Cartesian Hessian Update
 Hessian Updated using BFGS Update


** CONSTRAINED OPTIMIZATION IN DELOCALIZED INTERNAL COORDINATES **
   Searching for a Minimum

   Optimization Cycle:  13

                       Coordinates (Angstroms)
     ATOM                X               Y               Z
      1  S         0.6748788316   -1.7211768673    0.2054618559
      2  S        -2.2588562677    0.1588609677   -0.1664570198
      3  C         0.5120103484    0.0590343287   -0.2903433535
      4  C        -0.7360285497    0.7250059173    0.3340191114
      5  C         1.7871284037    0.8485702641    0.0137088893
      6  H         0.3641120070   -0.0042144610   -1.3735878566
      7  H        -0.6228475964    0.7157616983    1.4269751777
      8  H        -0.7109626715    1.7855797312    0.0501911138
      9  H         1.6985832448    1.8729539507   -0.3666241233
     10  H         1.9675110466    0.9080927431    1.0928748161
     11  H         2.6592849691    0.3821804399   -0.4499404286
     12  H         1.0229146154   -1.4808267978    1.4869677198
     13  H        -2.1180283812   -1.1248219150    0.2257540981
   Point Group: c1    Number of degrees of freedom:    33


   Energy is   -915.518941030

              Constraints and their Current Values
                                        Value     Constraint
   Distance(Angs):        2   4             1.700000     1.700000
 Hessian Updated using BFGS Update

 32 Hessian modes will be used to form the next step
  Hessian Eigenvalues:
     0.004671    0.009618    0.022075    0.045019    0.064085    0.075552
     0.077640    0.081766    0.083412    0.084095    0.094071    0.135770
     0.145087    0.159641    0.160364    0.160626    0.161098    0.179405
     0.201851    0.213846    0.228215    0.240548    0.263241    0.264595
     0.287720    0.306118    0.341178    0.341267    0.341311    0.341490
     0.342570    0.343086

 Minimum Search - Taking Simple RFO Step
 Searching for Lamda that Minimizes Along All modes
 Value Taken    Lamda =   0.00000000
 Step Taken.  Stepsize is  0.002158

                             Maximum     Tolerance    Cnvgd?
         Gradient           0.000039      0.000300     YES
         Displacement       0.001260      0.001200      NO
         Energy change     -0.000000      0.000001     YES


                       Distance Matrix (Angstroms)
             S (  1)   S (  2)   C (  3)   C (  4)   C (  5)   H (  6)
   S (  2)  3.504236
   C (  3)  1.855128  2.775431
   C (  4)  2.826835  1.700000  1.546269
   C (  5)  2.806683  4.108303  1.530275  2.546407
   H (  6)  2.353282  2.892010  1.095122  2.158238  2.162593
   H (  7)  3.019082  2.350678  2.160643  1.098840  2.796953  3.055423
   H (  8)  3.773858  2.255909  2.143032  1.098182  2.668291  2.527112
   H (  9)  3.780612  4.317350  2.168889  2.781370  1.096292  2.513673
   H ( 10)  3.061284  4.473192  2.180063  2.813985  1.095755  3.080038
   H ( 11)  2.965052  4.931364  2.177311  3.501468  1.092313  2.504046
   H ( 12)  1.349502  4.023979  2.406456  3.047765  2.860176  3.285907
   H ( 13)  2.855938  1.349631  2.930013  2.311603  4.380581  3.158271
             H (  7)   H (  8)   H (  9)   H ( 10)   H ( 11)   H ( 12)
   H (  8)  1.745798
   H (  9)  3.153591  2.446892
   H ( 10)  2.618888  3.005228  1.770146
   H ( 11)  3.795587  3.684865  1.775470  1.770710
   H ( 12)  2.745384  3.967376  3.891038  2.598944  3.146445
   H ( 13)  2.658241  3.237452  4.889182  4.645027  5.054735  3.403369

 
 Final energy is   -915.518941029673     


 ******************************
 **  OPTIMIZATION CONVERGED  **
 ******************************

                       Coordinates (Angstroms)
     ATOM                X               Y               Z
      1  S         0.6748788316   -1.7211768673    0.2054618559
      2  S        -2.2588562677    0.1588609677   -0.1664570198
      3  C         0.5120103484    0.0590343287   -0.2903433535
      4  C        -0.7360285497    0.7250059173    0.3340191114
      5  C         1.7871284037    0.8485702641    0.0137088893
      6  H         0.3641120070   -0.0042144610   -1.3735878566
      7  H        -0.6228475964    0.7157616983    1.4269751777
      8  H        -0.7109626715    1.7855797312    0.0501911138
      9  H         1.6985832448    1.8729539507   -0.3666241233
     10  H         1.9675110466    0.9080927431    1.0928748161
     11  H         2.6592849691    0.3821804399   -0.4499404286
     12  H         1.0229146154   -1.4808267978    1.4869677198
     13  H        -2.1180283812   -1.1248219150    0.2257540981

Z-matrix Print:
$molecule
0 1
S 
H  1 1.349502
C  1 1.855128 2 96.057548
H  3 1.095122 1 102.755864 2 172.300802 0
C  3 1.530275 1 111.644743 2 54.678777 0
H  5 1.092313 3 111.142215 1 54.824010 0
H  5 1.095755 3 111.154289 1 -65.559973 0
H  5 1.096292 3 110.234916 1 175.080357 0
C  3 1.546269 1 112.101392 2 -71.542739 0
H  9 1.098182 3 107.047476 1 175.880926 0
H  9 1.098840 3 108.352754 1 62.840611 0
S  9 1.700000 3 117.432550 1 -65.914808 0
H  12 1.349631 9 97.916454 3 59.967449 0
$end

PES scan, value:    1.7000 energy: -915.5189410297
------- Summary of potential scan: ------ 
    1.7000      -915.5189410297
----------------------------------------- 
Archival summary:
1\1\hpc0250\JobtypUnspecified\ProcedureUnspecified\6-31G**\238\knomura\WedMar1323:23:572019WedMar1323:23:572019\0\\#,JobtypUnspecified,ProcedureUnspecified,6-31G**,\\0,1\S\H,1,1.3495\C,1,1.85513,2,96.0575\H,3,1.09512,1,102.756,2,172.301,0\C,3,1.53027,1,111.645,2,54.6788,0\H,5,1.09231,3,111.142,1,54.824,0\H,5,1.09576,3,111.154,1,-65.56,0\H,5,1.09629,3,110.235,1,175.08,0\C,3,1.54627,1,112.101,2,-71.5427,0\H,9,1.09818,3,107.047,1,175.881,0\H,9,1.09884,3,108.353,1,62.8406,0\S,9,1.7,3,117.433,1,-65.9148,0\H,12,1.34963,9,97.9165,3,59.9674,0\\\@

 Total job time:  51.82s(wall), 599.09s(cpu) 
 Wed Mar 13 23:23:57 2019

        *************************************************************
        *                                                           *
        *  Thank you very much for using Q-Chem.  Have a nice day.  *
        *                                                           *
        *************************************************************


