
Running Job 1 of 1 thiol/03/C-S.xyz.data/inputs/bond_triplet_4.0.in
qchem thiol/03/C-S.xyz.data/inputs/bond_triplet_4.0.in_29516.0 /staging/scratch/2868767/qchem29516/ 1
/usr/usc/qchem/5.1.1/exe/qcprog.exe_s thiol/03/C-S.xyz.data/inputs/bond_triplet_4.0.in_29516.0 /staging/scratch/2868767/qchem29516/
Check license passed

                  Welcome to Q-Chem
     A Quantum Leap Into The Future Of Chemistry


 Q-Chem 5.1, Q-Chem, Inc., Pleasanton, CA (2018)

 Yihan Shao,  Zhengting Gan,  E. Epifanovsky,  A. T. B. Gilbert,  M. Wormit,  
 J. Kussmann,  A. W. Lange,  A. Behn,  Jia Deng,  Xintian Feng,  D. Ghosh,  
 M. Goldey,  P. R. Horn,  L. D. Jacobson,  I. Kaliman,  T. Kus,  A. Landau,  
 Jie Liu,  E. I. Proynov,  R. M. Richard,  R. P. Steele,  E. J. Sundstrom,  
 H. L. Woodcock III,  P. M. Zimmerman,  D. Zuev,  B. Albrecht,  E. Alguire,  
 S. A. Baeppler,  D. Barton,  Z. Benda,  Y. A. Bernard,  E. J. Berquist,  
 K. B. Bravaya,  H. Burton,  D. Casanova,  Chun-Min Chang,  Yunqing Chen,  
 A. Chien,  K. D. Closser,  M. P. Coons,  S. Coriani,  S. Dasgupta,  
 A. L. Dempwolff,  M. Diedenhofen,  Hainam Do,  R. G. Edgar,  Po-Tung Fang,  
 S. Faraji,  S. Fatehi,  Qingguo Feng,  K. D. Fenk,  J. Fosso-Tande,  
 Qinghui Ge,  A. Ghysels,  G. Gidofalvi,  J. Gomes,  J. Gonthier,  A. Gunina,  
 D. Hait,  M. W. D. Hanson-Heine,  P. H. P. Harbach,  A. W. Hauser,  
 J. E. Herr,  E. G. Hohenstein,  Z. C. Holden,  Kerwin Hui,  B. C. Huynh,  
 T.-C. Jagau,  Hyunjun Ji,  B. Kaduk,  K. Khistyaev,  Jaehoon Kim,  
 P. Klunzinger,  K. Koh,  D. Kosenkov,  L. Koulias,  T. Kowalczyk,  
 C. M. Krauter,  A. Kunitsa,  Ka Un Lao,  A. Laurent,  K. V. Lawler,  
 Joonho Lee,  D. Lefrancois,  S. Lehtola,  D. S. Levine,  Yi-Pei Li,  
 You-Sheng Lin,  Fenglai Liu,  E. Livshits,  A. Luenser,  P. Manohar,  
 E. Mansoor,  S. F. Manzer,  Shan-Ping Mao,  Yuezhi Mao,  N. Mardirossian,  
 A. V. Marenich,  T. Markovich,  L. A. Martinez-Martinez,  S. A. Maurer,  
 N. J. Mayhall,  S. C. McKenzie,  J.-M. Mewes,  A. F. Morrison,  
 J. W. Mullinax,  K. Nanda,  T. S. Nguyen-Beck,  R. Olivares-Amaya,  
 J. A. Parkhill,  T. M. Perrine,  F. Plasser,  P. Pokhilko,  S. Prager,  
 A. Prociuk,  E. Ramos,  D. R. Rehn,  F. Rob,  M. Schneider,  N. Sergueev,  
 S. M. Sharada,  S. Sharma,  D. W. Small,  T. Stauch,  T. Stein,  
 Yu-Chuan Su,  A. J. W. Thom,  A. Tkatchenko,  T. Tsuchimochi,  N. M. Tubman,  
 L. Vogt,  M. L. Vidal,  O. Vydrov,  M. A. Watson,  J. Wenzel,  
 M. de Wergifosse,  T. A. Wesolowski,  A. White,  J. Witte,  A. Yamada,  
 Jun Yang,  K. Yao,  S. Yeganeh,  S. R. Yost,  Zhi-Qiang You,  A. Zech,  
 Igor Ying Zhang,  Xing Zhang,  Yan Zhao,  Ying Zhu,  B. R. Brooks,  
 G. K. L. Chan,  C. J. Cramer,  M. S. Gordon,  W. J. Hehre,  A. Klamt,  
 M. W. Schmidt,  C. D. Sherrill,  D. G. Truhlar,  A. Aspuru-Guzik,  R. Baer,  
 A. T. Bell,  N. A. Besley,  Jeng-Da Chai,  A. E. DePrince, III,  
 R. A. DiStasio Jr.,  A. Dreuw,  B. D. Dunietz,  T. R. Furlani,  
 Chao-Ping Hsu,  Yousung Jung,  Jing Kong,  D. S. Lambrecht,  WanZhen Liang,  
 C. Ochsenfeld,  V. A. Rassolov,  L. V. Slipchenko,  J. E. Subotnik,  
 T. Van Voorhis,  J. M. Herbert,  A. I. Krylov,  P. M. W. Gill,  M. Head-Gordon

 Contributors to earlier versions of Q-Chem not listed above: 
 R. D. Adamson,  B. Austin,  J. Baker,  G. J. O. Beran,  K. Brandhorst,  
 S. T. Brown,  E. F. C. Byrd,  A. K. Chakraborty,  C.-L. Cheng,  
 Siu Hung Chien,  D. M. Chipman,  D. L. Crittenden,  H. Dachsel,  
 R. J. Doerksen,  A. D. Dutoi,  L. Fusti-Molnar,  W. A. Goddard III,  
 A. Golubeva-Zadorozhnaya,  S. R. Gwaltney,  G. Hawkins,  A. Heyden,  
 S. Hirata,  G. Kedziora,  F. J. Keil,  C. Kelley,  Jihan Kim,  R. A. King,  
 R. Z. Khaliullin,  P. P. Korambath,  W. Kurlancheek,  A. M. Lee,  M. S. Lee,  
 S. V. Levchenko,  Ching Yeh Lin,  D. Liotard,  R. C. Lochan,  I. Lotan,  
 P. E. Maslen,  N. Nair,  D. P. O'Neill,  D. Neuhauser,  E. Neuscamman,  
 C. M. Oana,  R. Olson,  B. Peters,  R. Peverati,  P. A. Pieniazek,  
 Y. M. Rhee,  J. Ritchie,  M. A. Rohrdanz,  E. Rosta,  N. J. Russ,  
 H. F. Schaefer III,  N. E. Schultz,  N. Shenvi,  A. C. Simmonett,  A. Sodt,  
 D. Stuck,  K. S. Thanthiriwatte,  V. Vanovschi,  Tao Wang,  A. Warshel,  
 C. F. Williams,  Q. Wu,  X. Xu,  W. Zhang

 Please cite Q-Chem as follows:
 Y. Shao et al., Mol. Phys. 113, 184-215 (2015)
 DOI: 10.1080/00268976.2014.952696

 Q-Chem 5.1.1 for Intel X86 EM64T Linux

 Parts of Q-Chem use Armadillo 8.300.2 (Tropical Shenanigans).
 http://arma.sourceforge.net/

 Q-Chem begins on Thu Mar 14 01:26:58 2019  

Host: 
0

     Scratch files written to /staging/scratch/2868767/qchem29516//
 Aug318 |scratch|qcdevops|jenkins|workspace|build_RNUM 6013   
Processing $rem in /usr/usc/qchem/5.1.1/config/preferences.
 MEM_TOTAL  2000 
Input Ideriv = 2
Curr. Ideriv = -1
Max.  Ideriv = 2

Checking the input file for inconsistencies... 	...done.

--------------------------------------------------------------
User input:
--------------------------------------------------------------

$comment
potential surface scanner
$end

$rem
JOBTYPE  PES_SCAN
UNRESTRICTED TRUE
SYM_IGNORE  TRUE
GEOM_OPT_MAX_CYCLES 400
SCF_MAX_CYCLES 400
METHOD   B3LYP
BASIS   6-31G**
PDB_PRINT 2
SCF_CONVERGENCE 6
THRESH 14
SCF_PRINT 1
$end
$molecule
0 3
S 0.371698 -1.404182 -0.188146
S -3.640304 -1.066309 -0.080244
C 0.683343 0.485073 -0.250570
C -0.279976 1.175303 0.622156
C 2.148639 0.796599 0.049670
H 0.460833 0.680367 -1.305241
H -0.017932 1.391787 1.653782
H -1.316340 1.284998 0.323608
H 2.335825 1.866598 -0.094329
H 2.397168 0.549904 1.087407
H 2.817192 0.232934 -0.604891
H 0.588231 -1.541673 1.135892
H -2.308676 -1.326403 -0.160096
$end
$scan
stre 2 4 4.000000 4.001000 0.100000
$end
--------------------------------------------------------------
 ----------------------------------------------------------------
             Standard Nuclear Orientation (Angstroms)
    I     Atom           X                Y                Z
 ----------------------------------------------------------------
    1      S       0.3716980000    -1.4041820000    -0.1881460000
    2      S      -3.6403040000    -1.0663090000    -0.0802440000
    3      C       0.6833430000     0.4850730000    -0.2505700000
    4      C      -0.2799760000     1.1753030000     0.6221560000
    5      C       2.1486390000     0.7965990000     0.0496700000
    6      H       0.4608330000     0.6803670000    -1.3052410000
    7      H      -0.0179320000     1.3917870000     1.6537820000
    8      H      -1.3163400000     1.2849980000     0.3236080000
    9      H       2.3358250000     1.8665980000    -0.0943290000
   10      H       2.3971680000     0.5499040000     1.0874070000
   11      H       2.8171920000     0.2329340000    -0.6048910000
   12      H       0.5882310000    -1.5416730000     1.1358920000
   13      H      -2.3086760000    -1.3264030000    -0.1600960000
 ----------------------------------------------------------------
 Nuclear Repulsion Energy =   249.0514524367 hartrees
 There are       30 alpha and       28 beta electrons
 Requested basis set is 6-31G(d,p)
 There are 46 shells and 123 basis functions

 Total QAlloc Memory Limit   2000 MB
 Mega-Array Size       188 MB
 MEM_STATIC part       192 MB
A total of 1 constraints
  
            1
    1   1.0100000
    2   2.0100000
    3   4.0100000
    4   4.0000000
    5   4.0010000
    6   0.1000000
    7   0.0000000
    8   0.0000000
    9   0.0000000
   10   0.0000000

                       Distance Matrix (Angstroms)
             S (  1)   S (  2)   C (  3)   C (  4)   C (  5)   H (  6)
   S (  2)  4.027650
   C (  3)  1.915804  4.596708
   C (  4)  2.781189  4.099999  1.471751
   C (  5)  2.838576  6.082694  1.527837  2.523753
   H (  6)  2.366684  4.622858  1.095437  2.123351  2.167483
   H (  7)  3.370750  4.708573  2.222718  1.086179  2.760698  3.080771
   H (  8)  3.216062  3.330548  2.228967  1.084073  3.509937  2.485372
   H (  9)  3.816359  6.657046  2.159565  2.798867  1.095752  2.527656
   H ( 10)  3.089986  6.358193  2.175220  2.788312  1.095227  3.080776
   H ( 11)  2.972249  6.607764  2.177712  3.462102  1.092306  2.498622
   H ( 12)  1.348654  4.425547  2.457442  2.898218  3.013680  3.303456
   H ( 13)  2.681649  1.359139  3.498830  3.314525  4.941538  3.606752
             H (  7)   H (  8)   H (  9)   H ( 10)   H ( 11)   H ( 12)
   H (  8)  1.861889
   H (  9)  2.970103  3.721725
   H ( 10)  2.619591  3.861851  1.770295
   H ( 11)  3.805584  4.365207  1.777989  1.772220
   H ( 12)  3.039874  3.503893  4.022914  2.765736  3.338836
   H ( 13)  3.990767  2.835157  5.636574  5.217448  5.376234  3.180880

 
 A cutoff of  1.0D-14 yielded    985 shell pairs
 There are      7142 function pairs
 
 -------------------------------------------------------
 OpenMP Integral Computing Module                       
 Release: version 1.0, May 2013, Q-Chem Inc. Pittsburgh 
 -------------------------------------------------------
 Integral Job Info:
 Integral job number is                      11
 Integral operator is                         1
 short-range coefficients                     0
 long-range coefficients              100000000
 Omega coefficients                           0
 if combine SR and LR in K                    0
 Integral screening is                        0
 Integral computing path is                   2
 max size of driver memory is            800000
 size of driver memory is                593474
 size of scratch memory is             15267112
 max col of scratch BK array               1296
 max len of scratch array in speh3          155
 max len of scratch index in speh4           18
 max int batch size is                      520
 min int batch size is                       52
 fixed nKL is                                52
 max L of basis functions is                  2
 order of int derivative is                   0
 number of shells is                         46
 number of basis is                         123
 number of cartesian basis is               123
 number of contracted shell pairs           985
 number of primitive shell pairs           3650
 maxK2 (contraction) of shell pair           36
 max number of K2 of shell pair               1
 max number of CS2 of shell pair             81
 max number of PS2 of shell pair            354
 mem total for path MDJ                  515746
 -------------------------------------------------------
 Smallest overlap matrix eigenvalue = 6.01E-03

 Scale SEOQF with 1.000000e-01/1.000000e-01/1.000000e-01

 Standard Electronic Orientation quadrupole field applied
 Nucleus-field energy     =     0.0000000139 hartrees
 Guess from superposition of atomic densities
 Warning:  Energy on first SCF cycle will be non-variational
 SAD guess density has 58.000000 electrons

 -----------------------------------------------------------------------
  General SCF calculation program by
  Eric Jon Sundstrom, Paul Horn, Yuezhi Mao, Dmitri Zuev, Alec White,
  David Stuck, Shaama M.S., Shane Yost, Joonho Lee, David Small,
  Daniel Levine, Susi Lehtola, Hugh Burton, Evgeny Epifanovsky
 -----------------------------------------------------------------------
 Exchange:     0.2000 Hartree-Fock + 0.0800 Slater + 0.7200 B88
 Correlation:  0.1900 VWN1RPA + 0.8100 LYP
 Using SG-1 standard quadrature grid
 using 12 threads for integral computing
 -------------------------------------------------------
 OpenMP Integral computing Module                
 Release: version 1.0, May 2013, Q-Chem Inc. Pittsburgh 
 -------------------------------------------------------
 -------------------------------------------------------
 OpenMP BLAS3 based DFT computing Module                
 Release: version 1.0, May 2013, Q-Chem Inc. Pittsburgh 
 -------------------------------------------------------
 A unrestricted SCF calculation will be
 performed using DIIS
 SCF converges when DIIS error is below 1.0e-06
 Alpha HF Exchange    Energy =  -6.82233969017977
 Beta HF Exchange     Energy =  -6.82233969017977
 DFT Correlation      Energy =  -2.69558322447477
 DFT Exchange         Energy = -53.80675003528188
 One-Electron (alpha) Energy = -875.01667724563356
 One-Electron (beta)  Energy = -875.01667724563356
 Total Coulomb        Energy = 655.35059274404114
 ---------------------------------------
  Cycle       Energy         DIIS error
 ---------------------------------------
    1    -915.7783219367      2.59e-02  
 Alpha HF Exchange    Energy =  -6.95209703001040
 Beta HF Exchange     Energy =  -6.75930983976715
 DFT Correlation      Energy =  -2.71538316010178
 DFT Exchange         Energy = -54.41339069116333
 One-Electron (alpha) Energy = -892.46341399574521
 One-Electron (beta)  Energy = -864.23108352596432
 Total Coulomb        Energy = 663.15011761717960
    2    -915.3331081750      2.97e-03  
 Alpha HF Exchange    Energy =  -6.89938701727548
 Beta HF Exchange     Energy =  -6.72149132101101
 DFT Correlation      Energy =  -2.68847573456086
 DFT Exchange         Energy = -54.00501830973386
 One-Electron (alpha) Energy = -889.39029197832201
 One-Electron (beta)  Energy = -861.59858021506250
 Total Coulomb        Energy = 656.93826021143479
    3    -915.3135319139      3.45e-03  
 Alpha HF Exchange    Energy =  -6.92423272892237
 Beta HF Exchange     Energy =  -6.73906653021958
 DFT Correlation      Energy =  -2.69994444019365
 DFT Exchange         Energy = -54.18475526682018
 One-Electron (alpha) Energy = -890.74622691246987
 One-Electron (beta)  Energy = -862.71520926653216
 Total Coulomb        Energy = 659.54283776109446
    4    -915.4151449334      4.65e-04  
 Alpha HF Exchange    Energy =  -6.92768112864230
 Beta HF Exchange     Energy =  -6.74252251543555
 DFT Correlation      Energy =  -2.70019502624709
 DFT Exchange         Energy = -54.20881698810999
 One-Electron (alpha) Energy = -890.95256161836846
 One-Electron (beta)  Energy = -862.91815349620219
 Total Coulomb        Energy = 659.98142269646917
    5    -915.4170556259      2.26e-04  
 Alpha HF Exchange    Energy =  -6.92748851064909
 Beta HF Exchange     Energy =  -6.74231494730409
 DFT Correlation      Energy =  -2.69990260304287
 DFT Exchange         Energy = -54.20659628980516
 One-Electron (alpha) Energy = -890.92446799818777
 One-Electron (beta)  Energy = -862.88749317965301
 Total Coulomb        Energy = 659.91923087983832
    6    -915.4175801982      5.96e-05  
 Alpha HF Exchange    Energy =  -6.92717789055447
 Beta HF Exchange     Energy =  -6.74208967279807
 DFT Correlation      Energy =  -2.69969083945535
 DFT Exchange         Energy = -54.20398287270398
 One-Electron (alpha) Energy = -890.88966021167562
 One-Electron (beta)  Energy = -862.86009204968627
 Total Coulomb        Energy = 659.85361531821968
    7    -915.4176257680      2.00e-05  
 Alpha HF Exchange    Energy =  -6.92737691222320
 Beta HF Exchange     Energy =  -6.74229434352925
 DFT Correlation      Energy =  -2.69971190275547
 DFT Exchange         Energy = -54.20542280698190
 One-Electron (alpha) Energy = -890.90503847964919
 One-Electron (beta)  Energy = -862.87664621933743
 Total Coulomb        Energy = 659.88740340969514
    8    -915.4176348042      8.85e-06  
 Alpha HF Exchange    Energy =  -6.92734575490985
 Beta HF Exchange     Energy =  -6.74226906285440
 DFT Correlation      Energy =  -2.69968287614305
 DFT Exchange         Energy = -54.20514646101395
 One-Electron (alpha) Energy = -890.89951311766924
 One-Electron (beta)  Energy = -862.87235529124678
 Total Coulomb        Energy = 659.87722257339283
    9    -915.4176375398      4.07e-06  
 Alpha HF Exchange    Energy =  -6.92734560526615
 Beta HF Exchange     Energy =  -6.74227972747860
 DFT Correlation      Energy =  -2.69968301546716
 DFT Exchange         Energy = -54.20518395479868
 One-Electron (alpha) Energy = -890.89995197795190
 One-Electron (beta)  Energy = -862.87356903346415
 Total Coulomb        Energy = 659.87892149155266
   10    -915.4176393723      3.28e-06  
 Alpha HF Exchange    Energy =  -6.92734696227900
 Beta HF Exchange     Energy =  -6.74227705085006
 DFT Correlation      Energy =  -2.69968279251442
 DFT Exchange         Energy = -54.20517762763038
 One-Electron (alpha) Energy = -890.89975210306454
 One-Electron (beta)  Energy = -862.87343068592475
 Total Coulomb        Energy = 659.87857381070717
   11    -915.4176409609      3.08e-06  
 Alpha HF Exchange    Energy =  -6.92734755914326
 Beta HF Exchange     Energy =  -6.74227866011654
 DFT Correlation      Energy =  -2.69968362292932
 DFT Exchange         Energy = -54.20518685662467
 One-Electron (alpha) Energy = -890.89987400483699
 One-Electron (beta)  Energy = -862.87364444834247
 Total Coulomb        Energy = 659.87892020231084
   12    -915.4176424991      3.05e-06  
 Alpha HF Exchange    Energy =  -6.92734694482282
 Beta HF Exchange     Energy =  -6.74227845283871
 DFT Correlation      Energy =  -2.69968400568680
 DFT Exchange         Energy = -54.20518365737829
 One-Electron (alpha) Energy = -890.89985412776275
 One-Electron (beta)  Energy = -862.87374653714471
 Total Coulomb        Energy = 659.87899679035979
   13    -915.4176444847      3.04e-06  
 Alpha HF Exchange    Energy =  -6.92734667837570
 Beta HF Exchange     Energy =  -6.74227938754336
 DFT Correlation      Energy =  -2.69968495965559
 DFT Exchange         Energy = -54.20518568244962
 One-Electron (alpha) Energy = -890.89986792604213
 One-Electron (beta)  Energy = -862.87401269944394
 Total Coulomb        Energy = 659.87927650486847
   14    -915.4176483780      3.03e-06  
 Alpha HF Exchange    Energy =  -6.92734418946936
 Beta HF Exchange     Energy =  -6.74228594901191
 DFT Correlation      Energy =  -2.69968855218849
 DFT Exchange         Energy = -54.20519848548733
 One-Electron (alpha) Energy = -890.89986470108238
 One-Electron (beta)  Energy = -862.87534566100305
 Total Coulomb        Energy = 659.88061052105763
   15    -915.4176645666      3.05e-06  
 Alpha HF Exchange    Energy =  -6.92734405039598
 Beta HF Exchange     Energy =  -6.74228293942534
 DFT Correlation      Energy =  -2.69968796201729
 DFT Exchange         Energy = -54.20518729154065
 One-Electron (alpha) Energy = -890.89983476651253
 One-Electron (beta)  Energy = -862.87500468506266
 Total Coulomb        Energy = 659.88022747914567
   16    -915.4176617652      3.01e-06  
 Alpha HF Exchange    Energy =  -6.92731292343574
 Beta HF Exchange     Energy =  -6.74282815350518
 DFT Correlation      Energy =  -2.69970947884899
 DFT Exchange         Energy = -54.20705767907742
 One-Electron (alpha) Energy = -890.89864015630906
 One-Electron (beta)  Energy = -862.91898993610766
 Total Coulomb        Energy = 659.92536776758061
   17    -915.4177181091      8.46e-05  
 Alpha HF Exchange    Energy =  -6.92732725801849
 Beta HF Exchange     Energy =  -6.74247745265055
 DFT Correlation      Energy =  -2.69970914054238
 DFT Exchange         Energy = -54.20582471791588
 One-Electron (alpha) Energy = -890.89949916637806
 One-Electron (beta)  Energy = -862.89369849722812
 Total Coulomb        Energy = 659.89932920884632
   18    -915.4177545733      2.78e-05  
 Alpha HF Exchange    Energy =  -6.92732880823945
 Beta HF Exchange     Energy =  -6.74250354251347
 DFT Correlation      Energy =  -2.69970907494523
 DFT Exchange         Energy = -54.20592858543339
 One-Electron (alpha) Energy = -890.89953024686679
 One-Electron (beta)  Energy = -862.89531491872287
 Total Coulomb        Energy = 659.90111045169749
   19    -915.4177522744      3.21e-05  
 Alpha HF Exchange    Energy =  -6.92733015539683
 Beta HF Exchange     Energy =  -6.74248650760990
 DFT Correlation      Energy =  -2.69971084006674
 DFT Exchange         Energy = -54.20587133679811
 One-Electron (alpha) Energy = -890.89965186913719
 One-Electron (beta)  Energy = -862.89435238462079
 Total Coulomb        Energy = 659.90019526369633
   20    -915.4177553793      2.88e-05  
 Alpha HF Exchange    Energy =  -6.92726968258708
 Beta HF Exchange     Energy =  -6.74351636312210
 DFT Correlation      Energy =  -2.69968498593991
 DFT Exchange         Energy = -54.20942574134283
 One-Electron (alpha) Energy = -890.89570542353863
 One-Electron (beta)  Energy = -862.96572990652169
 Total Coulomb        Energy = 659.97256458454035
   21    -915.4173150679      2.01e-04  
 Alpha HF Exchange    Energy =  -6.92726412152799
 Beta HF Exchange     Energy =  -6.74360296104086
 DFT Correlation      Energy =  -2.69967719093752
 DFT Exchange         Energy = -54.20972901383065
 One-Electron (alpha) Energy = -890.89515724240187
 One-Electron (beta)  Energy = -862.97088305060902
 Total Coulomb        Energy = 659.97763699737834
   22    -915.4172241323      2.17e-04  
 Alpha HF Exchange    Energy =  -6.92726844857355
 Beta HF Exchange     Energy =  -6.74349790003016
 DFT Correlation      Energy =  -2.69968640092328
 DFT Exchange         Energy = -54.20935296610238
 One-Electron (alpha) Energy = -890.89570255182082
 One-Electron (beta)  Energy = -862.96461215127556
 Total Coulomb        Energy = 659.97133507950150
   23    -915.4173328886      1.97e-04  
 Alpha HF Exchange    Energy =  -6.92727011271706
 Beta HF Exchange     Energy =  -6.74341054138886
 DFT Correlation      Energy =  -2.69969335015293
 DFT Exchange         Energy = -54.20903253514285
 One-Electron (alpha) Energy = -890.89598807701452
 One-Electron (beta)  Energy = -862.95938965925700
 Total Coulomb        Energy = 659.96591764046821
   24    -915.4174141846      1.82e-04  
 Alpha HF Exchange    Energy =  -6.92727335711671
 Beta HF Exchange     Energy =  -6.74332972540256
 DFT Correlation      Energy =  -2.69969935004486
 DFT Exchange         Energy = -54.20874274481432
 One-Electron (alpha) Energy = -890.89633864687551
 One-Electron (beta)  Energy = -862.95449920523117
 Total Coulomb        Energy = 659.96094705870189
   25    -915.4174835202      1.67e-04  
 Alpha HF Exchange    Energy =  -6.92727421319481
 Beta HF Exchange     Energy =  -6.74331322759252
 DFT Correlation      Energy =  -2.69970372590731
 DFT Exchange         Energy = -54.20868190543527
 One-Electron (alpha) Energy = -890.89662255991891
 One-Electron (beta)  Energy = -862.95407421417963
 Total Coulomb        Energy = 659.96071196369883
   26    -915.4175054319      1.62e-04  
 Alpha HF Exchange    Energy =  -6.92727348644982
 Beta HF Exchange     Energy =  -6.74327058374547
 DFT Correlation      Energy =  -2.69970770267624
 DFT Exchange         Energy = -54.20851668033277
 One-Electron (alpha) Energy = -890.89666412840438
 One-Electron (beta)  Energy = -862.95176167588033
 Total Coulomb        Energy = 659.95819971380217
   27    -915.4175420931      1.54e-04  
 Alpha HF Exchange    Energy =  -6.92727857815123
 Beta HF Exchange     Energy =  -6.74313912239196
 DFT Correlation      Energy =  -2.69971602127516
 DFT Exchange         Energy = -54.20804630507740
 One-Electron (alpha) Energy = -890.89716941665358
 One-Electron (beta)  Energy = -862.94372464848232
 Total Coulomb        Energy = 659.94999042318295
   28    -915.4176312182      1.31e-04  
 Alpha HF Exchange    Energy =  -6.92729687716093
 Beta HF Exchange     Energy =  -6.74259328337096
 DFT Correlation      Energy =  -2.69974233828032
 DFT Exchange         Energy = -54.20609053848349
 One-Electron (alpha) Energy = -890.89900946080184
 One-Electron (beta)  Energy = -862.90982715328676
 Total Coulomb        Energy = 659.91527140310131
   29    -915.4178357977      3.58e-05  
 Alpha HF Exchange    Energy =  -6.92727114007207
 Beta HF Exchange     Energy =  -6.74305489964344
 DFT Correlation      Energy =  -2.69974122822308
 DFT Exchange         Energy = -54.20767490307420
 One-Electron (alpha) Energy = -890.89774955381324
 One-Electron (beta)  Energy = -862.94258900008845
 Total Coulomb        Energy = 659.94890861152567
   30    -915.4177196628      1.08e-04  
 Alpha HF Exchange    Energy =  -6.92727257447949
 Beta HF Exchange     Energy =  -6.74287121154734
 DFT Correlation      Energy =  -2.69975478589197
 DFT Exchange         Energy = -54.20699185852710
 One-Electron (alpha) Energy = -890.89825446518284
 One-Electron (beta)  Energy = -862.93234217605118
 Total Coulomb        Energy = 659.93823009836819
   31    -915.4178045227      7.47e-05  
 Alpha HF Exchange    Energy =  -6.92727593644925
 Beta HF Exchange     Energy =  -6.74268371894084
 DFT Correlation      Energy =  -2.69976862144031
 DFT Exchange         Energy = -54.20630227189874
 One-Electron (alpha) Energy = -890.89882357056513
 One-Electron (beta)  Energy = -862.92200837362032
 Total Coulomb        Energy = 659.92755043507157
   32    -915.4178596072      4.03e-05  
 Alpha HF Exchange    Energy =  -6.92728091062856
 Beta HF Exchange     Energy =  -6.74243199109153
 DFT Correlation      Energy =  -2.69978400927847
 DFT Exchange         Energy = -54.20538232336021
 One-Electron (alpha) Energy = -890.89954657850001
 One-Electron (beta)  Energy = -862.90799580695420
 Total Coulomb        Energy = 659.91308720389782
   33    -915.4178819653      4.70e-06  
 Alpha HF Exchange    Energy =  -6.92728085474360
 Beta HF Exchange     Energy =  -6.74244358777676
 DFT Correlation      Energy =  -2.69978421325803
 DFT Exchange         Energy = -54.20542486847820
 One-Electron (alpha) Energy = -890.89955801463282
 One-Electron (beta)  Energy = -862.90877331497745
 Total Coulomb        Energy = 659.91393023392231
   34    -915.4178821693      2.78e-06  
 Alpha HF Exchange    Energy =  -6.92728079586203
 Beta HF Exchange     Energy =  -6.74245335684209
 DFT Correlation      Energy =  -2.69978354900790
 DFT Exchange         Energy = -54.20546123714742
 One-Electron (alpha) Energy = -890.89953767124689
 One-Electron (beta)  Energy = -862.90928956709115
 Total Coulomb        Energy = 659.91447146383621
   35    -915.4178822627      9.89e-07  Convergence criterion met
 ---------------------------------------
 SCF time:   CPU 104.28s  wall 8.00s 
<S^2> =          2.007912618
 Alpha HF Exchange    Energy =  -6.92728079586203
 Beta HF Exchange     Energy =  -6.74245335684209
 DFT Correlation      Energy =  -2.69978354900790
 DFT Exchange         Energy = -54.20546123714742
 One-Electron (alpha) Energy = -890.89953767124689
 One-Electron (beta)  Energy = -862.90928956709115
 Total Coulomb        Energy = 659.91447146383621
 Nuclear repulsion Energy = 249.05145245062124
 SCF   energy in the final basis set =     -915.4178822627
 Total energy in the final basis set =     -915.4178822627
 
 --------------------------------------------------------------
 
                    Orbital Energies (a.u.)
 --------------------------------------------------------------
 
 Alpha MOs
 -- Occupied --
-88.894 -88.885 -10.242 -10.206 -10.194  -7.956  -7.948  -5.927
 -5.916  -5.913  -5.909  -5.908  -5.903  -0.827  -0.722  -0.715
 -0.696  -0.587  -0.480  -0.445  -0.432  -0.406  -0.395  -0.381
 -0.363  -0.345  -0.307  -0.261  -0.258  -0.212
 -- Virtual --
  0.013   0.056   0.058   0.101   0.121   0.129   0.158   0.170
  0.177   0.218   0.250   0.282   0.313   0.328   0.353   0.367
  0.374   0.402   0.481   0.490   0.513   0.542   0.565   0.568
  0.603   0.662   0.689   0.701   0.718   0.739   0.741   0.749
  0.751   0.797   0.807   0.829   0.859   0.875   0.881   0.905
  0.922   0.937   0.965   1.031   1.115   1.130   1.165   1.191
  1.342   1.428   1.441   1.542   1.690   1.760   1.824   1.868
  1.903   1.974   2.012   2.035   2.071   2.078   2.088   2.092
  2.104   2.114   2.119   2.274   2.306   2.354   2.394   2.492
  2.559   2.579   2.623   2.694   2.725   2.736   2.744   2.824
  2.863   2.908   3.179   3.283   3.369   3.406   3.461   3.500
  3.932   3.973   4.245   4.368   4.578
 
 Beta MOs
 -- Occupied --
-88.889 -88.884 -10.243 -10.194 -10.193  -7.950  -7.946  -5.913
 -5.911  -5.909  -5.907  -5.905  -5.901  -0.819  -0.711  -0.682
 -0.675  -0.578  -0.475  -0.441  -0.426  -0.403  -0.383  -0.375
 -0.360  -0.333  -0.252  -0.245
 -- Virtual --
 -0.165  -0.072   0.019   0.063   0.068   0.103   0.124   0.138
  0.159   0.171   0.181   0.224   0.257   0.291   0.324   0.338
  0.366   0.379   0.392   0.408   0.486   0.494   0.519   0.555
  0.571   0.603   0.617   0.669   0.698   0.717   0.744   0.749
  0.759   0.799   0.804   0.809   0.813   0.832   0.864   0.879
  0.884   0.912   0.926   0.943   0.973   1.045   1.123   1.134
  1.170   1.196   1.359   1.435   1.464   1.551   1.697   1.762
  1.828   1.877   1.921   1.995   2.024   2.036   2.073   2.081
  2.086   2.096   2.105   2.119   2.123   2.279   2.306   2.357
  2.405   2.506   2.573   2.591   2.625   2.697   2.727   2.739
  2.745   2.826   2.863   2.910   3.179   3.286   3.373   3.408
  3.462   3.506   3.950   3.977   4.262   4.380   4.581
 --------------------------------------------------------------
 
          Ground-State Mulliken Net Atomic Charges

     Atom                 Charge (a.u.)    Spin (a.u.)
  --------------------------------------------------------
      1 S                    -0.064033       0.150795
      2 S                    -0.109289       1.027813
      3 C                    -0.218673      -0.086055
      4 C                    -0.203394       1.006546
      5 C                    -0.301642       0.005892
      6 H                     0.148584       0.014133
      7 H                     0.109845      -0.044414
      8 H                     0.130187      -0.044628
      9 H                     0.119885      -0.000553
     10 H                     0.111083      -0.000648
     11 H                     0.126230       0.001023
     12 H                     0.069623      -0.002653
     13 H                     0.081593      -0.027252
  --------------------------------------------------------
  Sum of atomic charges =     0.000000
  Sum of spin   charges =     2.000000

 -----------------------------------------------------------------
                    Cartesian Multipole Moments
 -----------------------------------------------------------------
    Charge (ESU x 10^10)
                 0.0000
    Dipole Moment (Debye)
         X       2.2367      Y       1.3182      Z       0.6991
       Tot       2.6887
    Quadrupole Moments (Debye-Ang)
        XX     -55.0591     XY      -1.1178     YY     -50.4526
        XZ       0.9460     YZ      -1.2226     ZZ     -44.1335
    Octopole Moments (Debye-Ang^2)
       XXX     112.8673    XXY      30.8765    XYY      33.1231
       YYY      56.0920    XXZ      -1.0385    XYZ      -4.1086
       YYZ       2.2692    XZZ      25.0396    YZZ      16.1100
       ZZZ       0.0182
    Hexadecapole Moments (Debye-Ang^3)
      XXXX   -1506.5767   XXXY    -220.8011   XXYY    -339.5211
      XYYY    -190.6249   YYYY    -440.8796   XXXZ      -3.1214
      XXYZ      -0.3737   XYYZ       4.8533   YYYZ     -31.3620
      XXZZ    -238.1227   XYZZ     -55.3392   YYZZ     -84.3522
      XZZZ      -3.5944   YZZZ     -24.3753   ZZZZ     -95.6809
 -----------------------------------------------------------------
 Calculating analytic gradient of the SCF energy
 Gradient of SCF Energy
            1           2           3           4           5           6
    1   0.0000726   0.0001829  -0.0000421  -0.0002197  -0.0000269   0.0000110
    2  -0.0000800   0.0000929  -0.0000510  -0.0000607  -0.0000036   0.0000347
    3  -0.0000882  -0.0000218  -0.0000005  -0.0000763   0.0000392   0.0000010
            7           8           9          10          11          12
    1   0.0000105  -0.0000163  -0.0000036  -0.0000008   0.0000047  -0.0000163
    2   0.0000186  -0.0000575   0.0000046   0.0000094   0.0000068   0.0000006
    3  -0.0000056   0.0000219  -0.0000080   0.0000016   0.0000011   0.0000054
           13
    1   0.0000440
    2   0.0000852
    3   0.0001302
 Max gradient component =       2.197E-04
 RMS gradient           =       6.385E-05
 Gradient time:  CPU 10.57 s  wall 0.93 s
 Geometry Optimization Parameters
   NAtoms,    NIC,     NZ,  NCons,   NDum,   NFix, NCnnct, MaxDiis
       13      80       0       1       0       0       0       0


** CONSTRAINED OPTIMIZATION IN DELOCALIZED INTERNAL COORDINATES **
   Searching for a Minimum

   Optimization Cycle:   1

                       Coordinates (Angstroms)
     ATOM                X               Y               Z
      1  S         0.3716980000   -1.4041820000   -0.1881460000
      2  S        -3.6403040000   -1.0663090000   -0.0802440000
      3  C         0.6833430000    0.4850730000   -0.2505700000
      4  C        -0.2799760000    1.1753030000    0.6221560000
      5  C         2.1486390000    0.7965990000    0.0496700000
      6  H         0.4608330000    0.6803670000   -1.3052410000
      7  H        -0.0179320000    1.3917870000    1.6537820000
      8  H        -1.3163400000    1.2849980000    0.3236080000
      9  H         2.3358250000    1.8665980000   -0.0943290000
     10  H         2.3971680000    0.5499040000    1.0874070000
     11  H         2.8171920000    0.2329340000   -0.6048910000
     12  H         0.5882310000   -1.5416730000    1.1358920000
     13  H        -2.3086760000   -1.3264030000   -0.1600960000
   Point Group: c1    Number of degrees of freedom:    33


   Energy is   -915.417882263

              Constraints and their Current Values
                                        Value     Constraint
   Distance(Angs):        2   4             4.099999     4.000000

 Attempting to Generate Delocalized Internal Coordinates

   Using Lagrange Multiplier Algorithm


 34 Hessian modes will be used to form the next step
  Hessian Eigenvalues:
    -0.996414    0.023208    0.045000    0.045000    0.045956    0.046938
     0.072586    0.078502    0.082703    0.084028    0.090823    0.094969
     0.160000    0.160000    0.160000    0.160000    0.160000    0.160474
     0.185016    0.187985    0.195152    0.198190    0.200000    0.248074
     0.257415    0.296241    0.341563    0.341919    0.342155    0.345476
     0.352580    0.355067    0.355100    1.003599

 Minimum Search - Taking P-RFO Step
 Searching for Lamda that Maximizes Along the Constraint modes Only
 Value Taken    Lamda =   0.01772233
 Searching for Lamda that Minimizes Along All other modes
 Value Taken    Lamda =  -0.01737336
 Step Taken.  Stepsize is  0.185720

                             Maximum     Tolerance    Cnvgd?
         Gradient            0.188971       0.000300      NO
         Displacement        0.185712       0.001200      NO
         Energy change     *********       0.000001      NO


 New Cartesian Coordinates Obtained by Inverse Iteration

 Displacement from previous Coordinates is:  0.238312
 ----------------------------------------------------------------
             Standard Nuclear Orientation (Angstroms)
    I     Atom           X                Y                Z
 ----------------------------------------------------------------
    1      S       0.3886218164    -1.4183771403    -0.1833428197
    2      S      -3.6081731938    -0.9908847099    -0.0724768104
    3      C       0.6817183992     0.4712191092    -0.2515506158
    4      C      -0.2960566939     1.1461214935     0.6180949118
    5      C       2.1428114692     0.8025330878     0.0480984964
    6      H       0.4580795824     0.6619636442    -1.3068113627
    7      H      -0.0412010764     1.3668762395     1.6506116332
    8      H      -1.3329447510     1.2393541492     0.3157982570
    9      H       2.3159916569     1.8745885658    -0.0981156628
   10      H       2.3944711372     0.5612778721     1.0863580994
   11      H       2.8187054386     0.2462822424    -0.6052588437
   12      H       0.6042403490    -1.5496524827     1.1414787540
   13      H      -2.2865631338    -1.2863060708    -0.1538860366
 ----------------------------------------------------------------
 Nuclear Repulsion Energy =   249.9743746458 hartrees
 There are       30 alpha and       28 beta electrons

                       Distance Matrix (Angstroms)
             S (  1)   S (  2)   C (  3)   C (  4)   C (  5)   H (  6)
   S (  2)  4.021121
   C (  3)  1.913408  4.535745
   C (  4)  2.772677  4.001725  1.472352
   C (  5)  2.839575  6.025339  1.527858  2.528048
   H (  6)  2.365338  4.559594  1.095433  2.123298  2.166532
   H (  7)  3.362406  4.609920  2.223294  1.086174  2.767028  3.080996
   H (  8)  3.205693  3.209577  2.229525  1.084072  3.513311  2.484756
   H (  9)  3.816496  6.580830  2.159592  2.804714  1.095752  2.526508
   H ( 10)  3.091053  6.307444  2.175232  2.792893  1.095226  3.080099
   H ( 11)  2.975636  6.566522  2.177710  3.465263  1.092302  2.497503
   H ( 12)  1.348657  4.419314  2.455699  2.889924  3.015868  3.302534
   H ( 13)  2.678605  1.356670  3.450961  3.236476  4.901368  3.557816
             H (  7)   H (  8)   H (  9)   H ( 10)   H ( 11)   H ( 12)
   H (  8)  1.861878
   H (  9)  2.978620  3.726873
   H ( 10)  2.626760  3.866158  1.770289
   H ( 11)  3.811004  4.367006  1.778004  1.772220
   H ( 12)  3.030173  3.494709  4.023943  2.768392  3.343700
   H ( 13)  3.916279  2.740247  5.583715  5.183035  5.349423  3.178689

 
 Applying Cartesian multipole field
    Component          Value
    ---------          -----
     (2,0,0)        1.00000E-11
     (0,2,0)        2.00000E-11
     (0,0,2)       -3.00000E-11
 Nucleus-field energy     =     0.0000000136 hartrees
 Requested basis set is 6-31G(d,p)
 There are 46 shells and 123 basis functions
 A cutoff of  1.0D-14 yielded    989 shell pairs
 There are      7212 function pairs
 Smallest overlap matrix eigenvalue = 6.00E-03
 Guess from superposition of atomic densities
 Warning:  Energy on first SCF cycle will be non-variational
 SAD guess density has 58.000000 electrons

 -----------------------------------------------------------------------
  General SCF calculation program by
  Eric Jon Sundstrom, Paul Horn, Yuezhi Mao, Dmitri Zuev, Alec White,
  David Stuck, Shaama M.S., Shane Yost, Joonho Lee, David Small,
  Daniel Levine, Susi Lehtola, Hugh Burton, Evgeny Epifanovsky
 -----------------------------------------------------------------------
 Exchange:     0.2000 Hartree-Fock + 0.0800 Slater + 0.7200 B88
 Correlation:  0.1900 VWN1RPA + 0.8100 LYP
 Using SG-1 standard quadrature grid
 using 12 threads for integral computing
 -------------------------------------------------------
 OpenMP Integral computing Module                
 Release: version 1.0, May 2013, Q-Chem Inc. Pittsburgh 
 -------------------------------------------------------
 -------------------------------------------------------
 OpenMP BLAS3 based DFT computing Module                
 Release: version 1.0, May 2013, Q-Chem Inc. Pittsburgh 
 -------------------------------------------------------
 A unrestricted SCF calculation will be
 performed using DIIS
 SCF converges when DIIS error is below 1.0e-06
 Alpha HF Exchange    Energy =  -6.82272549804921
 Beta HF Exchange     Energy =  -6.82272549804921
 DFT Correlation      Energy =  -2.69593824208836
 DFT Exchange         Energy = -53.80745808852082
 One-Electron (alpha) Energy = -875.93832922888589
 One-Electron (beta)  Energy = -875.93832922888589
 Total Coulomb        Energy = 656.26946343875989
 ---------------------------------------
  Cycle       Energy         DIIS error
 ---------------------------------------
    1    -915.7816676863      2.60e-02  
 Alpha HF Exchange    Energy =  -6.95226970352109
 Beta HF Exchange     Energy =  -6.75899913231300
 DFT Correlation      Energy =  -2.71570400387166
 DFT Exchange         Energy = -54.41368938214483
 One-Electron (alpha) Energy = -893.43011258010836
 One-Electron (beta)  Energy = -865.08537893317737
 Total Coulomb        Energy = 664.04947180288366
    2    -915.3323072728      2.97e-03  
 Alpha HF Exchange    Energy =  -6.89964966093833
 Beta HF Exchange     Energy =  -6.72165981357679
 DFT Correlation      Energy =  -2.68882588432580
 DFT Exchange         Energy = -54.00670217510520
 One-Electron (alpha) Energy = -890.37259956081209
 One-Electron (beta)  Energy = -862.47828819538654
 Total Coulomb        Energy = 657.88112974092599
    3    -915.3122208898      3.46e-03  
 Alpha HF Exchange    Energy =  -6.92438567152139
 Beta HF Exchange     Energy =  -6.73903164009157
 DFT Correlation      Energy =  -2.70022148139245
 DFT Exchange         Energy = -54.18519427130675
 One-Electron (alpha) Energy = -891.71438866874746
 One-Electron (beta)  Energy = -863.57808189031437
 Total Coulomb        Energy = 660.45189992420831
    4    -915.4150290397      4.66e-04  
 Alpha HF Exchange    Energy =  -6.92790711688177
 Beta HF Exchange     Energy =  -6.74257641077851
 DFT Correlation      Energy =  -2.70048785243235
 DFT Exchange         Energy = -54.20983025134568
 One-Electron (alpha) Energy = -891.92458140748784
 One-Electron (beta)  Energy = -863.78457155332796
 Total Coulomb        Energy = 660.89862671276740
    5    -915.4169532200      2.28e-04  
 Alpha HF Exchange    Energy =  -6.92770811139484
 Beta HF Exchange     Energy =  -6.74237592760447
 DFT Correlation      Energy =  -2.70019136365030
 DFT Exchange         Energy = -54.20758585123527
 One-Electron (alpha) Energy = -891.89647527602870
 One-Electron (beta)  Energy = -863.75438871461404
 Total Coulomb        Energy = 660.83686009007374
    6    -915.4174904950      6.04e-05  
 Alpha HF Exchange    Energy =  -6.92739071996612
 Beta HF Exchange     Energy =  -6.74215202417973
 DFT Correlation      Energy =  -2.69997601967316
 DFT Exchange         Energy = -54.20493484177361
 One-Electron (alpha) Energy = -891.86084545137157
 One-Electron (beta)  Energy = -863.72655911466597
 Total Coulomb        Energy = 660.76994542198804
    7    -915.4175380902      2.04e-05  
 Alpha HF Exchange    Energy =  -6.92759303490368
 Beta HF Exchange     Energy =  -6.74236547681636
 DFT Correlation      Energy =  -2.69999776141795
 DFT Exchange         Energy = -54.20641542367211
 One-Electron (alpha) Energy = -891.87650828808421
 One-Electron (beta)  Energy = -863.74362400625853
 Total Coulomb        Energy = 660.80458163003470
    8    -915.4175477017      9.00e-06  
 Alpha HF Exchange    Energy =  -6.92756019974903
 Beta HF Exchange     Energy =  -6.74234019533775
 DFT Correlation      Energy =  -2.69996803498273
 DFT Exchange         Energy = -54.20613011653991
 One-Electron (alpha) Energy = -891.87081205806123
 One-Electron (beta)  Energy = -863.73928275883213
 Total Coulomb        Energy = 660.79416805858386
    9    -915.4175506455      4.25e-06  
 Alpha HF Exchange    Energy =  -6.92755996796317
 Beta HF Exchange     Energy =  -6.74235219164420
 DFT Correlation      Energy =  -2.69996840686797
 DFT Exchange         Energy = -54.20617179858321
 One-Electron (alpha) Energy = -891.87126376666652
 One-Electron (beta)  Energy = -863.74060214033443
 Total Coulomb        Energy = 660.79599095748574
   10    -915.4175526551      3.42e-06  
 Alpha HF Exchange    Energy =  -6.92756122889807
 Beta HF Exchange     Energy =  -6.74234981736036
 DFT Correlation      Energy =  -2.69996825727882
 DFT Exchange         Energy = -54.20616605539705
 One-Electron (alpha) Energy = -891.87105668662798
 One-Electron (beta)  Energy = -863.74049734539665
 Total Coulomb        Energy = 660.79567033256876
   11    -915.4175543989      3.22e-06  
 Alpha HF Exchange    Energy =  -6.92756169940774
 Beta HF Exchange     Energy =  -6.74235170121173
 DFT Correlation      Energy =  -2.69996920884965
 DFT Exchange         Energy = -54.20617583811326
 One-Electron (alpha) Energy = -891.87117245202603
 One-Electron (beta)  Energy = -863.74074002553959
 Total Coulomb        Energy = 660.79604015197083
   12    -915.4175561137      3.18e-06  
 Alpha HF Exchange    Energy =  -6.92756085081482
 Beta HF Exchange     Energy =  -6.74235186172951
 DFT Correlation      Energy =  -2.69996982365814
 DFT Exchange         Energy = -54.20617310189656
 One-Electron (alpha) Energy = -891.87114716517624
 One-Electron (beta)  Energy = -863.74090242413422
 Total Coulomb        Energy = 660.79617193050012
   13    -915.4175586375      3.18e-06  
 Alpha HF Exchange    Energy =  -6.92756004941827
 Beta HF Exchange     Energy =  -6.74235453451723
 DFT Correlation      Energy =  -2.69997171132741
 DFT Exchange         Energy = -54.20617921161278
 One-Electron (alpha) Energy = -891.87115721825739
 One-Electron (beta)  Energy = -863.74143646677328
 Total Coulomb        Energy = 660.79671930766381
   14    -915.4175652248      3.16e-06  
 Alpha HF Exchange    Energy =  -6.92755570946452
 Beta HF Exchange     Energy =  -6.74236730260795
 DFT Correlation      Energy =  -2.69997722401645
 DFT Exchange         Energy = -54.20620728106508
 One-Electron (alpha) Energy = -891.87111254183708
 One-Electron (beta)  Energy = -863.74346476658411
 Total Coulomb        Energy = 660.79872448330741
   15    -915.4175856828      3.23e-06  
 Alpha HF Exchange    Energy =  -6.92755592628392
 Beta HF Exchange     Energy =  -6.74236369064607
 DFT Correlation      Energy =  -2.69997644816328
 DFT Exchange         Energy = -54.20619525451635
 One-Electron (alpha) Energy = -891.87109809292303
 One-Electron (beta)  Energy = -863.74306468502584
 Total Coulomb        Energy = 660.79829672592859
   16    -915.4175827122      3.14e-06  
 Alpha HF Exchange    Energy =  -6.92750907516234
 Beta HF Exchange     Energy =  -6.74305384263083
 DFT Correlation      Energy =  -2.70000538693371
 DFT Exchange         Energy = -54.20852892186712
 One-Electron (alpha) Energy = -891.86928379882181
 One-Electron (beta)  Energy = -863.79683041580574
 Total Coulomb        Energy = 660.85324360057871
   17    -915.4175931812      1.03e-04  
 Alpha HF Exchange    Energy =  -6.92752412777716
 Beta HF Exchange     Energy =  -6.74274167266148
 DFT Correlation      Energy =  -2.70000742848305
 DFT Exchange         Energy = -54.20744074194671
 One-Electron (alpha) Energy = -891.87017524840940
 One-Electron (beta)  Energy = -863.77530266032863
 Total Coulomb        Energy = 660.83114616857745
   18    -915.4176710516      5.28e-05  
 Alpha HF Exchange    Energy =  -6.92752853000154
 Beta HF Exchange     Energy =  -6.74273141255603
 DFT Correlation      Energy =  -2.70000701174267
 DFT Exchange         Energy = -54.20742379199274
 One-Electron (alpha) Energy = -891.87034639157116
 One-Electron (beta)  Energy = -863.77422593130404
 Total Coulomb        Energy = 660.83021991355758
   19    -915.4176684962      5.14e-05  
 Alpha HF Exchange    Energy =  -6.92752830599204
 Beta HF Exchange     Energy =  -6.74273347706808
 DFT Correlation      Energy =  -2.70000687232284
 DFT Exchange         Energy = -54.20743034976010
 One-Electron (alpha) Energy = -891.87033165554863
 One-Electron (beta)  Energy = -863.77436097834993
 Total Coulomb        Energy = 660.83034884632855
   20    -915.4176681333      5.18e-05  
 Alpha HF Exchange    Energy =  -6.92750991102228
 Beta HF Exchange     Energy =  -6.74280974365453
 DFT Correlation      Energy =  -2.70001787140162
 DFT Exchange         Energy = -54.20762584730713
 One-Electron (alpha) Energy = -891.86973463778781
 One-Electron (beta)  Energy = -863.78207094890240
 Total Coulomb        Energy = 660.83771036177734
   21    -915.4176839389      6.05e-05  
 Alpha HF Exchange    Energy =  -6.92748864327538
 Beta HF Exchange     Energy =  -6.74299125478949
 DFT Correlation      Energy =  -2.70003253528611
 DFT Exchange         Energy = -54.20818666155104
 One-Electron (alpha) Energy = -891.86920716553345
 One-Electron (beta)  Energy = -863.79753148904808
 Total Coulomb        Energy = 660.85339229791350
   22    -915.4176707921      8.33e-05  
 Alpha HF Exchange    Energy =  -6.92747641241940
 Beta HF Exchange     Energy =  -6.74310606572402
 DFT Correlation      Energy =  -2.70003191197491
 DFT Exchange         Energy = -54.20855559089864
 One-Electron (alpha) Energy = -891.86854955196691
 One-Electron (beta)  Energy = -863.80560753385350
 Total Coulomb        Energy = 660.86131966925325
   23    -915.4176327381      1.01e-04  
 Alpha HF Exchange    Energy =  -6.92748043690746
 Beta HF Exchange     Energy =  -6.74303208403493
 DFT Correlation      Energy =  -2.70003924820318
 DFT Exchange         Energy = -54.20829450292869
 One-Electron (alpha) Energy = -891.86902672585995
 One-Electron (beta)  Energy = -863.80162356721542
 Total Coulomb        Energy = 660.85745242625740
   24    -915.4176694794      8.70e-05  
 Alpha HF Exchange    Energy =  -6.92747700714787
 Beta HF Exchange     Energy =  -6.74304253144121
 DFT Correlation      Energy =  -2.70004318648754
 DFT Exchange         Energy = -54.20831368380185
 One-Electron (alpha) Energy = -891.86899846148049
 One-Electron (beta)  Energy = -863.80305731912597
 Total Coulomb        Energy = 660.85888589007402
   25    -915.4176716400      8.72e-05  
 Alpha HF Exchange    Energy =  -6.92747878902155
 Beta HF Exchange     Energy =  -6.74295694468380
 DFT Correlation      Energy =  -2.70004906071174
 DFT Exchange         Energy = -54.20800231307733
 One-Electron (alpha) Energy = -891.86929074439377
 One-Electron (beta)  Energy = -863.79819712062556
 Total Coulomb        Energy = 660.85389480419531
   26    -915.4177055089      7.19e-05  
 Alpha HF Exchange    Energy =  -6.92748354771224
 Beta HF Exchange     Energy =  -6.74266585264515
 DFT Correlation      Energy =  -2.70006924872622
 DFT Exchange         Energy = -54.20693292744060
 One-Electron (alpha) Energy = -891.86996711692404
 One-Electron (beta)  Energy = -863.78202868318590
 Total Coulomb        Energy = 660.83699924808946
   27    -915.4177734691      1.93e-05  
 Alpha HF Exchange    Energy =  -6.92748364393421
 Beta HF Exchange     Energy =  -6.74258035061657
 DFT Correlation      Energy =  -2.70008344498932
 DFT Exchange         Energy = -54.20660547962321
 One-Electron (alpha) Energy = -891.87048925530974
 One-Electron (beta)  Energy = -863.77883940463528
 Total Coulomb        Energy = 660.83392635743428
   28    -915.4177805622      2.24e-07  Convergence criterion met
 ---------------------------------------
 SCF time:   CPU 84.02s  wall 7.00s 
<S^2> =          2.007899070
 Alpha HF Exchange    Energy =  -6.92748364393421
 Beta HF Exchange     Energy =  -6.74258035061657
 DFT Correlation      Energy =  -2.70008344498932
 DFT Exchange         Energy = -54.20660547962321
 One-Electron (alpha) Energy = -891.87048925530974
 One-Electron (beta)  Energy = -863.77883940463528
 Total Coulomb        Energy = 660.83392635743428
 Nuclear repulsion Energy = 249.97437465944807
 SCF   energy in the final basis set =     -915.4177805622
 Total energy in the final basis set =     -915.4177805622
 
 --------------------------------------------------------------
 
                    Orbital Energies (a.u.)
 --------------------------------------------------------------
 
 Alpha MOs
 -- Occupied --
-88.894 -88.885 -10.242 -10.206 -10.194  -7.956  -7.948  -5.928
 -5.917  -5.913  -5.909  -5.909  -5.903  -0.827  -0.723  -0.716
 -0.695  -0.587  -0.480  -0.445  -0.432  -0.406  -0.396  -0.381
 -0.362  -0.345  -0.308  -0.262  -0.258  -0.211
 -- Virtual --
  0.013   0.056   0.059   0.101   0.121   0.130   0.158   0.170
  0.178   0.219   0.250   0.283   0.313   0.328   0.353   0.367
  0.376   0.404   0.482   0.489   0.515   0.542   0.566   0.568
  0.603   0.663   0.688   0.701   0.718   0.739   0.740   0.748
  0.751   0.797   0.808   0.829   0.861   0.875   0.882   0.904
  0.925   0.938   0.969   1.032   1.118   1.129   1.166   1.190
  1.343   1.429   1.442   1.543   1.690   1.760   1.825   1.868
  1.903   1.974   2.013   2.035   2.071   2.078   2.090   2.092
  2.103   2.113   2.120   2.274   2.306   2.354   2.395   2.492
  2.559   2.579   2.622   2.694   2.728   2.738   2.744   2.824
  2.863   2.909   3.179   3.284   3.370   3.406   3.461   3.501
  3.933   3.973   4.245   4.368   4.579
 
 Beta MOs
 -- Occupied --
-88.889 -88.884 -10.243 -10.194 -10.193  -7.951  -7.946  -5.914
 -5.911  -5.910  -5.907  -5.905  -5.902  -0.819  -0.711  -0.682
 -0.674  -0.578  -0.474  -0.441  -0.426  -0.402  -0.384  -0.376
 -0.359  -0.333  -0.252  -0.246
 -- Virtual --
 -0.165  -0.072   0.019   0.062   0.069   0.103   0.124   0.139
  0.159   0.171   0.181   0.224   0.257   0.292   0.325   0.338
  0.366   0.381   0.391   0.411   0.486   0.493   0.522   0.555
  0.571   0.603   0.618   0.670   0.697   0.717   0.745   0.748
  0.759   0.797   0.804   0.809   0.814   0.833   0.866   0.879
  0.885   0.911   0.928   0.945   0.979   1.046   1.126   1.134
  1.172   1.195   1.359   1.435   1.466   1.551   1.697   1.762
  1.829   1.877   1.922   1.995   2.024   2.036   2.072   2.081
  2.088   2.096   2.105   2.120   2.124   2.279   2.306   2.358
  2.406   2.506   2.574   2.591   2.624   2.698   2.730   2.741
  2.745   2.826   2.864   2.911   3.179   3.287   3.374   3.408
  3.462   3.506   3.950   3.978   4.262   4.380   4.582
 --------------------------------------------------------------
 
          Ground-State Mulliken Net Atomic Charges

     Atom                 Charge (a.u.)    Spin (a.u.)
  --------------------------------------------------------
      1 S                    -0.063107       0.150352
      2 S                    -0.108129       1.027759
      3 C                    -0.219193      -0.085639
      4 C                    -0.205219       1.007172
      5 C                    -0.301463       0.005847
      6 H                     0.148621       0.014068
      7 H                     0.109496      -0.044476
      8 H                     0.130585      -0.045003
      9 H                     0.120037      -0.000541
     10 H                     0.111046      -0.000633
     11 H                     0.126196       0.000980
     12 H                     0.069744      -0.002628
     13 H                     0.081388      -0.027257
  --------------------------------------------------------
  Sum of atomic charges =     0.000000
  Sum of spin   charges =     2.000000

 -----------------------------------------------------------------
                    Cartesian Multipole Moments
 -----------------------------------------------------------------
    Charge (ESU x 10^10)
                -0.0000
    Dipole Moment (Debye)
         X       2.2007      Y       1.2675      Z       0.6853
       Tot       2.6305
    Quadrupole Moments (Debye-Ang)
        XX     -54.8784     XY      -0.9001     YY     -50.3990
        XZ       1.0064     YZ      -1.1661     ZZ     -44.1596
    Octopole Moments (Debye-Ang^2)
       XXX     110.3229    XXY      29.5975    XYY      32.0636
       YYY      53.7705    XXZ      -1.4565    XYZ      -4.4029
       YYZ       2.1122    XZZ      24.6955    YZZ      15.5301
       ZZZ      -0.3396
    Hexadecapole Moments (Debye-Ang^3)
      XXXX   -1483.7584   XXXY    -204.5637   XXYY    -331.8259
      XYYY    -174.0737   YYYY    -426.3117   XXXZ      -0.0567
      XXYZ       0.9107   XYYZ       5.6408   YYYZ     -30.2751
      XXZZ    -235.5481   XYZZ     -51.2174   YYZZ     -82.3791
      XZZZ      -2.1241   YZZZ     -23.1574   ZZZZ     -95.3914
 -----------------------------------------------------------------
 Calculating analytic gradient of the SCF energy
 Gradient of SCF Energy
            1           2           3           4           5           6
    1  -0.0001793   0.0015050   0.0005403  -0.0008872   0.0001982   0.0000477
    2   0.0005890  -0.0000425  -0.0001774  -0.0007289  -0.0000941   0.0000398
    3   0.0000629  -0.0000560   0.0000662  -0.0001696  -0.0002465   0.0000507
            7           8           9          10          11          12
    1  -0.0000613  -0.0001185   0.0000439  -0.0000338   0.0000375  -0.0000335
    2   0.0000287  -0.0001990   0.0000242   0.0000038   0.0000226  -0.0000386
    3  -0.0000378   0.0000995  -0.0000001  -0.0000428   0.0000285   0.0000269
           13
    1  -0.0010590
    2   0.0005724
    3   0.0002181
 Max gradient component =       1.505E-03
 RMS gradient           =       3.929E-04
 Gradient time:  CPU 10.70 s  wall 0.95 s
 Geometry Optimization Parameters
   NAtoms,    NIC,     NZ,  NCons,   NDum,   NFix, NCnnct, MaxDiis
       13      80       0       1       0       0       0       0

 Cartesian Hessian Update
 Hessian Updated using BFGS Update


** CONSTRAINED OPTIMIZATION IN DELOCALIZED INTERNAL COORDINATES **
   Searching for a Minimum

   Optimization Cycle:   2

                       Coordinates (Angstroms)
     ATOM                X               Y               Z
      1  S         0.3886218164   -1.4183771403   -0.1833428197
      2  S        -3.6081731938   -0.9908847099   -0.0724768104
      3  C         0.6817183992    0.4712191092   -0.2515506158
      4  C        -0.2960566939    1.1461214935    0.6180949118
      5  C         2.1428114692    0.8025330878    0.0480984964
      6  H         0.4580795824    0.6619636442   -1.3068113627
      7  H        -0.0412010764    1.3668762395    1.6506116332
      8  H        -1.3329447510    1.2393541492    0.3157982570
      9  H         2.3159916569    1.8745885658   -0.0981156628
     10  H         2.3944711372    0.5612778721    1.0863580994
     11  H         2.8187054386    0.2462822424   -0.6052588437
     12  H         0.6042403490   -1.5496524827    1.1414787540
     13  H        -2.2865631338   -1.2863060708   -0.1538860366
   Point Group: c1    Number of degrees of freedom:    33


   Energy is   -915.417780562

              Constraints and their Current Values
                                        Value     Constraint
   Distance(Angs):        2   4             4.001725     4.000000
 Hessian Updated using BFGS Update

   Using Lagrange Multiplier Algorithm


 31 Hessian modes will be used to form the next step
  Hessian Eigenvalues:
    -0.998580    0.023508    0.045000    0.045102    0.046070    0.047131
     0.072633    0.078645    0.082704    0.084031    0.091020    0.095050
     0.160000    0.160103    0.160508    0.187885    0.193424    0.195259
     0.199961    0.211924    0.257385    0.261881    0.296821    0.341576
     0.341952    0.342202    0.345476    0.352613    0.355087    0.355169
     1.001533

 Minimum Search - Taking P-RFO Step
 Searching for Lamda that Maximizes Along the Constraint modes Only
 Value Taken    Lamda =   0.00000314
 Searching for Lamda that Minimizes Along All other modes
 Value Taken    Lamda =  -0.00002620
 Step Taken.  Stepsize is  0.012917

                             Maximum     Tolerance    Cnvgd?
         Gradient            0.003259       0.000300      NO
         Displacement        0.006525       0.001200      NO
         Energy change      0.000102       0.000001      NO


 New Cartesian Coordinates Obtained by Inverse Iteration

 Displacement from previous Coordinates is:  0.025149
 ----------------------------------------------------------------
             Standard Nuclear Orientation (Angstroms)
    I     Atom           X                Y                Z
 ----------------------------------------------------------------
    1      S       0.3890418052    -1.4205654154    -0.1851149047
    2      S      -3.6044257848    -0.9909331287    -0.0707499626
    3      C       0.6798121000     0.4707893557    -0.2520474372
    4      C      -0.2956609479     1.1487258088     0.6176795058
    5      C       2.1404626001     0.8015119052     0.0491267612
    6      H       0.4564048342     0.6618231879    -1.3073725886
    7      H      -0.0393109026     1.3694859318     1.6498872613
    8      H      -1.3320288364     1.2463832206     0.3153134962
    9      H       2.3138974879     1.8735250901    -0.0967713987
   10      H       2.3913177467     0.5599779852     1.0875887212
   11      H       2.8165020122     0.2450689270    -0.6039263848
   12      H       0.6054647413    -1.5520464463     1.1395012636
   13      H      -2.2817758562    -1.2887504219    -0.1541163327
 ----------------------------------------------------------------
 Nuclear Repulsion Energy =   249.9904703212 hartrees
 There are       30 alpha and       28 beta electrons

                       Distance Matrix (Angstroms)
             S (  1)   S (  2)   C (  3)   C (  4)   C (  5)   H (  6)
   S (  2)  4.018140
   C (  3)  1.914745  4.530364
   C (  4)  2.777509  4.000000  1.472267
   C (  5)  2.839009  6.019217  1.527607  2.525571
   H (  6)  2.366504  4.555347  1.095498  2.123323  2.166946
   H (  7)  3.366765  4.608928  2.223094  1.086234  2.763411  3.080894
   H (  8)  3.213274  3.212229  2.229562  1.083984  3.510977  2.484616
   H (  9)  3.816269  6.575131  2.159170  2.800994  1.095709  2.526669
   H ( 10)  3.090540  6.300477  2.175277  2.790572  1.095295  3.080601
   H ( 11)  2.973601  6.560510  2.177203  3.463304  1.092308  2.497715
   H ( 12)  1.348605  4.416190  2.456379  2.894563  3.014029  3.303124
   H ( 13)  2.674248  1.358325  3.446241  3.237532  4.895579  3.554205
             H (  7)   H (  8)   H (  9)   H ( 10)   H ( 11)   H ( 12)
   H (  8)  1.862085
   H (  9)  2.973628  3.722351
   H ( 10)  2.622868  3.864049  1.770341
   H ( 11)  3.807842  4.365540  1.778113  1.772335
   H ( 12)  3.035059  3.502053  4.022643  2.766336  3.340337
   H ( 13)  3.917818  2.747596  5.578843  5.176624  5.342974  3.174733

 
 Applying Cartesian multipole field
    Component          Value
    ---------          -----
     (2,0,0)        1.00000E-11
     (0,2,0)        2.00000E-11
     (0,0,2)       -3.00000E-11
 Nucleus-field energy     =     0.0000000136 hartrees
 Requested basis set is 6-31G(d,p)
 There are 46 shells and 123 basis functions
 A cutoff of  1.0D-14 yielded    989 shell pairs
 There are      7212 function pairs
 Smallest overlap matrix eigenvalue = 6.00E-03
 Guess from superposition of atomic densities
 Warning:  Energy on first SCF cycle will be non-variational
 SAD guess density has 58.000000 electrons

 -----------------------------------------------------------------------
  General SCF calculation program by
  Eric Jon Sundstrom, Paul Horn, Yuezhi Mao, Dmitri Zuev, Alec White,
  David Stuck, Shaama M.S., Shane Yost, Joonho Lee, David Small,
  Daniel Levine, Susi Lehtola, Hugh Burton, Evgeny Epifanovsky
 -----------------------------------------------------------------------
 Exchange:     0.2000 Hartree-Fock + 0.0800 Slater + 0.7200 B88
 Correlation:  0.1900 VWN1RPA + 0.8100 LYP
 Using SG-1 standard quadrature grid
 using 12 threads for integral computing
 -------------------------------------------------------
 OpenMP Integral computing Module                
 Release: version 1.0, May 2013, Q-Chem Inc. Pittsburgh 
 -------------------------------------------------------
 -------------------------------------------------------
 OpenMP BLAS3 based DFT computing Module                
 Release: version 1.0, May 2013, Q-Chem Inc. Pittsburgh 
 -------------------------------------------------------
 A unrestricted SCF calculation will be
 performed using DIIS
 SCF converges when DIIS error is below 1.0e-06
 Alpha HF Exchange    Energy =  -6.82258473304723
 Beta HF Exchange     Energy =  -6.82258473304723
 DFT Correlation      Energy =  -2.69591000794403
 DFT Exchange         Energy = -53.80713803128425
 One-Electron (alpha) Energy = -875.95527996078636
 One-Electron (beta)  Energy = -875.95527996078636
 Total Coulomb        Energy = 656.28800003040317
 ---------------------------------------
  Cycle       Energy         DIIS error
 ---------------------------------------
    1    -915.7803070617      2.59e-02  
 Alpha HF Exchange    Energy =  -6.95216158607423
 Beta HF Exchange     Energy =  -6.75880949061215
 DFT Correlation      Energy =  -2.71568392162857
 DFT Exchange         Energy = -54.41296655791356
 One-Electron (alpha) Energy = -893.44770998455840
 One-Electron (beta)  Energy = -865.09646183036364
 Total Coulomb        Energy = 664.06113529269237
    2    -915.3321877436      2.97e-03  
 Alpha HF Exchange    Energy =  -6.89956513791435
 Beta HF Exchange     Energy =  -6.72161361426377
 DFT Correlation      Energy =  -2.68880358202442
 DFT Exchange         Energy = -54.00630345099112
 One-Electron (alpha) Energy = -890.39306830943030
 One-Electron (beta)  Energy = -862.49704285318933
 Total Coulomb        Energy = 657.90388187543977
    3    -915.3120447375      3.46e-03  
 Alpha HF Exchange    Energy =  -6.92427630676175
 Beta HF Exchange     Energy =  -6.73894419854223
 DFT Correlation      Energy =  -2.70018407596037
 DFT Exchange         Energy = -54.18454275039036
 One-Electron (alpha) Energy = -891.73071177633165
 One-Electron (beta)  Energy = -863.59256688454320
 Total Coulomb        Energy = 660.46573025107045
    4    -915.4150254066      4.66e-04  
 Alpha HF Exchange    Energy =  -6.92781832247587
 Beta HF Exchange     Energy =  -6.74251233536132
 DFT Correlation      Energy =  -2.70045633654572
 DFT Exchange         Energy = -54.20933896152108
 One-Electron (alpha) Energy = -891.94256233268686
 One-Electron (beta)  Energy = -863.80075162513060
 Total Coulomb        Energy = 660.91601232732194
    5    -915.4169572516      2.29e-04  
 Alpha HF Exchange    Energy =  -6.92761485263410
 Beta HF Exchange     Energy =  -6.74231036113490
 DFT Correlation      Energy =  -2.70015826105514
 DFT Exchange         Energy = -54.20706727623130
 One-Electron (alpha) Energy = -891.91406839623221
 One-Electron (beta)  Energy = -863.77040815611213
 Total Coulomb        Energy = 660.85365848110973
    6    -915.4174984875      6.08e-05  
 Alpha HF Exchange    Energy =  -6.92729608039536
 Beta HF Exchange     Energy =  -6.74208696338258
 DFT Correlation      Energy =  -2.69994199572878
 DFT Exchange         Energy = -54.20440850614874
 One-Electron (alpha) Energy = -891.87823777728170
 One-Electron (beta)  Energy = -863.74250801857966
 Total Coulomb        Energy = 660.78646229718981
    7    -915.4175467095      2.05e-05  
 Alpha HF Exchange    Energy =  -6.92749934860081
 Beta HF Exchange     Energy =  -6.74230225737318
 DFT Correlation      Energy =  -2.69996400091008
 DFT Exchange         Energy = -54.20589888908854
 One-Electron (alpha) Energy = -891.89397601307542
 One-Electron (beta)  Energy = -863.75968449701656
 Total Coulomb        Energy = 660.82129820698697
    8    -915.4175564642      9.04e-06  
 Alpha HF Exchange    Energy =  -6.92746599388216
 Beta HF Exchange     Energy =  -6.74227665749550
 DFT Correlation      Energy =  -2.69993402001309
 DFT Exchange         Energy = -54.20560975458924
 One-Electron (alpha) Energy = -891.88823060897437
 One-Electron (beta)  Energy = -863.75531109582482
 Total Coulomb        Energy = 660.81079836136314
    9    -915.4175594346      4.28e-06  
 Alpha HF Exchange    Energy =  -6.92746583367016
 Beta HF Exchange     Energy =  -6.74228897731244
 DFT Correlation      Energy =  -2.69993443721358
 DFT Exchange         Energy = -54.20565282779427
 One-Electron (alpha) Energy = -891.88869664384265
 One-Electron (beta)  Energy = -863.75665465526038
 Total Coulomb        Energy = 660.81266157998698
   10    -915.4175614603      3.44e-06  
 Alpha HF Exchange    Energy =  -6.92746712247707
 Beta HF Exchange     Energy =  -6.74228658318072
 DFT Correlation      Energy =  -2.69993428116306
 DFT Exchange         Energy = -54.20564707339376
 One-Electron (alpha) Energy = -891.88848797473599
 One-Electron (beta)  Energy = -863.75654766400294
 Total Coulomb        Energy = 660.81233715410644
   11    -915.4175632100      3.23e-06  
 Alpha HF Exchange    Energy =  -6.92746757811284
 Beta HF Exchange     Energy =  -6.74228844559928
 DFT Correlation      Energy =  -2.69993523197570
 DFT Exchange         Energy = -54.20565673257209
 One-Electron (alpha) Energy = -891.88860271948090
 One-Electron (beta)  Energy = -863.75678874888558
 Total Coulomb        Energy = 660.81270417981159
   12    -915.4175649420      3.19e-06  
 Alpha HF Exchange    Energy =  -6.92746673884653
 Beta HF Exchange     Energy =  -6.74228859034921
 DFT Correlation      Energy =  -2.69993584493358
 DFT Exchange         Energy = -54.20565399548022
 One-Electron (alpha) Energy = -891.88857808253556
 One-Electron (beta)  Energy = -863.75694906815761
 Total Coulomb        Energy = 660.81283453054505
   13    -915.4175674549      3.18e-06  
 Alpha HF Exchange    Energy =  -6.92746596075663
 Beta HF Exchange     Energy =  -6.74229114589928
 DFT Correlation      Energy =  -2.69993768609269
 DFT Exchange         Energy = -54.20565979826820
 One-Electron (alpha) Energy = -891.88858779821021
 One-Electron (beta)  Energy = -863.75746713043668
 Total Coulomb        Energy = 660.81336526039445
   14    -915.4175739244      3.17e-06  
 Alpha HF Exchange    Energy =  -6.92746168745207
 Beta HF Exchange     Energy =  -6.74230372396549
 DFT Correlation      Energy =  -2.69994318080967
 DFT Exchange         Energy = -54.20568751039233
 One-Electron (alpha) Energy = -891.88854637044517
 One-Electron (beta)  Energy = -863.75948110248066
 Total Coulomb        Energy = 660.81535882076241
   15    -915.4175944199      3.24e-06  
 Alpha HF Exchange    Energy =  -6.92746189277172
 Beta HF Exchange     Energy =  -6.74229998260655
 DFT Correlation      Energy =  -2.69994237828883
 DFT Exchange         Energy = -54.20567497395197
 One-Electron (alpha) Energy = -891.88853031494284
 One-Electron (beta)  Energy = -863.75906670156849
 Total Coulomb        Energy = 660.81491458022845
   16    -915.4175913291      3.14e-06  
 Alpha HF Exchange    Energy =  -6.92741500419012
 Beta HF Exchange     Energy =  -6.74299710383629
 DFT Correlation      Energy =  -2.69997134481371
 DFT Exchange         Energy = -54.20803427781540
 One-Electron (alpha) Energy = -891.88669951558836
 One-Electron (beta)  Energy = -863.81338458743869
 Total Coulomb        Energy = 660.87043156242908
   17    -915.4175999364      1.04e-04  
 Alpha HF Exchange    Energy =  -6.92743044087410
 Beta HF Exchange     Energy =  -6.74267506223419
 DFT Correlation      Energy =  -2.69997345172603
 DFT Exchange         Energy = -54.20691135752666
 One-Electron (alpha) Energy = -891.88762024881521
 One-Electron (beta)  Energy = -863.79115567504925
 Total Coulomb        Energy = 660.84761512979821
   18    -915.4176807716      5.24e-05  
 Alpha HF Exchange    Energy =  -6.92743476874299
 Beta HF Exchange     Energy =  -6.74266617482643
 DFT Correlation      Energy =  -2.69997301483879
 DFT Exchange         Energy = -54.20689911931751
 One-Electron (alpha) Energy = -891.88778644650961
 One-Electron (beta)  Energy = -863.79016864798871
 Total Coulomb        Energy = 660.84677984477298
   19    -915.4176779926      5.12e-05  
 Alpha HF Exchange    Energy =  -6.92743454479564
 Beta HF Exchange     Energy =  -6.74266838198827
 DFT Correlation      Energy =  -2.69997288742943
 DFT Exchange         Energy = -54.20690621235428
 One-Electron (alpha) Energy = -891.88777179533236
 One-Electron (beta)  Energy = -863.79031460226622
 Total Coulomb        Energy = 660.84692046088810
   20    -915.4176776284      5.16e-05  
 Alpha HF Exchange    Energy =  -6.92741114425620
 Beta HF Exchange     Energy =  -6.74280420675390
 DFT Correlation      Energy =  -2.69998481147135
 DFT Exchange         Energy = -54.20729857819389
 One-Electron (alpha) Energy = -891.88693631365436
 One-Electron (beta)  Energy = -863.80243251674653
 Total Coulomb        Energy = 660.85871251852791
   21    -915.4176847177      6.95e-05  
 Alpha HF Exchange    Energy =  -6.92739128747449
 Beta HF Exchange     Energy =  -6.74298392047688
 DFT Correlation      Energy =  -2.69999653784255
 DFT Exchange         Energy = -54.20786106277690
 One-Electron (alpha) Energy = -891.88638808793121
 One-Electron (beta)  Energy = -863.81725797712500
 Total Coulomb        Energy = 660.87374920811681
   22    -915.4176593307      9.29e-05  
 Alpha HF Exchange    Energy =  -6.92738309026755
 Beta HF Exchange     Energy =  -6.74305391858977
 DFT Correlation      Energy =  -2.69999592210683
 DFT Exchange         Energy = -54.20808332208940
 One-Electron (alpha) Energy = -891.88593242473496
 One-Electron (beta)  Energy = -863.82217001079425
 Total Coulomb        Energy = 660.87851418540708
   23    -915.4176341683      1.04e-04  
 Alpha HF Exchange    Energy =  -6.92738634143861
 Beta HF Exchange     Energy =  -6.74299077111001
 DFT Correlation      Energy =  -2.70000331237350
 DFT Exchange         Energy = -54.20785853297704
 One-Electron (alpha) Energy = -891.88637981489342
 One-Electron (beta)  Energy = -863.81895026059328
 Total Coulomb        Energy = 660.87543029687777
   24    -915.4176684017      9.15e-05  
 Alpha HF Exchange    Energy =  -6.92738290043828
 Beta HF Exchange     Energy =  -6.74301242334619
 DFT Correlation      Energy =  -2.70000590518850
 DFT Exchange         Energy = -54.20792020352178
 One-Electron (alpha) Energy = -891.88630721740412
 One-Electron (beta)  Energy = -863.82093432535567
 Total Coulomb        Energy = 660.87742800973956
   25    -915.4176646307      9.40e-05  
 Alpha HF Exchange    Energy =  -6.92738590280883
 Beta HF Exchange     Energy =  -6.74292688445920
 DFT Correlation      Energy =  -2.70001090397460
 DFT Exchange         Energy = -54.20761534247419
 One-Electron (alpha) Energy = -891.88664094095873
 One-Electron (beta)  Energy = -863.81587235789175
 Total Coulomb        Energy = 660.87228206207749
   26    -915.4176999357      7.89e-05  
 Alpha HF Exchange    Energy =  -6.92738890440153
 Beta HF Exchange     Energy =  -6.74271140064890
 DFT Correlation      Energy =  -2.70002609029929
 DFT Exchange         Energy = -54.20682055038431
 One-Electron (alpha) Energy = -891.88710853137582
 One-Electron (beta)  Energy = -863.80385678082985
 Total Coulomb        Energy = 660.85967656602793
   27    -915.4177653571      4.00e-05  
 Alpha HF Exchange    Energy =  -6.92739053360867
 Beta HF Exchange     Energy =  -6.74252970112196
 DFT Correlation      Energy =  -2.70004719004791
 DFT Exchange         Energy = -54.20614049487540
 One-Electron (alpha) Energy = -891.88790699444951
 One-Electron (beta)  Energy = -863.79539145885974
 Total Coulomb        Energy = 660.85114524285098
   28    -915.4177907953      3.42e-06  
 Alpha HF Exchange    Energy =  -6.92738710862713
 Beta HF Exchange     Energy =  -6.74254311787269
 DFT Correlation      Energy =  -2.70005008434736
 DFT Exchange         Energy = -54.20617042780253
 One-Electron (alpha) Energy = -891.88774685299506
 One-Electron (beta)  Energy = -863.79689124719357
 Total Coulomb        Energy = 660.85252744026502
   29    -915.4177910637      4.11e-06  
 Alpha HF Exchange    Energy =  -6.92738736853783
 Beta HF Exchange     Energy =  -6.74251522049735
 DFT Correlation      Energy =  -2.70005138132819
 DFT Exchange         Energy = -54.20606801472141
 One-Electron (alpha) Energy = -891.88778305789765
 One-Electron (beta)  Energy = -863.79528590073608
 Total Coulomb        Energy = 660.85082931763270
   30    -915.4177912912      7.14e-07  Convergence criterion met
 ---------------------------------------
 SCF time:   CPU 89.29s  wall 8.00s 
<S^2> =          2.007891180
 Alpha HF Exchange    Energy =  -6.92738736853783
 Beta HF Exchange     Energy =  -6.74251522049735
 DFT Correlation      Energy =  -2.70005138132819
 DFT Exchange         Energy = -54.20606801472141
 One-Electron (alpha) Energy = -891.88778305789765
 One-Electron (beta)  Energy = -863.79528590073608
 Total Coulomb        Energy = 660.85082931763270
 Nuclear repulsion Energy = 249.99047033483757
 SCF   energy in the final basis set =     -915.4177912912
 Total energy in the final basis set =     -915.4177912912
 
 --------------------------------------------------------------
 
                    Orbital Energies (a.u.)
 --------------------------------------------------------------
 
 Alpha MOs
 -- Occupied --
-88.894 -88.885 -10.242 -10.206 -10.194  -7.956  -7.948  -5.927
 -5.917  -5.913  -5.909  -5.909  -5.903  -0.827  -0.723  -0.716
 -0.695  -0.587  -0.480  -0.445  -0.432  -0.406  -0.396  -0.381
 -0.363  -0.345  -0.307  -0.262  -0.258  -0.212
 -- Virtual --
  0.013   0.055   0.059   0.101   0.121   0.130   0.158   0.170
  0.178   0.219   0.250   0.283   0.313   0.328   0.353   0.367
  0.376   0.404   0.482   0.489   0.516   0.542   0.566   0.568
  0.604   0.662   0.688   0.701   0.718   0.739   0.740   0.748
  0.751   0.796   0.808   0.829   0.861   0.876   0.882   0.904
  0.925   0.938   0.969   1.032   1.118   1.129   1.165   1.191
  1.343   1.429   1.441   1.543   1.690   1.760   1.825   1.868
  1.903   1.973   2.012   2.035   2.071   2.078   2.089   2.092
  2.103   2.113   2.120   2.274   2.306   2.354   2.394   2.493
  2.559   2.579   2.623   2.694   2.726   2.738   2.744   2.824
  2.863   2.908   3.179   3.284   3.369   3.406   3.461   3.501
  3.932   3.973   4.245   4.368   4.579
 
 Beta MOs
 -- Occupied --
-88.889 -88.884 -10.243 -10.194 -10.193  -7.950  -7.947  -5.914
 -5.911  -5.909  -5.907  -5.905  -5.902  -0.819  -0.711  -0.682
 -0.674  -0.578  -0.475  -0.441  -0.426  -0.403  -0.384  -0.376
 -0.359  -0.333  -0.252  -0.245
 -- Virtual --
 -0.165  -0.072   0.019   0.062   0.069   0.103   0.124   0.139
  0.159   0.171   0.182   0.224   0.257   0.292   0.325   0.338
  0.365   0.381   0.391   0.411   0.486   0.493   0.523   0.555
  0.571   0.604   0.618   0.669   0.697   0.717   0.745   0.748
  0.759   0.797   0.804   0.809   0.814   0.833   0.866   0.880
  0.885   0.911   0.927   0.945   0.978   1.046   1.125   1.133
  1.170   1.195   1.359   1.435   1.466   1.552   1.697   1.762
  1.829   1.877   1.922   1.995   2.024   2.036   2.072   2.081
  2.088   2.096   2.105   2.120   2.124   2.279   2.307   2.357
  2.406   2.506   2.574   2.591   2.625   2.697   2.728   2.740
  2.745   2.826   2.864   2.911   3.179   3.287   3.374   3.408
  3.462   3.506   3.950   3.977   4.262   4.380   4.582
 --------------------------------------------------------------
 
          Ground-State Mulliken Net Atomic Charges

     Atom                 Charge (a.u.)    Spin (a.u.)
  --------------------------------------------------------
      1 S                    -0.063451       0.150460
      2 S                    -0.108515       1.027811
      3 C                    -0.219036      -0.085798
      4 C                    -0.204769       1.007155
      5 C                    -0.301488       0.005915
      6 H                     0.148617       0.014020
      7 H                     0.109609      -0.044469
      8 H                     0.130650      -0.045015
      9 H                     0.120007      -0.000545
     10 H                     0.111049      -0.000646
     11 H                     0.126174       0.001035
     12 H                     0.069806      -0.002635
     13 H                     0.081347      -0.027289
  --------------------------------------------------------
  Sum of atomic charges =    -0.000000
  Sum of spin   charges =     2.000000

 -----------------------------------------------------------------
                    Cartesian Multipole Moments
 -----------------------------------------------------------------
    Charge (ESU x 10^10)
                 0.0000
    Dipole Moment (Debye)
         X       2.2034      Y       1.2735      Z       0.6862
       Tot       2.6359
    Quadrupole Moments (Debye-Ang)
        XX     -54.9012     XY      -0.9178     YY     -50.3819
        XZ       1.0223     YZ      -1.1569     ZZ     -44.1686
    Octopole Moments (Debye-Ang^2)
       XXX     110.2030    XXY      29.6343    XYY      32.0135
       YYY      53.8471    XXZ      -1.4855    XYZ      -4.4364
       YYZ       2.1109    XZZ      24.6852    YZZ      15.5713
       ZZZ      -0.3391
    Hexadecapole Moments (Debye-Ang^3)
      XXXX   -1481.0890   XXXY    -204.2955   XXYY    -331.4300
      XYYY    -173.7826   YYYY    -426.9980   XXXZ       0.3557
      XXYZ       0.9862   XYYZ       5.7929   YYYZ     -30.3266
      XXZZ    -235.2057   XYZZ     -51.1312   YYZZ     -82.5140
      XZZZ      -1.9133   YZZZ     -23.2414   ZZZZ     -95.4130
 -----------------------------------------------------------------
 Calculating analytic gradient of the SCF energy
 Gradient of SCF Energy
            1           2           3           4           5           6
[...]
 Total Coulomb        Energy = 660.76213121597084
   11    -915.4176223072      3.27e-06  
 Alpha HF Exchange    Energy =  -6.92745176896840
 Beta HF Exchange     Energy =  -6.74211603101675
 DFT Correlation      Energy =  -2.69984597167653
 DFT Exchange         Energy = -54.20514426519180
 One-Electron (alpha) Energy = -891.84400631545520
 One-Electron (beta)  Energy = -863.69386258780264
 Total Coulomb        Energy = 660.76244749070611
   12    -915.4176242040      3.22e-06  
 Alpha HF Exchange    Energy =  -6.92745097808276
 Beta HF Exchange     Energy =  -6.74211632501871
 DFT Correlation      Energy =  -2.69984674492328
 DFT Exchange         Energy = -54.20514248199598
 One-Electron (alpha) Energy = -891.84399077795979
 One-Electron (beta)  Energy = -863.69406424843248
 Total Coulomb        Energy = 660.76262932690236
   13    -915.4176269841      3.21e-06  
 Alpha HF Exchange    Energy =  -6.92744984586780
 Beta HF Exchange     Energy =  -6.74211974389180
 DFT Correlation      Energy =  -2.69984907419657
 DFT Exchange         Energy = -54.20514969618662
 One-Electron (alpha) Energy = -891.84398423799507
 One-Electron (beta)  Energy = -863.69477072867244
 Total Coulomb        Energy = 660.76333266064387
   14    -915.4176354208      3.17e-06  
 Alpha HF Exchange    Energy =  -6.92744518050781
 Beta HF Exchange     Energy =  -6.74213487362342
 DFT Correlation      Energy =  -2.69985497753566
 DFT Exchange         Energy = -54.20518415453301
 One-Electron (alpha) Energy = -891.84392864002473
 One-Electron (beta)  Energy = -863.69712442623995
 Total Coulomb        Energy = 660.76565992312953
   15    -915.4176570840      3.28e-06  
 Alpha HF Exchange    Energy =  -6.92744525508870
 Beta HF Exchange     Energy =  -6.74213231116190
 DFT Correlation      Energy =  -2.69985452274360
 DFT Exchange         Energy = -54.20517547330607
 One-Electron (alpha) Energy = -891.84391750719601
 One-Electron (beta)  Energy = -863.69685284323668
 Total Coulomb        Energy = 660.76536733361593
   16    -915.4176553337      3.19e-06  
 Alpha HF Exchange    Energy =  -6.92739379055964
 Beta HF Exchange     Energy =  -6.74294054466564
 DFT Correlation      Energy =  -2.69987961831126
 DFT Exchange         Energy = -54.20786416571975
 One-Electron (alpha) Energy = -891.84153084684056
 One-Electron (beta)  Energy = -863.75927153093323
 Total Coulomb        Energy = 660.82891128663721
   17    -915.4176139650      1.16e-04  
 Alpha HF Exchange    Energy =  -6.92741000986745
 Beta HF Exchange     Energy =  -6.74259132670739
 DFT Correlation      Energy =  -2.69988477023718
 DFT Exchange         Energy = -54.20666508575141
 One-Electron (alpha) Energy = -891.84262639630288
 One-Electron (beta)  Energy = -863.73536762217191
 Total Coulomb        Energy = 660.80446444312815
   18    -915.4177255225      6.20e-05  
 Alpha HF Exchange    Energy =  -6.92741654145372
 Beta HF Exchange     Energy =  -6.74255859276837
 DFT Correlation      Energy =  -2.69988456226711
 DFT Exchange         Energy = -54.20657749190795
 One-Electron (alpha) Energy = -891.84292631360915
 One-Electron (beta)  Energy = -863.73264681380726
 Total Coulomb        Energy = 660.80192774059969
   19    -915.4177273298      5.74e-05  
 Alpha HF Exchange    Energy =  -6.92741344837843
 Beta HF Exchange     Energy =  -6.74259889347302
 DFT Correlation      Energy =  -2.69988329891196
 DFT Exchange         Energy = -54.20671025826204
 One-Electron (alpha) Energy = -891.84272412766404
 One-Electron (beta)  Energy = -863.73536464374376
 Total Coulomb        Energy = 660.80462007786571
   20    -915.4177193472      6.38e-05  
 Alpha HF Exchange    Energy =  -6.92736971100929
 Beta HF Exchange     Energy =  -6.74305317896485
 DFT Correlation      Energy =  -2.69988771503646
 DFT Exchange         Energy = -54.20815152952265
 One-Electron (alpha) Energy = -891.84044276027009
 One-Electron (beta)  Energy = -863.76942326208314
 Total Coulomb        Energy = 660.83838723367091
   21    -915.4175856778      1.29e-04  
 Alpha HF Exchange    Energy =  -6.92736656445964
 Beta HF Exchange     Energy =  -6.74299029625372
 DFT Correlation      Energy =  -2.69989424744859
 DFT Exchange         Energy = -54.20790263211866
 One-Electron (alpha) Energy = -891.84044934589883
 One-Electron (beta)  Energy = -863.76621074222658
 Total Coulomb        Energy = 660.83483075687150
   22    -915.4176278262      1.17e-04  
 Alpha HF Exchange    Energy =  -6.92736712718083
 Beta HF Exchange     Energy =  -6.74297314172502
 DFT Correlation      Energy =  -2.69989546450924
 DFT Exchange         Energy = -54.20784210178242
 One-Electron (alpha) Energy = -891.84052561088026
 One-Electron (beta)  Energy = -863.76519787358700
 Total Coulomb        Energy = 660.83380880276661
   23    -915.4176372715      1.14e-04  
 Alpha HF Exchange    Energy =  -6.92736871213522
 Beta HF Exchange     Energy =  -6.74287895153355
 DFT Correlation      Energy =  -2.69990056373662
 DFT Exchange         Energy = -54.20750376893563
 One-Electron (alpha) Energy = -891.84072269466640
 One-Electron (beta)  Energy = -863.75943799746881
 Total Coulomb        Energy = 660.82777478313812
   24    -915.4176826600      9.83e-05  
 Alpha HF Exchange    Energy =  -6.92737396832342
 Beta HF Exchange     Energy =  -6.74274999671103
 DFT Correlation      Energy =  -2.69991236580625
 DFT Exchange         Energy = -54.20704658970287
 One-Electron (alpha) Energy = -891.84144284305819
 One-Electron (beta)  Energy = -863.75245497493722
 Total Coulomb        Energy = 660.82088516984220
   25    -915.4177403233      7.46e-05  
 Alpha HF Exchange    Energy =  -6.92737085464906
 Beta HF Exchange     Energy =  -6.74264834975089
 DFT Correlation      Energy =  -2.69992479479092
 DFT Exchange         Energy = -54.20664994417539
 One-Electron (alpha) Energy = -891.84160272612996
 One-Electron (beta)  Energy = -863.74785712753464
 Total Coulomb        Energy = 660.81591974954256
   26    -915.4177788021      5.47e-05  
 Alpha HF Exchange    Energy =  -6.92737121036531
 Beta HF Exchange     Energy =  -6.74250237350975
 DFT Correlation      Energy =  -2.69994070008601
 DFT Exchange         Energy = -54.20610179956794
 One-Electron (alpha) Energy = -891.84201172324799
 One-Electron (beta)  Energy = -863.74090830185071
 Total Coulomb        Energy = 660.80866830132425
   27    -915.4178125619      2.61e-05  
 Alpha HF Exchange    Energy =  -6.92737115779814
 Beta HF Exchange     Energy =  -6.74232991769405
 DFT Correlation      Energy =  -2.69995363844486
 DFT Exchange         Energy = -54.20546402065880
 One-Electron (alpha) Energy = -891.84230373677042
 One-Electron (beta)  Energy = -863.73185448535548
 Total Coulomb        Energy = 660.79909974099405
   28    -915.4178219704      5.11e-06  
 Alpha HF Exchange    Energy =  -6.92737098836382
 Beta HF Exchange     Energy =  -6.74237057846190
 DFT Correlation      Energy =  -2.69995212326615
 DFT Exchange         Energy = -54.20561108264947
 One-Electron (alpha) Energy = -891.84224821602015
 One-Electron (beta)  Energy = -863.73425238569826
 Total Coulomb        Energy = 660.80162782065008
   29    -915.4178223084      1.48e-06  
 Alpha HF Exchange    Energy =  -6.92737089829139
 Beta HF Exchange     Energy =  -6.74236503637564
 DFT Correlation      Energy =  -2.69995255959847
 DFT Exchange         Energy = -54.20559023344852
 One-Electron (alpha) Energy = -891.84224875171662
 One-Electron (beta)  Energy = -863.73397438156042
 Total Coulomb        Energy = 660.80132427925105
   30    -915.4178223364      4.57e-07  Convergence criterion met
 ---------------------------------------
 SCF time:   CPU 89.43s  wall 7.00s 
<S^2> =          2.007915495
 Alpha HF Exchange    Energy =  -6.92737089829139
 Beta HF Exchange     Energy =  -6.74236503637564
 DFT Correlation      Energy =  -2.69995255959847
 DFT Exchange         Energy = -54.20559023344852
 One-Electron (alpha) Energy = -891.84224875171662
 One-Electron (beta)  Energy = -863.73397438156042
 Total Coulomb        Energy = 660.80132427925105
 Nuclear repulsion Energy = 249.93235524537721
 SCF   energy in the final basis set =     -915.4178223364
 Total energy in the final basis set =     -915.4178223364
 
 --------------------------------------------------------------
 
                    Orbital Energies (a.u.)
 --------------------------------------------------------------
 
 Alpha MOs
 -- Occupied --
-88.894 -88.885 -10.242 -10.206 -10.194  -7.956  -7.947  -5.927
 -5.917  -5.912  -5.909  -5.909  -5.902  -0.826  -0.723  -0.715
 -0.695  -0.587  -0.480  -0.445  -0.431  -0.407  -0.395  -0.381
 -0.362  -0.345  -0.307  -0.262  -0.257  -0.212
 -- Virtual --
  0.013   0.056   0.058   0.101   0.121   0.130   0.158   0.170
  0.178   0.219   0.250   0.283   0.313   0.329   0.353   0.367
  0.376   0.403   0.482   0.490   0.515   0.542   0.566   0.569
  0.604   0.662   0.687   0.701   0.718   0.738   0.741   0.748
  0.751   0.797   0.808   0.829   0.860   0.875   0.882   0.904
  0.923   0.936   0.967   1.032   1.117   1.129   1.162   1.190
  1.343   1.429   1.439   1.542   1.689   1.760   1.825   1.868
  1.903   1.973   2.012   2.036   2.072   2.077   2.088   2.093
  2.104   2.115   2.121   2.274   2.307   2.354   2.394   2.493
  2.559   2.579   2.623   2.694   2.725   2.737   2.744   2.824
  2.863   2.908   3.179   3.283   3.371   3.407   3.461   3.501
  3.933   3.972   4.245   4.369   4.578
 
 Beta MOs
 -- Occupied --
-88.889 -88.884 -10.243 -10.194 -10.193  -7.951  -7.946  -5.914
 -5.911  -5.910  -5.907  -5.905  -5.901  -0.819  -0.711  -0.682
 -0.674  -0.577  -0.474  -0.441  -0.425  -0.403  -0.384  -0.375
 -0.359  -0.333  -0.252  -0.245
 -- Virtual --
 -0.165  -0.072   0.019   0.064   0.067   0.103   0.124   0.139
  0.159   0.171   0.182   0.224   0.257   0.292   0.325   0.338
  0.366   0.381   0.391   0.411   0.486   0.493   0.522   0.555
  0.572   0.604   0.618   0.670   0.697   0.717   0.744   0.749
  0.759   0.797   0.803   0.810   0.814   0.833   0.865   0.879
  0.885   0.910   0.927   0.942   0.976   1.047   1.124   1.133
  1.167   1.195   1.360   1.436   1.463   1.551   1.696   1.762
  1.829   1.878   1.921   1.995   2.023   2.036   2.074   2.080
  2.086   2.098   2.106   2.121   2.124   2.279   2.308   2.357
  2.405   2.507   2.573   2.592   2.625   2.698   2.728   2.739
  2.745   2.826   2.864   2.911   3.179   3.286   3.375   3.408
  3.462   3.507   3.950   3.977   4.262   4.381   4.581
 --------------------------------------------------------------
 
          Ground-State Mulliken Net Atomic Charges

     Atom                 Charge (a.u.)    Spin (a.u.)
  --------------------------------------------------------
      1 S                    -0.064717       0.152157
      2 S                    -0.110699       1.026354
      3 C                    -0.218677      -0.085968
      4 C                    -0.203951       1.007204
      5 C                    -0.301412       0.006219
      6 H                     0.148560       0.013592
      7 H                     0.109572      -0.044485
      8 H                     0.131133      -0.045110
      9 H                     0.119869      -0.000541
     10 H                     0.110996      -0.000681
     11 H                     0.126081       0.001218
     12 H                     0.069623      -0.002763
     13 H                     0.083621      -0.027196
  --------------------------------------------------------
  Sum of atomic charges =    -0.000000
  Sum of spin   charges =     2.000000

 -----------------------------------------------------------------
                    Cartesian Multipole Moments
 -----------------------------------------------------------------
    Charge (ESU x 10^10)
                 0.0000
    Dipole Moment (Debye)
         X       2.1865      Y       1.2365      Z       0.6375
       Tot       2.5916
    Quadrupole Moments (Debye-Ang)
        XX     -54.8446     XY      -0.8144     YY     -50.1134
        XZ       1.2433     YZ      -0.9273     ZZ     -44.2580
    Octopole Moments (Debye-Ang^2)
       XXX     109.9915    XXY      29.1618    XYY      31.1301
       YYY      52.5473    XXZ      -2.6058    XYZ      -5.2235
       YYZ       1.4578    XZZ      25.0900    YZZ      15.3939
       ZZZ      -1.0011
    Hexadecapole Moments (Debye-Ang^3)
      XXXX   -1480.4914   XXXY    -202.7401   XXYY    -328.4519
      XYYY    -169.8995   YYYY    -424.3889   XXXZ       4.3863
      XXYZ       4.1484   XYYZ       7.1790   YYYZ     -29.1182
      XXZZ    -236.4755   XYZZ     -50.9224   YYZZ     -82.3530
      XZZZ      -1.7393   YZZZ     -22.5996   ZZZZ     -95.7805
 -----------------------------------------------------------------
 Calculating analytic gradient of the SCF energy
 Gradient of SCF Energy
            1           2           3           4           5           6
    1   0.0000092   0.0004097  -0.0000345  -0.0004458   0.0000236   0.0000346
    2   0.0000637   0.0002728  -0.0000361  -0.0003617   0.0000224   0.0000183
    3  -0.0000481   0.0000524   0.0000195  -0.0000467  -0.0000006  -0.0000036
            7           8           9          10          11          12
    1   0.0000195   0.0000172  -0.0000020  -0.0000017  -0.0000029   0.0000103
    2   0.0000402   0.0000323  -0.0000023  -0.0000007  -0.0000062  -0.0000151
    3  -0.0000137  -0.0000095   0.0000074   0.0000062   0.0000089  -0.0000068
           13
    1  -0.0000371
    2  -0.0000276
    3   0.0000345
 Max gradient component =       4.458E-04
 RMS gradient           =       1.236E-04
 Gradient time:  CPU 10.71 s  wall 0.96 s
 Geometry Optimization Parameters
   NAtoms,    NIC,     NZ,  NCons,   NDum,   NFix, NCnnct, MaxDiis
       13      80       0       1       0       0       0       0

 Cartesian Hessian Update
 Hessian Updated using BFGS Update


** CONSTRAINED OPTIMIZATION IN DELOCALIZED INTERNAL COORDINATES **
   Searching for a Minimum

   Optimization Cycle:  17

                       Coordinates (Angstroms)
     ATOM                X               Y               Z
      1  S         0.3876486679   -1.4201866930   -0.1720300514
      2  S        -3.6026994052   -0.9764377334   -0.0678820753
      3  C         0.6771064301    0.4718631026   -0.2464815286
      4  C        -0.2904690519    1.1559855097    0.6263091513
      5  C         2.1401874600    0.8017586189    0.0458490143
      6  H         0.4482700316    0.6591082736   -1.3011930156
      7  H        -0.0299061466    1.3736677612    1.6580551164
      8  H        -1.3251865948    1.2692145915    0.3235981719
      9  H         2.3140260200    1.8731871187   -0.1037710544
     10  H         2.3962553028    0.5627813920    1.0836554643
     11  H         2.8123200915    0.2427526295   -0.6090930357
     12  H         0.6128042030   -1.5476246051    1.1514464340
     13  H        -2.3006560084   -1.3410739662   -0.1994645913
   Point Group: c1    Number of degrees of freedom:    33


   Energy is   -915.417822336

              Constraints and their Current Values
                                        Value     Constraint
   Distance(Angs):        2   4             4.000000     4.000000
 Hessian Updated using BFGS Update

 32 Hessian modes will be used to form the next step
  Hessian Eigenvalues:
     0.002000    0.004232    0.007539    0.026240    0.044664    0.049173
     0.070702    0.078601    0.082588    0.084076    0.089869    0.097925
     0.155310    0.159959    0.160009    0.160093    0.160515    0.162496
     0.169701    0.187326    0.193251    0.200334    0.257314    0.263589
     0.303790    0.341599    0.342112    0.342841    0.345523    0.352773
     0.356594    0.358836

 Minimum Search - Taking Simple RFO Step
 Searching for Lamda that Minimizes Along All modes
 Value Taken    Lamda =   0.00000000
 Step Taken.  Stepsize is  0.006311

                             Maximum     Tolerance    Cnvgd?
         Gradient           0.000055      0.000300     YES
         Displacement       0.003143      0.001200      NO
         Energy change     -0.000001      0.000001     YES


                       Distance Matrix (Angstroms)
             S (  1)   S (  2)   C (  3)   C (  4)   C (  5)   H (  6)
   S (  2)  4.016297
   C (  3)  1.915511  4.521749
   C (  4)  2.780980  4.000000  1.471730
   C (  5)  2.838293  6.012958  1.528036  2.523985
   H (  6)  2.366886  4.539429  1.095374  2.123179  2.167362
   H (  7)  3.365886  4.611584  2.222696  1.086176  2.763258  3.081622
   H (  8)  3.226814  3.222309  2.229336  1.084018  3.507774  2.481396
   H (  9)  3.816006  6.567289  2.159533  2.798355  1.095703  2.527618
   H ( 10)  3.089241  6.299420  2.175547  2.789183  1.095319  3.080816
   H ( 11)  2.972444  6.552237  2.177870  3.462299  1.092337  2.498217
   H ( 12)  1.348527  4.425323  2.456963  2.898479  3.012449  3.303359
   H ( 13)  2.689608  1.358525  3.486549  3.310296  4.936902  3.573672
             H (  7)   H (  8)   H (  9)   H ( 10)   H ( 11)   H ( 12)
   H (  8)  1.862643
   H (  9)  2.974486  3.713663
   H ( 10)  2.621780  3.863401  1.770284
   H ( 11)  3.807516  4.363771  1.778191  1.772266
   H ( 12)  3.033756  3.517915  4.021403  2.763893  3.338086
   H ( 13)  3.997062  2.835267  5.624582  5.228005  5.368317  3.218054

 
 Final energy is   -915.417822336363     


 ******************************
 **  OPTIMIZATION CONVERGED  **
 ******************************

                       Coordinates (Angstroms)
     ATOM                X               Y               Z
      1  S         0.3876486679   -1.4201866930   -0.1720300514
      2  S        -3.6026994052   -0.9764377334   -0.0678820753
      3  C         0.6771064301    0.4718631026   -0.2464815286
      4  C        -0.2904690519    1.1559855097    0.6263091513
      5  C         2.1401874600    0.8017586189    0.0458490143
      6  H         0.4482700316    0.6591082736   -1.3011930156
      7  H        -0.0299061466    1.3736677612    1.6580551164
      8  H        -1.3251865948    1.2692145915    0.3235981719
      9  H         2.3140260200    1.8731871187   -0.1037710544
     10  H         2.3962553028    0.5627813920    1.0836554643
     11  H         2.8123200915    0.2427526295   -0.6090930357
     12  H         0.6128042030   -1.5476246051    1.1514464340
     13  H        -2.3006560084   -1.3410739662   -0.1994645913

Z-matrix Print:
$molecule
0 3
S 
H  1 1.348527
C  1 1.915511 2 96.099732
H  3 1.095374 1 100.061424 2 -176.740552 0
C  3 1.471730 1 109.679076 2 -60.284006 0
H  5 1.084018 3 120.696475 1 -75.544011 0
H  5 1.086176 3 119.918350 1 92.059396 0
C  3 1.528036 1 110.518144 2 66.960284 0
H  8 1.092337 3 111.344144 1 53.671966 0
H  8 1.095319 3 110.977905 1 -66.942882 0
H  8 1.095703 3 109.688046 1 174.054330 0
H  1 2.689608 2 100.350743 3 -98.269096 0
S  12 1.358525 1 164.767284 2 71.261517 0
$end

PES scan, value:    4.0000 energy: -915.4178223364
------- Summary of potential scan: ------ 
    4.0000      -915.4178223364
----------------------------------------- 
Archival summary:
1\1\hpc0250\JobtypUnspecified\ProcedureUnspecified\6-31G**\238(3)\knomura\ThuMar1401:29:362019ThuMar1401:29:362019\0\\#,JobtypUnspecified,ProcedureUnspecified,6-31G**,\\0,3\S\H,1,1.34853\C,1,1.91551,2,96.0997\H,3,1.09537,1,100.061,2,-176.741,0\C,3,1.47173,1,109.679,2,-60.284,0\H,5,1.08402,3,120.696,1,-75.544,0\H,5,1.08618,3,119.918,1,92.0594,0\C,3,1.52804,1,110.518,2,66.9603,0\H,8,1.09234,3,111.344,1,53.672,0\H,8,1.09532,3,110.978,1,-66.9429,0\H,8,1.0957,3,109.688,1,174.054,0\H,1,2.68961,2,100.351,3,-98.2691,0\S,12,1.35853,1,164.767,2,71.2615,0\\\@

 Total job time:  158.11s(wall), 1848.16s(cpu) 
 Thu Mar 14 01:29:36 2019

        *************************************************************
        *                                                           *
        *  Thank you very much for using Q-Chem.  Have a nice day.  *
        *                                                           *
        *************************************************************


