
Running Job 1 of 1 thiol/03/C-S.xyz.data/inputs/bond_triplet_4.1.in
qchem thiol/03/C-S.xyz.data/inputs/bond_triplet_4.1.in_29485.0 /staging/scratch/2868767/qchem29485/ 1
/usr/usc/qchem/5.1.1/exe/qcprog.exe_s thiol/03/C-S.xyz.data/inputs/bond_triplet_4.1.in_29485.0 /staging/scratch/2868767/qchem29485/
Check license passed

                  Welcome to Q-Chem
     A Quantum Leap Into The Future Of Chemistry


 Q-Chem 5.1, Q-Chem, Inc., Pleasanton, CA (2018)

 Yihan Shao,  Zhengting Gan,  E. Epifanovsky,  A. T. B. Gilbert,  M. Wormit,  
 J. Kussmann,  A. W. Lange,  A. Behn,  Jia Deng,  Xintian Feng,  D. Ghosh,  
 M. Goldey,  P. R. Horn,  L. D. Jacobson,  I. Kaliman,  T. Kus,  A. Landau,  
 Jie Liu,  E. I. Proynov,  R. M. Richard,  R. P. Steele,  E. J. Sundstrom,  
 H. L. Woodcock III,  P. M. Zimmerman,  D. Zuev,  B. Albrecht,  E. Alguire,  
 S. A. Baeppler,  D. Barton,  Z. Benda,  Y. A. Bernard,  E. J. Berquist,  
 K. B. Bravaya,  H. Burton,  D. Casanova,  Chun-Min Chang,  Yunqing Chen,  
 A. Chien,  K. D. Closser,  M. P. Coons,  S. Coriani,  S. Dasgupta,  
 A. L. Dempwolff,  M. Diedenhofen,  Hainam Do,  R. G. Edgar,  Po-Tung Fang,  
 S. Faraji,  S. Fatehi,  Qingguo Feng,  K. D. Fenk,  J. Fosso-Tande,  
 Qinghui Ge,  A. Ghysels,  G. Gidofalvi,  J. Gomes,  J. Gonthier,  A. Gunina,  
 D. Hait,  M. W. D. Hanson-Heine,  P. H. P. Harbach,  A. W. Hauser,  
 J. E. Herr,  E. G. Hohenstein,  Z. C. Holden,  Kerwin Hui,  B. C. Huynh,  
 T.-C. Jagau,  Hyunjun Ji,  B. Kaduk,  K. Khistyaev,  Jaehoon Kim,  
 P. Klunzinger,  K. Koh,  D. Kosenkov,  L. Koulias,  T. Kowalczyk,  
 C. M. Krauter,  A. Kunitsa,  Ka Un Lao,  A. Laurent,  K. V. Lawler,  
 Joonho Lee,  D. Lefrancois,  S. Lehtola,  D. S. Levine,  Yi-Pei Li,  
 You-Sheng Lin,  Fenglai Liu,  E. Livshits,  A. Luenser,  P. Manohar,  
 E. Mansoor,  S. F. Manzer,  Shan-Ping Mao,  Yuezhi Mao,  N. Mardirossian,  
 A. V. Marenich,  T. Markovich,  L. A. Martinez-Martinez,  S. A. Maurer,  
 N. J. Mayhall,  S. C. McKenzie,  J.-M. Mewes,  A. F. Morrison,  
 J. W. Mullinax,  K. Nanda,  T. S. Nguyen-Beck,  R. Olivares-Amaya,  
 J. A. Parkhill,  T. M. Perrine,  F. Plasser,  P. Pokhilko,  S. Prager,  
 A. Prociuk,  E. Ramos,  D. R. Rehn,  F. Rob,  M. Schneider,  N. Sergueev,  
 S. M. Sharada,  S. Sharma,  D. W. Small,  T. Stauch,  T. Stein,  
 Yu-Chuan Su,  A. J. W. Thom,  A. Tkatchenko,  T. Tsuchimochi,  N. M. Tubman,  
 L. Vogt,  M. L. Vidal,  O. Vydrov,  M. A. Watson,  J. Wenzel,  
 M. de Wergifosse,  T. A. Wesolowski,  A. White,  J. Witte,  A. Yamada,  
 Jun Yang,  K. Yao,  S. Yeganeh,  S. R. Yost,  Zhi-Qiang You,  A. Zech,  
 Igor Ying Zhang,  Xing Zhang,  Yan Zhao,  Ying Zhu,  B. R. Brooks,  
 G. K. L. Chan,  C. J. Cramer,  M. S. Gordon,  W. J. Hehre,  A. Klamt,  
 M. W. Schmidt,  C. D. Sherrill,  D. G. Truhlar,  A. Aspuru-Guzik,  R. Baer,  
 A. T. Bell,  N. A. Besley,  Jeng-Da Chai,  A. E. DePrince, III,  
 R. A. DiStasio Jr.,  A. Dreuw,  B. D. Dunietz,  T. R. Furlani,  
 Chao-Ping Hsu,  Yousung Jung,  Jing Kong,  D. S. Lambrecht,  WanZhen Liang,  
 C. Ochsenfeld,  V. A. Rassolov,  L. V. Slipchenko,  J. E. Subotnik,  
 T. Van Voorhis,  J. M. Herbert,  A. I. Krylov,  P. M. W. Gill,  M. Head-Gordon

 Contributors to earlier versions of Q-Chem not listed above: 
 R. D. Adamson,  B. Austin,  J. Baker,  G. J. O. Beran,  K. Brandhorst,  
 S. T. Brown,  E. F. C. Byrd,  A. K. Chakraborty,  C.-L. Cheng,  
 Siu Hung Chien,  D. M. Chipman,  D. L. Crittenden,  H. Dachsel,  
 R. J. Doerksen,  A. D. Dutoi,  L. Fusti-Molnar,  W. A. Goddard III,  
 A. Golubeva-Zadorozhnaya,  S. R. Gwaltney,  G. Hawkins,  A. Heyden,  
 S. Hirata,  G. Kedziora,  F. J. Keil,  C. Kelley,  Jihan Kim,  R. A. King,  
 R. Z. Khaliullin,  P. P. Korambath,  W. Kurlancheek,  A. M. Lee,  M. S. Lee,  
 S. V. Levchenko,  Ching Yeh Lin,  D. Liotard,  R. C. Lochan,  I. Lotan,  
 P. E. Maslen,  N. Nair,  D. P. O'Neill,  D. Neuhauser,  E. Neuscamman,  
 C. M. Oana,  R. Olson,  B. Peters,  R. Peverati,  P. A. Pieniazek,  
 Y. M. Rhee,  J. Ritchie,  M. A. Rohrdanz,  E. Rosta,  N. J. Russ,  
 H. F. Schaefer III,  N. E. Schultz,  N. Shenvi,  A. C. Simmonett,  A. Sodt,  
 D. Stuck,  K. S. Thanthiriwatte,  V. Vanovschi,  Tao Wang,  A. Warshel,  
 C. F. Williams,  Q. Wu,  X. Xu,  W. Zhang

 Please cite Q-Chem as follows:
 Y. Shao et al., Mol. Phys. 113, 184-215 (2015)
 DOI: 10.1080/00268976.2014.952696

 Q-Chem 5.1.1 for Intel X86 EM64T Linux

 Parts of Q-Chem use Armadillo 8.300.2 (Tropical Shenanigans).
 http://arma.sourceforge.net/

 Q-Chem begins on Thu Mar 14 01:26:05 2019  

Host: 
0

     Scratch files written to /staging/scratch/2868767/qchem29485//
 Aug318 |scratch|qcdevops|jenkins|workspace|build_RNUM 6013   
Processing $rem in /usr/usc/qchem/5.1.1/config/preferences.
 MEM_TOTAL  2000 
Input Ideriv = 2
Curr. Ideriv = -1
Max.  Ideriv = 2

Checking the input file for inconsistencies... 	...done.

--------------------------------------------------------------
User input:
--------------------------------------------------------------

$comment
potential surface scanner
$end

$rem
JOBTYPE  PES_SCAN
UNRESTRICTED TRUE
SYM_IGNORE  TRUE
GEOM_OPT_MAX_CYCLES 400
SCF_MAX_CYCLES 400
METHOD   B3LYP
BASIS   6-31G**
PDB_PRINT 2
SCF_CONVERGENCE 6
THRESH 14
SCF_PRINT 1
$end
$molecule
0 3
S 0.352754 -1.384702 -0.189914
S -3.678384 -1.141049 -0.089875
C 0.689841 0.500002 -0.249031
C -0.264858 1.198713 0.626614
C 2.159030 0.792533 0.049634
H 0.467950 0.700285 -1.302900
H 0.000139 1.410391 1.658418
H -1.301002 1.316081 0.330104
H 2.359376 1.860435 -0.092458
H 2.406449 0.540494 1.086287
H 2.819420 0.222153 -0.607384
H 0.568536 -1.528089 1.133653
H -2.339551 -1.362250 -0.164151
$end
$scan
stre 2 4 4.100000 4.101000 0.100000
$end
--------------------------------------------------------------
 ----------------------------------------------------------------
             Standard Nuclear Orientation (Angstroms)
    I     Atom           X                Y                Z
 ----------------------------------------------------------------
    1      S       0.3527540000    -1.3847020000    -0.1899140000
    2      S      -3.6783840000    -1.1410490000    -0.0898750000
    3      C       0.6898410000     0.5000020000    -0.2490310000
    4      C      -0.2648580000     1.1987130000     0.6266140000
    5      C       2.1590300000     0.7925330000     0.0496340000
    6      H       0.4679500000     0.7002850000    -1.3029000000
    7      H       0.0001390000     1.4103910000     1.6584180000
    8      H      -1.3010020000     1.3160810000     0.3301040000
    9      H       2.3593760000     1.8604350000    -0.0924580000
   10      H       2.4064490000     0.5404940000     1.0862870000
   11      H       2.8194200000     0.2221530000    -0.6073840000
   12      H       0.5685360000    -1.5280890000     1.1336530000
   13      H      -2.3395510000    -1.3622500000    -0.1641510000
 ----------------------------------------------------------------
 Nuclear Repulsion Energy =   248.1505075116 hartrees
 There are       30 alpha and       28 beta electrons
 Requested basis set is 6-31G(d,p)
 There are 46 shells and 123 basis functions

 Total QAlloc Memory Limit   2000 MB
 Mega-Array Size       188 MB
 MEM_STATIC part       192 MB
A total of 1 constraints
  
            1
    1   1.0100000
    2   2.0100000
    3   4.0100000
    4   4.1000000
    5   4.1010000
    6   0.1000000
    7   0.0000000
    8   0.0000000
    9   0.0000000
   10   0.0000000

                       Distance Matrix (Angstroms)
             S (  1)   S (  2)   C (  3)   C (  4)   C (  5)   H (  6)
   S (  2)  4.039734
   C (  3)  1.915524  4.669022
   C (  4)  2.778884  4.200000  1.471870
   C (  5)  2.839079  6.150903  1.527512  2.524504
   H (  6)  2.366258  4.696171  1.095440  2.123314  2.167397
   H (  7)  3.369453  4.806028  2.223254  1.086117  2.762380  3.080990
   H (  8)  3.209292  3.444679  2.228192  1.084107  3.510639  2.484974
   H (  9)  3.816667  6.742660  2.159315  2.800276  1.095784  2.527570
   H ( 10)  3.090749  6.421537  2.175191  2.789343  1.095166  3.080832
   H ( 11)  2.973332  6.659399  2.177320  3.462541  1.092301  2.498352
   H ( 12)  1.348685  4.436570  2.457577  2.896046  3.014972  3.303416
   H ( 13)  2.692522  1.359015  3.557022  3.389424  4.992597  3.665087
             H (  7)   H (  8)   H (  9)   H ( 10)   H ( 11)   H ( 12)
   H (  8)  1.861795
   H (  9)  2.972222  3.724681
   H ( 10)  2.621904  3.862453  1.770282
   H ( 11)  3.807114  4.365025  1.777852  1.772119
   H ( 12)  3.038605  3.497165  4.023997  2.767527  3.340814
   H ( 13)  4.059981  2.914846  5.698311  5.263891  5.414958  3.188851

 
 A cutoff of  1.0D-14 yielded    980 shell pairs
 There are      7099 function pairs
 
 -------------------------------------------------------
 OpenMP Integral Computing Module                       
 Release: version 1.0, May 2013, Q-Chem Inc. Pittsburgh 
 -------------------------------------------------------
 Integral Job Info:
 Integral job number is                      11
 Integral operator is                         1
 short-range coefficients                     0
 long-range coefficients              100000000
 Omega coefficients                           0
 if combine SR and LR in K                    0
 Integral screening is                        0
 Integral computing path is                   2
 max size of driver memory is            800000
 size of driver memory is                593474
 size of scratch memory is             15267112
 max col of scratch BK array               1296
 max len of scratch array in speh3          155
 max len of scratch index in speh4           18
 max int batch size is                      520
 min int batch size is                       52
 fixed nKL is                                52
 max L of basis functions is                  2
 order of int derivative is                   0
 number of shells is                         46
 number of basis is                         123
 number of cartesian basis is               123
 number of contracted shell pairs           980
 number of primitive shell pairs           3633
 maxK2 (contraction) of shell pair           36
 max number of K2 of shell pair               1
 max number of CS2 of shell pair             81
 max number of PS2 of shell pair            354
 mem total for path MDJ                  515746
 -------------------------------------------------------
 Smallest overlap matrix eigenvalue = 6.01E-03

 Scale SEOQF with 1.000000e-01/1.000000e-01/1.000000e-01

 Standard Electronic Orientation quadrupole field applied
 Nucleus-field energy     =     0.0000000143 hartrees
 Guess from superposition of atomic densities
 Warning:  Energy on first SCF cycle will be non-variational
 SAD guess density has 58.000000 electrons

 -----------------------------------------------------------------------
  General SCF calculation program by
  Eric Jon Sundstrom, Paul Horn, Yuezhi Mao, Dmitri Zuev, Alec White,
  David Stuck, Shaama M.S., Shane Yost, Joonho Lee, David Small,
  Daniel Levine, Susi Lehtola, Hugh Burton, Evgeny Epifanovsky
 -----------------------------------------------------------------------
 Exchange:     0.2000 Hartree-Fock + 0.0800 Slater + 0.7200 B88
 Correlation:  0.1900 VWN1RPA + 0.8100 LYP
 Using SG-1 standard quadrature grid
 using 12 threads for integral computing
 -------------------------------------------------------
 OpenMP Integral computing Module                
 Release: version 1.0, May 2013, Q-Chem Inc. Pittsburgh 
 -------------------------------------------------------
 -------------------------------------------------------
 OpenMP BLAS3 based DFT computing Module                
 Release: version 1.0, May 2013, Q-Chem Inc. Pittsburgh 
 -------------------------------------------------------
 A unrestricted SCF calculation will be
 performed using DIIS
 SCF converges when DIIS error is below 1.0e-06
 Alpha HF Exchange    Energy =  -6.82227056734076
 Beta HF Exchange     Energy =  -6.82227056734076
 DFT Correlation      Energy =  -2.69533127315827
 DFT Exchange         Energy = -53.80672119336764
 One-Electron (alpha) Energy = -874.11554519760205
 One-Electron (beta)  Energy = -874.11554519760205
 Total Coulomb        Energy = 654.44925625737903
 ---------------------------------------
  Cycle       Energy         DIIS error
 ---------------------------------------
    1    -915.7779202132      2.59e-02  
 Alpha HF Exchange    Energy =  -6.95213954728215
 Beta HF Exchange     Energy =  -6.75993574340180
 DFT Correlation      Energy =  -2.71514210746792
 DFT Exchange         Energy = -54.41439255458064
 One-Electron (alpha) Energy = -891.51846720234039
 One-Electron (beta)  Energy = -863.40342057838711
 Total Coulomb        Energy = 662.27908079989118
    2    -915.3339094077      2.97e-03  
 Alpha HF Exchange    Energy =  -6.89930601088048
 Beta HF Exchange     Energy =  -6.72140633703539
 DFT Correlation      Energy =  -2.68821292051235
 DFT Exchange         Energy = -54.00418498367411
 One-Electron (alpha) Energy = -888.42636611949877
 One-Electron (beta)  Energy = -860.73335067127550
 Total Coulomb        Energy = 656.00757479516710
    3    -915.3147447219      3.43e-03  
 Alpha HF Exchange    Energy =  -6.92429683997487
 Beta HF Exchange     Energy =  -6.73923233410112
 DFT Correlation      Energy =  -2.69977572024932
 DFT Exchange         Energy = -54.18548096317880
 One-Electron (alpha) Energy = -889.80242228413420
 One-Electron (beta)  Energy = -861.87257860969271
 Total Coulomb        Energy = 658.65806200509178
    4    -915.4152172204      4.64e-04  
 Alpha HF Exchange    Energy =  -6.92764439256219
 Beta HF Exchange     Energy =  -6.74256771843667
 DFT Correlation      Energy =  -2.70000185694918
 DFT Exchange         Energy = -54.20875072108475
 One-Electron (alpha) Energy = -890.00248058566922
 One-Electron (beta)  Energy = -862.06949131934380
 Total Coulomb        Energy = 659.08332547133261
    5    -915.4171035969      2.24e-04  
 Alpha HF Exchange    Energy =  -6.92746629954385
 Beta HF Exchange     Energy =  -6.74235718320472
 DFT Correlation      Energy =  -2.69971608358267
 DFT Exchange         Energy = -54.20660547425075
 One-Electron (alpha) Energy = -889.97507044039173
 One-Electron (beta)  Energy = -862.03866589978509
 Total Coulomb        Energy = 659.02176313736379
    6    -915.4176107175      5.82e-05  
 Alpha HF Exchange    Energy =  -6.92716534902994
 Beta HF Exchange     Energy =  -6.74213050808915
 DFT Correlation      Energy =  -2.69950919567765
 DFT Exchange         Energy = -54.20404571985326
 One-Electron (alpha) Energy = -889.94138712526535
 One-Electron (beta)  Energy = -862.01178019655754
 Total Coulomb        Energy = 658.95785731955903
    7    -915.4176532491      1.95e-05  
 Alpha HF Exchange    Energy =  -6.92735983084673
 Beta HF Exchange     Energy =  -6.74232455211570
 DFT Correlation      Energy =  -2.69952908447330
 DFT Exchange         Energy = -54.20543372131957
 One-Electron (alpha) Energy = -889.95639350013039
 One-Electron (beta)  Energy = -862.02769866546885
 Total Coulomb        Energy = 658.99057042487334
    8    -915.4176614036      8.60e-06  
 Alpha HF Exchange    Energy =  -6.92733111199662
 Beta HF Exchange     Energy =  -6.74229979490138
 DFT Correlation      Energy =  -2.69950103572132
 DFT Exchange         Energy = -54.20517185762615
 One-Electron (alpha) Energy = -889.95109999135423
 One-Electron (beta)  Energy = -862.02349943151989
 Total Coulomb        Energy = 658.98073192711195
    9    -915.4176637701      3.76e-06  
 Alpha HF Exchange    Energy =  -6.92733088800413
 Beta HF Exchange     Energy =  -6.74230883587023
 DFT Correlation      Energy =  -2.69950088633446
 DFT Exchange         Energy = -54.20520354767858
 One-Electron (alpha) Energy = -889.95150088166429
 One-Electron (beta)  Energy = -862.02457387540653
 Total Coulomb        Energy = 658.98224612275681
   10    -915.4176652663      2.98e-06  
 Alpha HF Exchange    Energy =  -6.92733231361662
 Beta HF Exchange     Energy =  -6.74230601460078
 DFT Correlation      Energy =  -2.69950060739480
 DFT Exchange         Energy = -54.20519718308709
 One-Electron (alpha) Energy = -889.95131384844774
 One-Electron (beta)  Energy = -862.02441104469676
 Total Coulomb        Energy = 658.98188691574921
   11    -915.4176665702      2.79e-06  
 Alpha HF Exchange    Energy =  -6.92733302275000
 Beta HF Exchange     Energy =  -6.74230745200417
 DFT Correlation      Energy =  -2.69950131533925
 DFT Exchange         Energy = -54.20520615147026
 One-Electron (alpha) Energy = -889.95143980630837
 One-Electron (beta)  Energy = -862.02459764903313
 Total Coulomb        Energy = 658.98221007288532
   12    -915.4176677982      2.76e-06  
 Alpha HF Exchange    Energy =  -6.92733257401907
 Beta HF Exchange     Energy =  -6.74230708069775
 DFT Correlation      Energy =  -2.69950151728081
 DFT Exchange         Energy = -54.20520295088219
 One-Electron (alpha) Energy = -889.95142298185658
 One-Electron (beta)  Energy = -862.02465480102569
 Total Coulomb        Energy = 658.98224516354162
   13    -915.4176692164      2.76e-06  
 Alpha HF Exchange    Energy =  -6.92733253709363
 Beta HF Exchange     Energy =  -6.74230731282757
 DFT Correlation      Energy =  -2.69950189169340
 DFT Exchange         Energy = -54.20520344259246
 One-Electron (alpha) Energy = -889.95143269834068
 One-Electron (beta)  Energy = -862.02475960550692
 Total Coulomb        Energy = 658.98235900833049
   14    -915.4176709539      2.75e-06  
 Alpha HF Exchange    Energy =  -6.92733172067897
 Beta HF Exchange     Energy =  -6.74230864786621
 DFT Correlation      Energy =  -2.69950319887438
 DFT Exchange         Energy = -54.20520424954018
 One-Electron (alpha) Energy = -889.95144108674390
 One-Electron (beta)  Energy = -862.02522774744284
 Total Coulomb        Energy = 658.98283116045707
   15    -915.4176779648      2.75e-06  
 Alpha HF Exchange    Energy =  -6.92733090304549
 Beta HF Exchange     Energy =  -6.74230879890712
 DFT Correlation      Energy =  -2.69950384858848
 DFT Exchange         Energy = -54.20520126634204
 One-Electron (alpha) Energy = -889.95141771199098
 One-Electron (beta)  Energy = -862.02543240908574
 Total Coulomb        Energy = 658.98300602942834
   16    -915.4176813827      2.75e-06  
 Alpha HF Exchange    Energy =  -6.92732574464764
 Beta HF Exchange     Energy =  -6.74235617189624
 DFT Correlation      Energy =  -2.69951317875235
 DFT Exchange         Energy = -54.20534951098904
 One-Electron (alpha) Energy = -889.95143416027315
 One-Electron (beta)  Energy = -862.03140121079764
 Total Coulomb        Energy = 658.98914114765296
   17    -915.4177313038      7.18e-06  
 Alpha HF Exchange    Energy =  -6.92734556864685
 Beta HF Exchange     Energy =  -6.74266385833384
 DFT Correlation      Energy =  -2.69945950803035
 DFT Exchange         Energy = -54.20659100665658
 One-Electron (alpha) Energy = -889.94994620995362
 One-Electron (beta)  Energy = -862.04029202173012
 Total Coulomb        Energy = 658.99832536666031
   18    -915.4174652808      6.48e-05  
 Alpha HF Exchange    Energy =  -6.92732424681400
 Beta HF Exchange     Energy =  -6.74242445876736
 DFT Correlation      Energy =  -2.69951647731777
 DFT Exchange         Energy = -54.20559224602749
 One-Electron (alpha) Energy = -889.95141793000596
 One-Electron (beta)  Energy = -862.03716579070340
 Total Coulomb        Energy = 658.99518078836729
   19    -915.4177528354      1.77e-05  
 Alpha HF Exchange    Energy =  -6.92732337177406
 Beta HF Exchange     Energy =  -6.74244411969786
 DFT Correlation      Energy =  -2.69951750446876
 DFT Exchange         Energy = -54.20566039207124
 One-Electron (alpha) Energy = -889.95139439481784
 One-Electron (beta)  Energy = -862.03887291350600
 Total Coulomb        Energy = 658.99694653112908
   20    -915.4177586393      2.08e-05  
 Alpha HF Exchange    Energy =  -6.92732287757879
 Beta HF Exchange     Energy =  -6.74243727783060
 DFT Correlation      Energy =  -2.69951782451687
 DFT Exchange         Energy = -54.20563330348865
 One-Electron (alpha) Energy = -889.95137503199112
 One-Electron (beta)  Energy = -862.03845159620812
 Total Coulomb        Energy = 658.99647133378915
   21    -915.4177590520      1.96e-05  
 Alpha HF Exchange    Energy =  -6.92731830978095
 Beta HF Exchange     Energy =  -6.74249648722253
 DFT Correlation      Energy =  -2.69952053527051
 DFT Exchange         Energy = -54.20582907168451
 One-Electron (alpha) Energy = -889.95122018916550
 One-Electron (beta)  Energy = -862.04366317878350
 Total Coulomb        Energy = 659.00176504866351
   22    -915.4177751974      2.87e-05  
 Alpha HF Exchange    Energy =  -6.92730500820688
 Beta HF Exchange     Energy =  -6.74264806581148
 DFT Correlation      Energy =  -2.69952612465394
 DFT Exchange         Energy = -54.20632841633387
 One-Electron (alpha) Energy = -889.95065903093973
 One-Electron (beta)  Energy = -862.05643281951689
 Total Coulomb        Energy = 659.01459886387477
   23    -915.4177930757      5.18e-05  
 Alpha HF Exchange    Energy =  -6.92729254351332
 Beta HF Exchange     Energy =  -6.74300349216874
 DFT Correlation      Energy =  -2.69951362502557
 DFT Exchange         Energy = -54.20759681847116
 One-Electron (alpha) Energy = -889.94945523151591
 One-Electron (beta)  Energy = -862.08009786173955
 Total Coulomb        Energy = 659.03876999239367
   24    -915.4176820542      1.13e-04  
 Alpha HF Exchange    Energy =  -6.92731942394864
 Beta HF Exchange     Energy =  -6.74187429135893
 DFT Correlation      Energy =  -2.69953838624862
 DFT Exchange         Energy = -54.20353701280738
 One-Electron (alpha) Energy = -889.95234669693775
 One-Electron (beta)  Energy = -862.00401988286580
 Total Coulomb        Energy = 658.96046778980678
   25    -915.4176603785      7.91e-05  
 Alpha HF Exchange    Energy =  -6.92724497993095
 Beta HF Exchange     Energy =  -6.74372994524557
 DFT Correlation      Energy =  -2.69948394576784
 DFT Exchange         Energy = -54.21009435735897
 One-Electron (alpha) Energy = -889.94636799315367
 One-Electron (beta)  Energy = -862.13019964669877
 Total Coulomb        Energy = 659.08947141238798
   26    -915.4171419299      2.36e-04  
 Alpha HF Exchange    Energy =  -6.92721074140619
 Beta HF Exchange     Energy =  -6.74452793547361
 DFT Correlation      Energy =  -2.69938561691581
 DFT Exchange         Energy = -54.21297752389551
 One-Electron (alpha) Energy = -889.94123921034156
 One-Electron (beta)  Energy = -862.17603159943542
 Total Coulomb        Energy = 659.13505814796838
   27    -915.4158069536      3.92e-04  
 Alpha HF Exchange    Energy =  -6.92720037214541
 Beta HF Exchange     Energy =  -6.74476513422879
 DFT Correlation      Energy =  -2.69934886291406
 DFT Exchange         Energy = -54.21384044524986
 One-Electron (alpha) Energy = -889.93942882927524
 One-Electron (beta)  Energy = -862.18932873972005
 Total Coulomb        Energy = 659.14814534782067
   28    -915.4152595099      4.40e-04  
 Alpha HF Exchange    Energy =  -6.92724374843233
 Beta HF Exchange     Energy =  -6.74361369971670
 DFT Correlation      Energy =  -2.69949599870417
 DFT Exchange         Energy = -54.20964434120703
 One-Electron (alpha) Energy = -889.94665856973313
 One-Electron (beta)  Energy = -862.12394691157635
 Total Coulomb        Energy = 659.08281670403187
   29    -915.4172790395      2.14e-04  
 Alpha HF Exchange    Energy =  -6.92724113258991
 Beta HF Exchange     Energy =  -6.74375918590656
 DFT Correlation      Energy =  -2.69948542370193
 DFT Exchange         Energy = -54.21017995198990
 One-Electron (alpha) Energy = -889.94631181453894
 One-Electron (beta)  Energy = -862.13290446268024
 Total Coulomb        Energy = 659.09225616990568
   30    -915.4171182756      2.40e-04  
 Alpha HF Exchange    Energy =  -6.92724062177710
 Beta HF Exchange     Energy =  -6.74376996583243
 DFT Correlation      Energy =  -2.69948373732083
 DFT Exchange         Energy = -54.21021905424478
 One-Electron (alpha) Energy = -889.94621062388978
 One-Electron (beta)  Energy = -862.13344903420420
 Total Coulomb        Energy = 659.09276240685631
   31    -915.4171031046      2.42e-04  
 Alpha HF Exchange    Energy =  -6.92726435072307
 Beta HF Exchange     Energy =  -6.74306153597968
 DFT Correlation      Energy =  -2.69954486175769
 DFT Exchange         Energy = -54.20765024519485
 One-Electron (alpha) Energy = -889.94944484271525
 One-Electron (beta)  Energy = -862.09229508639385
 Total Coulomb        Energy = 659.05101488540117
   32    -915.4177385115      1.10e-04  
 Alpha HF Exchange    Energy =  -6.92726545786787
 Beta HF Exchange     Energy =  -6.74288500880656
 DFT Correlation      Energy =  -2.69955987809650
 DFT Exchange         Energy = -54.20698530638279
 One-Electron (alpha) Energy = -889.95002948403067
 One-Electron (beta)  Energy = -862.08295298003372
 Total Coulomb        Energy = 659.04134550561650
   33    -915.4178250837      7.71e-05  
 Alpha HF Exchange    Energy =  -6.92727613246053
 Beta HF Exchange     Energy =  -6.74247296282089
 DFT Correlation      Energy =  -2.69958216547485
 DFT Exchange         Energy = -54.20548806268246
 One-Electron (alpha) Energy = -889.95129174420083
 One-Electron (beta)  Energy = -862.05899378914410
 Total Coulomb        Energy = 659.01669058838081
   34    -915.4179067425      4.13e-06  
 Alpha HF Exchange    Energy =  -6.92727615335138
 Beta HF Exchange     Energy =  -6.74244763783336
 DFT Correlation      Energy =  -2.69958334382965
 DFT Exchange         Energy = -54.20539370062132
 One-Electron (alpha) Energy = -889.95132573219155
 One-Electron (beta)  Energy = -862.05755271421037
 Total Coulomb        Energy = 659.01516477505402
   35    -915.4179069811      2.79e-07  Convergence criterion met
 ---------------------------------------
 SCF time:   CPU 102.95s  wall 9.00s 
<S^2> =          2.007922886
 Alpha HF Exchange    Energy =  -6.92727615335138
 Beta HF Exchange     Energy =  -6.74244763783336
 DFT Correlation      Energy =  -2.69958334382965
 DFT Exchange         Energy = -54.20539370062132
 One-Electron (alpha) Energy = -889.95132573219155
 One-Electron (beta)  Energy = -862.05755271421037
 Total Coulomb        Energy = 659.01516477505402
 Nuclear repulsion Energy = 248.15050752585904
 SCF   energy in the final basis set =     -915.4179069811
 Total energy in the final basis set =     -915.4179069811
 
 --------------------------------------------------------------
 
                    Orbital Energies (a.u.)
 --------------------------------------------------------------
 
 Alpha MOs
 -- Occupied --
-88.894 -88.885 -10.242 -10.207 -10.194  -7.955  -7.948  -5.927
 -5.916  -5.913  -5.909  -5.908  -5.903  -0.827  -0.722  -0.715
 -0.696  -0.587  -0.480  -0.445  -0.432  -0.406  -0.395  -0.381
 -0.363  -0.345  -0.307  -0.261  -0.258  -0.212
 -- Virtual --
  0.013   0.056   0.058   0.100   0.121   0.129   0.158   0.169
  0.177   0.218   0.250   0.281   0.313   0.327   0.353   0.367
  0.373   0.400   0.481   0.491   0.509   0.541   0.565   0.568
  0.603   0.662   0.689   0.701   0.718   0.739   0.742   0.750
  0.751   0.797   0.806   0.828   0.858   0.874   0.880   0.906
  0.919   0.936   0.962   1.031   1.114   1.130   1.165   1.191
  1.342   1.427   1.441   1.541   1.690   1.760   1.824   1.868
  1.903   1.974   2.013   2.035   2.072   2.077   2.087   2.092
  2.104   2.113   2.118   2.273   2.305   2.354   2.394   2.491
  2.558   2.579   2.623   2.694   2.725   2.735   2.744   2.824
  2.863   2.908   3.179   3.283   3.368   3.405   3.461   3.499
  3.933   3.972   4.245   4.368   4.578
 
 Beta MOs
 -- Occupied --
-88.888 -88.884 -10.243 -10.194 -10.193  -7.950  -7.946  -5.913
 -5.911  -5.909  -5.907  -5.905  -5.901  -0.819  -0.711  -0.681
 -0.675  -0.578  -0.475  -0.441  -0.426  -0.403  -0.383  -0.375
 -0.360  -0.333  -0.252  -0.245
 -- Virtual --
 -0.164  -0.072   0.019   0.063   0.067   0.103   0.124   0.138
  0.159   0.171   0.180   0.223   0.257   0.290   0.324   0.337
  0.366   0.378   0.392   0.406   0.485   0.494   0.516   0.555
  0.571   0.602   0.617   0.669   0.697   0.717   0.744   0.750
  0.760   0.800   0.805   0.810   0.813   0.832   0.863   0.878
  0.884   0.912   0.924   0.942   0.970   1.045   1.122   1.135
  1.171   1.196   1.359   1.435   1.463   1.550   1.698   1.761
  1.828   1.877   1.921   1.995   2.024   2.036   2.073   2.080
  2.085   2.097   2.106   2.118   2.123   2.278   2.306   2.357
  2.405   2.505   2.573   2.591   2.625   2.697   2.728   2.738
  2.745   2.826   2.863   2.910   3.179   3.286   3.373   3.407
  3.462   3.505   3.950   3.977   4.262   4.380   4.581
 --------------------------------------------------------------
 
          Ground-State Mulliken Net Atomic Charges

     Atom                 Charge (a.u.)    Spin (a.u.)
  --------------------------------------------------------
      1 S                    -0.064136       0.150913
      2 S                    -0.109593       1.027704
      3 C                    -0.218462      -0.086085
      4 C                    -0.202688       1.006289
      5 C                    -0.301667       0.005781
      6 H                     0.148581       0.014241
      7 H                     0.109956      -0.044390
      8 H                     0.129469      -0.044336
      9 H                     0.119868      -0.000556
     10 H                     0.111143      -0.000636
     11 H                     0.126296       0.000952
     12 H                     0.069412      -0.002665
     13 H                     0.081820      -0.027212
  --------------------------------------------------------
  Sum of atomic charges =     0.000000
  Sum of spin   charges =     2.000000

 -----------------------------------------------------------------
                    Cartesian Multipole Moments
 -----------------------------------------------------------------
    Charge (ESU x 10^10)
                -0.0000
    Dipole Moment (Debye)
         X       2.2692      Y       1.3550      Z       0.7093
       Tot       2.7365
    Quadrupole Moments (Debye-Ang)
        XX     -55.1863     XY      -1.2894     YY     -50.5247
        XZ       0.8674     YZ      -1.2634     ZZ     -44.1160
    Octopole Moments (Debye-Ang^2)
       XXX     115.6082    XXY      32.0129    XYY      34.1945
       YYY      58.1835    XXZ      -0.6555    XYZ      -3.8859
       YYZ       2.3435    XZZ      25.4954    YZZ      16.6179
       ZZZ       0.3471
    Hexadecapole Moments (Debye-Ang^3)
      XXXX   -1534.0497   XXXY    -237.4153   XXYY    -347.6126
      XYYY    -207.7691   YYYY    -454.8048   XXXZ      -6.3729
      XXYZ      -1.2604   XYYZ       4.0752   YYYZ     -32.2050
      XXZZ    -241.6174   XYZZ     -59.7539   YYZZ     -86.1814
      XZZZ      -5.3094   YZZZ     -25.3792   ZZZZ     -95.9855
 -----------------------------------------------------------------
 Calculating analytic gradient of the SCF energy
 Gradient of SCF Energy
            1           2           3           4           5           6
    1  -0.0000784   0.0000241   0.0003013  -0.0001577  -0.0000941  -0.0000320
    2   0.0000736   0.0000001  -0.0000283  -0.0000299   0.0000082   0.0000153
    3  -0.0000157  -0.0000510  -0.0000832   0.0000782   0.0000264   0.0000035
            7           8           9          10          11          12
    1   0.0000035   0.0000058  -0.0000140   0.0000151   0.0000085  -0.0000071
    2   0.0000139  -0.0000243   0.0000078   0.0000160   0.0000171   0.0000043
    3  -0.0000213  -0.0000343  -0.0000161  -0.0000081  -0.0000098   0.0000103
           13
    1   0.0000250
    2  -0.0000736
    3   0.0001211
 Max gradient component =       3.013E-04
 RMS gradient           =       6.815E-05
 Gradient time:  CPU 10.84 s  wall 0.92 s
 Geometry Optimization Parameters
   NAtoms,    NIC,     NZ,  NCons,   NDum,   NFix, NCnnct, MaxDiis
       13      80       0       1       0       0       0       0


** CONSTRAINED OPTIMIZATION IN DELOCALIZED INTERNAL COORDINATES **
   Searching for a Minimum

   Optimization Cycle:   1

                       Coordinates (Angstroms)
     ATOM                X               Y               Z
      1  S         0.3527540000   -1.3847020000   -0.1899140000
      2  S        -3.6783840000   -1.1410490000   -0.0898750000
      3  C         0.6898410000    0.5000020000   -0.2490310000
      4  C        -0.2648580000    1.1987130000    0.6266140000
      5  C         2.1590300000    0.7925330000    0.0496340000
      6  H         0.4679500000    0.7002850000   -1.3029000000
      7  H         0.0001390000    1.4103910000    1.6584180000
      8  H        -1.3010020000    1.3160810000    0.3301040000
      9  H         2.3593760000    1.8604350000   -0.0924580000
     10  H         2.4064490000    0.5404940000    1.0862870000
     11  H         2.8194200000    0.2221530000   -0.6073840000
     12  H         0.5685360000   -1.5280890000    1.1336530000
     13  H        -2.3395510000   -1.3622500000   -0.1641510000
   Point Group: c1    Number of degrees of freedom:    33


   Energy is   -915.417906981

              Constraints and their Current Values
                                        Value     Constraint
   Distance(Angs):        2   4             4.200000     4.100000

 Attempting to Generate Delocalized Internal Coordinates

   Using Lagrange Multiplier Algorithm


 34 Hessian modes will be used to form the next step
  Hessian Eigenvalues:
    -0.996721    0.023020    0.045000    0.045000    0.045993    0.046897
     0.072559    0.078462    0.082698    0.084018    0.090278    0.095016
     0.160000    0.160000    0.160000    0.160000    0.160000    0.160422
     0.184961    0.188116    0.195028    0.198258    0.200000    0.248094
     0.257391    0.296544    0.341526    0.341915    0.342224    0.345481
     0.352652    0.354996    0.355026    1.003290

 Minimum Search - Taking P-RFO Step
 Searching for Lamda that Maximizes Along the Constraint modes Only
 Value Taken    Lamda =   0.01766253
 Searching for Lamda that Minimizes Along All other modes
 Value Taken    Lamda =  -0.01743345
 Step Taken.  Stepsize is  0.185721

                             Maximum     Tolerance    Cnvgd?
         Gradient            0.188973       0.000300      NO
         Displacement        0.185714       0.001200      NO
         Energy change     *********       0.000001      NO


 New Cartesian Coordinates Obtained by Inverse Iteration

 Displacement from previous Coordinates is:  0.239938
 ----------------------------------------------------------------
             Standard Nuclear Orientation (Angstroms)
    I     Atom           X                Y                Z
 ----------------------------------------------------------------
    1      S       0.3707952464    -1.3997449916    -0.1853086703
    2      S      -3.6477172322    -1.0650613808    -0.0820120510
    3      C       0.6880661245     0.4858184314    -0.2501018344
    4      C      -0.2810213729     1.1695371467     0.6223127577
    5      C       2.1532404251     0.7987241099     0.0482014896
    6      H       0.4651265399     0.6813426960    -1.3046364486
    7      H      -0.0228631573     1.3858597145     1.6549012383
    8      H      -1.3180145521     1.2700161011     0.3225505235
    9      H       2.3393319769     1.8689030288    -0.0961749111
   10      H       2.4036100884     0.5523154310     1.0855024583
   11      H       2.8213722439     0.2357463318    -0.6073494770
   12      H       0.5855949890    -1.5368144736     1.1390947736
   13      H      -2.3178213196    -1.3216451453    -0.1579828485
 ----------------------------------------------------------------
 Nuclear Repulsion Energy =   249.0337975320 hartrees
 There are       30 alpha and       28 beta electrons

                       Distance Matrix (Angstroms)
             S (  1)   S (  2)   C (  3)   C (  4)   C (  5)   H (  6)
   S (  2)  4.033748
   C (  3)  1.913167  4.607874
   C (  4)  2.770980  4.101725  1.472314
   C (  5)  2.839877  6.094404  1.527623  2.528386
   H (  6)  2.364893  4.632518  1.095434  2.123253  2.166490
   H (  7)  3.361686  4.707807  2.223630  1.086131  2.767967  3.081127
   H (  8)  3.199629  3.323217  2.228734  1.084116  3.513829  2.484727
   H (  9)  3.816692  6.667316  2.159466  2.805635  1.095791  2.526524
   H ( 10)  3.091575  6.371621  2.175167  2.793341  1.095169  3.080119
   H ( 11)  2.976286  6.619456  2.177420  3.465383  1.092287  2.497330
   H ( 12)  1.348692  4.431093  2.455893  2.888326  3.017002  3.302508
   H ( 13)  2.689889  1.356551  3.508671  3.311103  4.952663  3.615463
             H (  7)   H (  8)   H (  9)   H ( 10)   H ( 11)   H ( 12)
   H (  8)  1.861718
   H (  9)  2.979860  3.729635
   H ( 10)  2.628076  3.866223  1.770281
   H ( 11)  3.811852  4.366801  1.777882  1.772142
   H ( 12)  3.029571  3.488377  4.024972  2.769930  3.345256
   H ( 13)  3.985469  2.819084  5.645573  5.229713  5.388758  3.187246

 
 Applying Cartesian multipole field
    Component          Value
    ---------          -----
     (2,0,0)        1.00000E-11
     (0,2,0)        2.00000E-11
     (0,0,2)       -3.00000E-11
 Nucleus-field energy     =     0.0000000139 hartrees
 Requested basis set is 6-31G(d,p)
 There are 46 shells and 123 basis functions
 A cutoff of  1.0D-14 yielded    985 shell pairs
 There are      7142 function pairs
 Smallest overlap matrix eigenvalue = 6.01E-03
 Guess from superposition of atomic densities
 Warning:  Energy on first SCF cycle will be non-variational
 SAD guess density has 58.000000 electrons

 -----------------------------------------------------------------------
  General SCF calculation program by
  Eric Jon Sundstrom, Paul Horn, Yuezhi Mao, Dmitri Zuev, Alec White,
  David Stuck, Shaama M.S., Shane Yost, Joonho Lee, David Small,
  Daniel Levine, Susi Lehtola, Hugh Burton, Evgeny Epifanovsky
 -----------------------------------------------------------------------
 Exchange:     0.2000 Hartree-Fock + 0.0800 Slater + 0.7200 B88
 Correlation:  0.1900 VWN1RPA + 0.8100 LYP
 Using SG-1 standard quadrature grid
 using 12 threads for integral computing
 -------------------------------------------------------
 OpenMP Integral computing Module                
 Release: version 1.0, May 2013, Q-Chem Inc. Pittsburgh 
 -------------------------------------------------------
 -------------------------------------------------------
 OpenMP BLAS3 based DFT computing Module                
 Release: version 1.0, May 2013, Q-Chem Inc. Pittsburgh 
 -------------------------------------------------------
 A unrestricted SCF calculation will be
 performed using DIIS
 SCF converges when DIIS error is below 1.0e-06
 Alpha HF Exchange    Energy =  -6.82262363510886
 Beta HF Exchange     Energy =  -6.82262363510886
 DFT Correlation      Energy =  -2.69564570064101
 DFT Exchange         Energy = -53.80736919145185
 One-Electron (alpha) Energy = -874.99755186184007
 One-Electron (beta)  Energy = -874.99755186184007
 Total Coulomb        Energy = 655.32852355493446
 ---------------------------------------
  Cycle       Energy         DIIS error
 ---------------------------------------
    1    -915.7810447851      2.60e-02  
 Alpha HF Exchange    Energy =  -6.95230325212524
 Beta HF Exchange     Energy =  -6.75968973901442
 DFT Correlation      Energy =  -2.71542463833857
 DFT Exchange         Energy = -54.41476507717975
 One-Electron (alpha) Energy = -892.44342826915022
 One-Electron (beta)  Energy = -864.22324341701187
 Total Coulomb        Energy = 663.14177437378191
    2    -915.3332824731      2.97e-03  
 Alpha HF Exchange    Energy =  -6.89953727818833
 Beta HF Exchange     Energy =  -6.72156811571974
 DFT Correlation      Energy =  -2.68851718599115
 DFT Exchange         Energy = -54.00568626113873
 One-Electron (alpha) Energy = -889.36404693934787
 One-Electron (beta)  Energy = -861.57421948180308
 Total Coulomb        Energy = 656.90605906266683
    3    -915.3137186536      3.44e-03  
 Alpha HF Exchange    Energy =  -6.92444062768241
 Beta HF Exchange     Energy =  -6.73922552524749
 DFT Correlation      Energy =  -2.70002051160511
 DFT Exchange         Energy = -54.18596836982778
 One-Electron (alpha) Energy = -890.72883535166966
 One-Electron (beta)  Energy = -862.69976237261073
 Total Coulomb        Energy = 659.52930200920844
    4    -915.4151532035      4.64e-04  
 Alpha HF Exchange    Energy =  -6.92784818201329
 Beta HF Exchange     Energy =  -6.74263576336736
 DFT Correlation      Energy =  -2.70025939776903
 DFT Exchange         Energy = -54.20971408053926
 One-Electron (alpha) Energy = -890.93187847955119
 One-Electron (beta)  Energy = -862.89937803299915
 Total Coulomb        Energy = 659.96086647188451
    5    -915.4170499184      2.25e-04  
 Alpha HF Exchange    Energy =  -6.92766454652212
 Beta HF Exchange     Energy =  -6.74243117666879
 DFT Correlation      Energy =  -2.69997017263324
 DFT Exchange         Energy = -54.20754861795653
 One-Electron (alpha) Energy = -890.90454206466416
 One-Electron (beta)  Energy = -862.86901581792699
 Total Coulomb        Energy = 659.89980753470479
    6    -915.4175673157      5.89e-05  
 Alpha HF Exchange    Energy =  -6.92735744874024
 Beta HF Exchange     Energy =  -6.74220527289994
 DFT Correlation      Energy =  -2.69976032427735
 DFT Exchange         Energy = -54.20495480641613
 One-Electron (alpha) Energy = -890.87016607277656
 One-Electron (beta)  Energy = -862.84176771581667
 Total Coulomb        Energy = 659.83480246805448
    7    -915.4176116269      1.98e-05  
 Alpha HF Exchange    Energy =  -6.92755461547530
 Beta HF Exchange     Energy =  -6.74240658430268
 DFT Correlation      Energy =  -2.69978084973738
 DFT Exchange         Energy = -54.20637646357417
 One-Electron (alpha) Energy = -890.88540846358126
 One-Electron (beta)  Energy = -862.85811802052194
 Total Coulomb        Energy = 659.86822704002145
    8    -915.4176204112      8.79e-06  
 Alpha HF Exchange    Energy =  -6.92752446313118
 Beta HF Exchange     Energy =  -6.74238183417120
 DFT Correlation      Energy =  -2.69975227647627
 DFT Exchange         Energy = -54.20610713545247
 One-Electron (alpha) Energy = -890.87997196043204
 One-Electron (beta)  Energy = -862.85388294905067
 Total Coulomb        Energy = 659.85819996161115
    9    -915.4176231112      4.03e-06  
 Alpha HF Exchange    Energy =  -6.92752414476276
 Beta HF Exchange     Energy =  -6.74239189342621
 DFT Correlation      Energy =  -2.69975233038721
 DFT Exchange         Energy = -54.20614190358678
 One-Electron (alpha) Energy = -890.88038179804721
 One-Electron (beta)  Energy = -862.85504908080054
 Total Coulomb        Energy = 659.85981868064846
   10    -915.4176249244      3.26e-06  
 Alpha HF Exchange    Energy =  -6.92752547679656
 Beta HF Exchange     Energy =  -6.74238927840872
 DFT Correlation      Energy =  -2.69975213035345
 DFT Exchange         Energy = -54.20613581600935
 One-Electron (alpha) Energy = -890.88018806647995
 One-Electron (beta)  Energy = -862.85491798977228
 Total Coulomb        Energy = 659.85948469760115
   11    -915.4176265143      3.07e-06  
 Alpha HF Exchange    Energy =  -6.92752609027450
 Beta HF Exchange     Energy =  -6.74239091108477
 DFT Correlation      Energy =  -2.69975295662996
 DFT Exchange         Energy = -54.20614516611541
 One-Electron (alpha) Energy = -890.88031034623043
 One-Electron (beta)  Energy = -862.85513310690772
 Total Coulomb        Energy = 659.85983299958525
   12    -915.4176280317      3.04e-06  
 Alpha HF Exchange    Energy =  -6.92752546947337
 Beta HF Exchange     Energy =  -6.74239072268364
 DFT Correlation      Energy =  -2.69975333843302
 DFT Exchange         Energy = -54.20614198126572
 One-Electron (alpha) Energy = -890.88028986847905
 One-Electron (beta)  Energy = -862.85523737943447
 Total Coulomb        Energy = 659.85991117551225
   13    -915.4176300383      3.04e-06  
 Alpha HF Exchange    Energy =  -6.92752518579095
 Beta HF Exchange     Energy =  -6.74239175651985
 DFT Correlation      Energy =  -2.69975433829066
 DFT Exchange         Energy = -54.20614426832054
 One-Electron (alpha) Energy = -890.88030432235007
 One-Electron (beta)  Energy = -862.85551938338165
 Total Coulomb        Energy = 659.86020761046643
   14    -915.4176340982      3.03e-06  
 Alpha HF Exchange    Energy =  -6.92752254090905
 Beta HF Exchange     Energy =  -6.74239885473213
 DFT Correlation      Energy =  -2.69975805162290
 DFT Exchange         Energy = -54.20615828663501
 One-Electron (alpha) Energy = -890.88029614858544
 One-Electron (beta)  Energy = -862.85691563593616
 Total Coulomb        Energy = 659.86160117517306
   15    -915.4176507973      3.06e-06  
 Alpha HF Exchange    Energy =  -6.92752249479762
 Beta HF Exchange     Energy =  -6.74239561372230
 DFT Correlation      Energy =  -2.69975737402663
 DFT Exchange         Energy = -54.20614664643543
 One-Electron (alpha) Energy = -890.88026868069869
 One-Electron (beta)  Energy = -862.85653773730053
 Total Coulomb        Energy = 659.86118338792494
   16    -915.4176476131      3.01e-06  
 Alpha HF Exchange    Energy =  -6.92749144095052
 Beta HF Exchange     Energy =  -6.74292858135187
 DFT Correlation      Energy =  -2.69977895872245
 DFT Exchange         Energy = -54.20797224746261
 One-Electron (alpha) Energy = -890.87909286908007
 One-Electron (beta)  Energy = -862.89955269567247
 Total Coulomb        Energy = 659.90531245928753
   17    -915.4177067880      8.24e-05  
 Alpha HF Exchange    Energy =  -6.92750492540434
 Beta HF Exchange     Energy =  -6.74260157287241
 DFT Correlation      Energy =  -2.69977872511006
 DFT Exchange         Energy = -54.20682270932531
 One-Electron (alpha) Energy = -890.87989685826483
 One-Electron (beta)  Energy = -862.87603387494835
 Total Coulomb        Energy = 659.88110028951121
   18    -915.4177408305      2.94e-05  
 Alpha HF Exchange    Energy =  -6.92750691077112
 Beta HF Exchange     Energy =  -6.74261843826451
 DFT Correlation      Energy =  -2.69977849602655
 DFT Exchange         Energy = -54.20689462630412
 One-Electron (alpha) Energy = -890.87995081946917
 One-Electron (beta)  Energy = -862.87695547587327
 Total Coulomb        Energy = 659.88216944558519
   19    -915.4177377752      3.23e-05  
 Alpha HF Exchange    Energy =  -6.92750851201038
 Beta HF Exchange     Energy =  -6.74259779093223
 DFT Correlation      Energy =  -2.69977974387056
 DFT Exchange         Energy = -54.20682525455236
 One-Electron (alpha) Energy = -890.88007312549360
 One-Electron (beta)  Energy = -862.87563714150167
 Total Coulomb        Energy = 659.88088449606278
   20    -915.4177395264      2.86e-05  
 Alpha HF Exchange    Energy =  -6.92744599821492
 Beta HF Exchange     Energy =  -6.74366299019922
 DFT Correlation      Energy =  -2.69975102854494
 DFT Exchange         Energy = -54.21050439167019
 One-Electron (alpha) Energy = -890.87592961560074
 One-Electron (beta)  Energy = -862.94901984007515
 Total Coulomb        Energy = 659.95525028940347
   21    -915.4172660290      2.07e-04  
 Alpha HF Exchange    Energy =  -6.92744183420553
 Beta HF Exchange     Energy =  -6.74372203476121
 DFT Correlation      Energy =  -2.69974555666015
 DFT Exchange         Energy = -54.21071006520222
 One-Electron (alpha) Energy = -890.87553128093862
 One-Electron (beta)  Energy = -862.95251473526230
 Total Coulomb        Energy = 659.95866542640499
   22    -915.4172025347      2.18e-04  
 Alpha HF Exchange    Energy =  -6.92744615540951
 Beta HF Exchange     Energy =  -6.74362216325417
 DFT Correlation      Energy =  -2.69975423162750
 DFT Exchange         Energy = -54.21035377500131
 One-Electron (alpha) Energy = -890.87605779294165
 One-Electron (beta)  Energy = -862.94653001746656
 Total Coulomb        Energy = 659.95266036055500
   23    -915.4173062292      1.99e-04  
 Alpha HF Exchange    Energy =  -6.92744769628195
 Beta HF Exchange     Energy =  -6.74353478707956
 DFT Correlation      Energy =  -2.69976134218589
 DFT Exchange         Energy = -54.21003244979855
 One-Electron (alpha) Energy = -890.87634251847578
 One-Electron (beta)  Energy = -862.94133706099240
 Total Coulomb        Energy = 659.94726946362528
   24    -915.4173888452      1.83e-04  
 Alpha HF Exchange    Energy =  -6.92745098275464
 Beta HF Exchange     Energy =  -6.74345250365047
 DFT Correlation      Energy =  -2.69976757123617
 DFT Exchange         Energy = -54.20973715587306
 One-Electron (alpha) Energy = -890.87670312793000
 One-Electron (beta)  Energy = -862.93637878660604
 Total Coulomb        Energy = 659.94223210999746
   25    -915.4174604721      1.68e-04  
 Alpha HF Exchange    Energy =  -6.92745030273170
 Beta HF Exchange     Energy =  -6.74345990295366
 DFT Correlation      Energy =  -2.69976993808919
 DFT Exchange         Energy = -54.20975926615732
 One-Electron (alpha) Energy = -890.87683091521740
 One-Electron (beta)  Energy = -862.93737936804803
 Total Coulomb        Energy = 659.94338928426646
   26    -915.4174628630      1.68e-04  
 Alpha HF Exchange    Energy =  -6.92744951291274
 Beta HF Exchange     Energy =  -6.74343622369051
 DFT Correlation      Energy =  -2.69977205326455
 DFT Exchange         Energy = -54.20966580646157
 One-Electron (alpha) Energy = -890.87682250752800
 One-Electron (beta)  Energy = -862.93608545517441
 Total Coulomb        Energy = 659.94194981049691
   27    -915.4174842026      1.64e-04  
 Alpha HF Exchange    Energy =  -6.92745493081397
 Beta HF Exchange     Energy =  -6.74331461491651
 DFT Correlation      Energy =  -2.69978017620766
 DFT Exchange         Energy = -54.20923258310480
 One-Electron (alpha) Energy = -890.87732578777127
 One-Electron (beta)  Energy = -862.92868261199555
 Total Coulomb        Energy = 659.93441982811623
   28    -915.4175733308      1.42e-04  
 Alpha HF Exchange    Energy =  -6.92747544061790
 Beta HF Exchange     Energy =  -6.74273756033016
 DFT Correlation      Energy =  -2.69980803062230
 DFT Exchange         Energy = -54.20716946877914
 One-Electron (alpha) Energy = -890.87932405437277
 One-Electron (beta)  Energy = -862.89267106943441
 Total Coulomb        Energy = 659.89757631538714
   29    -915.4178117628      4.17e-05  
 Alpha HF Exchange    Energy =  -6.92745255445258
 Beta HF Exchange     Energy =  -6.74313676577696
 DFT Correlation      Energy =  -2.69980911891068
 DFT Exchange         Energy = -54.20853476025380
 One-Electron (alpha) Energy = -890.87828199323110
 One-Electron (beta)  Energy = -862.92141787684693
 Total Coulomb        Energy = 659.92711950223031
   30    -915.4177160213      1.03e-04  
 Alpha HF Exchange    Energy =  -6.92745406099582
 Beta HF Exchange     Energy =  -6.74294062959658
 DFT Correlation      Energy =  -2.69982302290263
 DFT Exchange         Energy = -54.20780588761167
 One-Electron (alpha) Energy = -890.87880702637221
 One-Electron (beta)  Energy = -862.91040403082400
 Total Coulomb        Energy = 659.91563639894218
   31    -915.4178007134      6.79e-05  
 Alpha HF Exchange    Energy =  -6.92745439973613
 Beta HF Exchange     Energy =  -6.74279529014149
 DFT Correlation      Energy =  -2.69983712311517
 DFT Exchange         Energy = -54.20725700448466
 One-Electron (alpha) Energy = -890.87924489618092
 One-Electron (beta)  Energy = -862.90310697608459
 Total Coulomb        Energy = 659.90805410214921
   32    -915.4178440417      3.99e-05  
 Alpha HF Exchange    Energy =  -6.92746091479985
 Beta HF Exchange     Energy =  -6.74248946734026
 DFT Correlation      Energy =  -2.69985458045286
 DFT Exchange         Energy = -54.20614374520562
 One-Electron (alpha) Energy = -890.88010350263107
 One-Electron (beta)  Energy = -862.88584164437111
 Total Coulomb        Energy = 659.89023288257863
   33    -915.4178634263      1.43e-05  
 Alpha HF Exchange    Energy =  -6.92745922253930
 Beta HF Exchange     Energy =  -6.74255972728042
 DFT Correlation      Energy =  -2.69985225960623
 DFT Exchange         Energy = -54.20639714066564
 One-Electron (alpha) Energy = -890.87995661697494
 One-Electron (beta)  Energy = -862.89005558913675
 Total Coulomb        Energy = 659.89461679482486
   34    -915.4178662154      2.35e-06  
 Alpha HF Exchange    Energy =  -6.92745882637628
 Beta HF Exchange     Energy =  -6.74257223661522
 DFT Correlation      Energy =  -2.69985174933206
 DFT Exchange         Energy = -54.20644169922187
 One-Electron (alpha) Energy = -890.87992559775410
 One-Electron (beta)  Energy = -862.89080633215360
 Total Coulomb        Energy = 659.89539260354491
   35    -915.4178662920      2.03e-07  Convergence criterion met
 ---------------------------------------
 SCF time:   CPU 105.49s  wall 9.00s 
<S^2> =          2.007892571
 Alpha HF Exchange    Energy =  -6.92745882637628
 Beta HF Exchange     Energy =  -6.74257223661522
 DFT Correlation      Energy =  -2.69985174933206
 DFT Exchange         Energy = -54.20644169922187
 One-Electron (alpha) Energy = -890.87992559775410
 One-Electron (beta)  Energy = -862.89080633215360
 Total Coulomb        Energy = 659.89539260354491
 Nuclear repulsion Energy = 249.03379754594113
 SCF   energy in the final basis set =     -915.4178662920
 Total energy in the final basis set =     -915.4178662920
 
 --------------------------------------------------------------
 
                    Orbital Energies (a.u.)
 --------------------------------------------------------------
 
 Alpha MOs
 -- Occupied --
-88.894 -88.885 -10.242 -10.206 -10.194  -7.956  -7.948  -5.927
 -5.916  -5.913  -5.909  -5.908  -5.903  -0.827  -0.723  -0.715
 -0.695  -0.587  -0.480  -0.445  -0.432  -0.406  -0.396  -0.381
 -0.363  -0.345  -0.307  -0.262  -0.258  -0.211
 -- Virtual --
  0.013   0.056   0.058   0.101   0.121   0.129   0.158   0.169
  0.177   0.218   0.250   0.282   0.313   0.328   0.354   0.367
  0.374   0.402   0.481   0.490   0.512   0.541   0.565   0.568
  0.603   0.663   0.689   0.701   0.718   0.740   0.740   0.749
  0.751   0.797   0.807   0.828   0.859   0.874   0.881   0.905
  0.922   0.937   0.965   1.032   1.117   1.130   1.166   1.190
  1.343   1.427   1.442   1.542   1.690   1.760   1.825   1.868
  1.903   1.974   2.013   2.035   2.071   2.078   2.088   2.092
  2.104   2.113   2.119   2.273   2.305   2.354   2.395   2.491
  2.559   2.579   2.623   2.694   2.728   2.737   2.744   2.824
  2.863   2.908   3.179   3.284   3.369   3.406   3.461   3.500
  3.933   3.973   4.245   4.368   4.578
 
 Beta MOs
 -- Occupied --
-88.889 -88.884 -10.243 -10.194 -10.193  -7.950  -7.946  -5.913
 -5.911  -5.909  -5.907  -5.905  -5.901  -0.819  -0.711  -0.682
 -0.674  -0.578  -0.475  -0.441  -0.426  -0.402  -0.384  -0.376
 -0.359  -0.333  -0.252  -0.245
 -- Virtual --
 -0.165  -0.072   0.019   0.063   0.068   0.103   0.124   0.138
  0.159   0.171   0.181   0.224   0.257   0.291   0.324   0.338
  0.366   0.380   0.391   0.408   0.486   0.493   0.519   0.555
  0.571   0.603   0.617   0.670   0.697   0.717   0.744   0.749
  0.759   0.799   0.804   0.809   0.813   0.832   0.864   0.879
  0.884   0.911   0.926   0.943   0.974   1.046   1.124   1.135
  1.172   1.195   1.359   1.435   1.465   1.551   1.698   1.761
  1.829   1.877   1.922   1.995   2.024   2.036   2.073   2.081
  2.087   2.096   2.105   2.119   2.123   2.279   2.306   2.358
  2.406   2.505   2.574   2.591   2.625   2.697   2.731   2.740
  2.745   2.826   2.864   2.911   3.179   3.287   3.374   3.408
  3.462   3.505   3.950   3.977   4.262   4.380   4.581
 --------------------------------------------------------------
 
          Ground-State Mulliken Net Atomic Charges

     Atom                 Charge (a.u.)    Spin (a.u.)
  --------------------------------------------------------
      1 S                    -0.063262       0.150429
      2 S                    -0.108599       1.027737
      3 C                    -0.218964      -0.085681
      4 C                    -0.204357       1.006769
      5 C                    -0.301531       0.005733
      6 H                     0.148583       0.014199
      7 H                     0.109637      -0.044444
      8 H                     0.129952      -0.044660
      9 H                     0.120001      -0.000543
     10 H                     0.111101      -0.000621
     11 H                     0.126262       0.000909
     12 H                     0.069521      -0.002637
     13 H                     0.081658      -0.027189
  --------------------------------------------------------
  Sum of atomic charges =    -0.000000
  Sum of spin   charges =     2.000000

 -----------------------------------------------------------------
                    Cartesian Multipole Moments
 -----------------------------------------------------------------
    Charge (ESU x 10^10)
                -0.0000
    Dipole Moment (Debye)
         X       2.2336      Y       1.3046      Z       0.6969
       Tot       2.6789
    Quadrupole Moments (Debye-Ang)
        XX     -55.0176     XY      -1.0759     YY     -50.4838
        XZ       0.9202     YZ      -1.2385     ZZ     -44.1210
    Octopole Moments (Debye-Ang^2)
       XXX     113.1194    XXY      30.7791    XYY      33.2087
       YYY      55.8872    XXZ      -1.0134    XYZ      -4.0628
       YYZ       2.2508    XZZ      25.0816    YZZ      16.0283
       ZZZ      -0.0076
    Hexadecapole Moments (Debye-Ang^3)
      XXXX   -1512.0886   XXXY    -221.1741   XXYY    -340.2182
      XYYY    -190.9927   YYYY    -439.2129   XXXZ      -3.5642
      XXYZ      -0.4163   XYYZ       4.6739   YYYZ     -31.1976
      XXZZ    -238.8780   XYZZ     -55.4908   YYZZ     -84.0535
      XZZZ      -3.7969   YZZZ     -24.1574   ZZZZ     -95.6253
 -----------------------------------------------------------------
 Calculating analytic gradient of the SCF energy
 Gradient of SCF Energy
            1           2           3           4           5           6
    1  -0.0002800   0.0013275   0.0007222  -0.0007018   0.0001494   0.0000202
    2   0.0007326  -0.0001281  -0.0001645  -0.0006582  -0.0000824   0.0000175
    3   0.0001181  -0.0000924   0.0000274  -0.0000618  -0.0002511   0.0000537
            7           8           9          10          11          12
    1  -0.0000534  -0.0000896   0.0000385  -0.0000288   0.0000429  -0.0000213
    2   0.0000240  -0.0001193   0.0000307   0.0000110   0.0000376  -0.0000366
    3  -0.0000398   0.0000463  -0.0000081  -0.0000502   0.0000202   0.0000319
           13
    1  -0.0011259
    2   0.0003357
    3   0.0002056
 Max gradient component =       1.327E-03
 RMS gradient           =       3.740E-04
 Gradient time:  CPU 10.80 s  wall 0.96 s
 Geometry Optimization Parameters
   NAtoms,    NIC,     NZ,  NCons,   NDum,   NFix, NCnnct, MaxDiis
       13      80       0       1       0       0       0       0

 Cartesian Hessian Update
 Hessian Updated using BFGS Update


** CONSTRAINED OPTIMIZATION IN DELOCALIZED INTERNAL COORDINATES **
   Searching for a Minimum

   Optimization Cycle:   2

                       Coordinates (Angstroms)
     ATOM                X               Y               Z
      1  S         0.3707952464   -1.3997449916   -0.1853086703
      2  S        -3.6477172322   -1.0650613808   -0.0820120510
      3  C         0.6880661245    0.4858184314   -0.2501018344
      4  C        -0.2810213729    1.1695371467    0.6223127577
      5  C         2.1532404251    0.7987241099    0.0482014896
      6  H         0.4651265399    0.6813426960   -1.3046364486
      7  H        -0.0228631573    1.3858597145    1.6549012383
      8  H        -1.3180145521    1.2700161011    0.3225505235
      9  H         2.3393319769    1.8689030288   -0.0961749111
     10  H         2.4036100884    0.5523154310    1.0855024583
     11  H         2.8213722439    0.2357463318   -0.6073494770
     12  H         0.5855949890   -1.5368144736    1.1390947736
     13  H        -2.3178213196   -1.3216451453   -0.1579828485
   Point Group: c1    Number of degrees of freedom:    33


   Energy is   -915.417866292

              Constraints and their Current Values
                                        Value     Constraint
   Distance(Angs):        2   4             4.101725     4.100000
 Hessian Updated using BFGS Update

   Using Lagrange Multiplier Algorithm


 31 Hessian modes will be used to form the next step
  Hessian Eigenvalues:
    -0.998829    0.023311    0.045000    0.045086    0.046075    0.047039
     0.072598    0.078598    0.082700    0.084025    0.090446    0.095049
     0.159990    0.160119    0.160476    0.188044    0.193725    0.195145
     0.199939    0.210159    0.257373    0.266289    0.297545    0.341547
     0.341966    0.342287    0.345483    0.352672    0.354966    0.355102
     1.001296

 Minimum Search - Taking P-RFO Step
 Searching for Lamda that Maximizes Along the Constraint modes Only
 Value Taken    Lamda =   0.00000313
 Searching for Lamda that Minimizes Along All other modes
 Value Taken    Lamda =  -0.00002618
 Step Taken.  Stepsize is  0.011046

                             Maximum     Tolerance    Cnvgd?
         Gradient            0.003259       0.000300      NO
         Displacement        0.005994       0.001200      NO
         Energy change      0.000041       0.000001      NO


 New Cartesian Coordinates Obtained by Inverse Iteration

 Displacement from previous Coordinates is:  0.022884
 ----------------------------------------------------------------
             Standard Nuclear Orientation (Angstroms)
    I     Atom           X                Y                Z
 ----------------------------------------------------------------
    1      S       0.3720806185    -1.4024791257    -0.1868421155
    2      S      -3.6446628056    -1.0639802965    -0.0809796148
    3      C       0.6861141991     0.4850585564    -0.2505162350
    4      C      -0.2805584659     1.1717821836     0.6219914926
    5      C       2.1508349982     0.7979553244     0.0491162567
    6      H       0.4633363189     0.6805229979    -1.3051641765
    7      H      -0.0206903160     1.3885019859     1.6541270737
    8      H      -1.3173552991     1.2753604922     0.3228577517
    9      H       2.3368384436     1.8681139751    -0.0952154407
   10      H       2.4004646562     0.5516357077     1.0866913949
   11      H       2.8192453220     0.2347902736    -0.6059883848
   12      H       0.5875327804    -1.5394861178     1.1374145870
   13      H      -2.3134804502    -1.3227789568    -0.1584955891
 ----------------------------------------------------------------
 Nuclear Repulsion Energy =   249.0308500692 hartrees
 There are       30 alpha and       28 beta electrons

                       Distance Matrix (Angstroms)
             S (  1)   S (  2)   C (  3)   C (  4)   C (  5)   H (  6)
   S (  2)  4.032371
   C (  3)  1.914542  4.602596
   C (  4)  2.776143  4.100000  1.472180
   C (  5)  2.839288  6.088639  1.527446  2.525788
   H (  6)  2.365982  4.627913  1.095499  2.123357  2.166914
   H (  7)  3.366454  4.707275  2.223387  1.086187  2.764114  3.081058
   H (  8)  3.206994  3.324449  2.228727  1.084047  3.511580  2.484985
   H (  9)  3.816471  6.661512  2.159132  2.801791  1.095750  2.526729
   H ( 10)  3.091083  6.365315  2.175214  2.790773  1.095240  3.080593
   H ( 11)  2.974046  6.613966  2.176980  3.463332  1.092286  2.497565
   H ( 12)  1.348646  4.429681  2.456593  2.893133  3.015284  3.303037
   H ( 13)  2.686893  1.358320  3.503471  3.311309  4.946790  3.610925
             H (  7)   H (  8)   H (  9)   H ( 10)   H ( 11)   H ( 12)
   H (  8)  1.861832
   H (  9)  2.974587  3.725490
   H ( 10)  2.623799  3.863859  1.770330
   H ( 11)  3.808465  4.365433  1.778019  1.772268
   H ( 12)  3.034805  3.495063  4.023827  2.768047  3.341863
   H ( 13)  3.986669  2.823879  5.640148  5.223524  5.382485  3.184686

 
 Applying Cartesian multipole field
    Component          Value
    ---------          -----
     (2,0,0)        1.00000E-11
     (0,2,0)        2.00000E-11
     (0,0,2)       -3.00000E-11
 Nucleus-field energy     =     0.0000000139 hartrees
 Requested basis set is 6-31G(d,p)
 There are 46 shells and 123 basis functions
 A cutoff of  1.0D-14 yielded    985 shell pairs
 There are      7142 function pairs
 Smallest overlap matrix eigenvalue = 6.00E-03
 Guess from superposition of atomic densities
 Warning:  Energy on first SCF cycle will be non-variational
 SAD guess density has 58.000000 electrons

 -----------------------------------------------------------------------
  General SCF calculation program by
  Eric Jon Sundstrom, Paul Horn, Yuezhi Mao, Dmitri Zuev, Alec White,
  David Stuck, Shaama M.S., Shane Yost, Joonho Lee, David Small,
  Daniel Levine, Susi Lehtola, Hugh Burton, Evgeny Epifanovsky
 -----------------------------------------------------------------------
 Exchange:     0.2000 Hartree-Fock + 0.0800 Slater + 0.7200 B88
 Correlation:  0.1900 VWN1RPA + 0.8100 LYP
 Using SG-1 standard quadrature grid
 using 12 threads for integral computing
 -------------------------------------------------------
 OpenMP Integral computing Module                
 Release: version 1.0, May 2013, Q-Chem Inc. Pittsburgh 
 -------------------------------------------------------
 -------------------------------------------------------
 OpenMP BLAS3 based DFT computing Module                
 Release: version 1.0, May 2013, Q-Chem Inc. Pittsburgh 
 -------------------------------------------------------
 A unrestricted SCF calculation will be
 performed using DIIS
 SCF converges when DIIS error is below 1.0e-06
 Alpha HF Exchange    Energy =  -6.82246726069723
 Beta HF Exchange     Energy =  -6.82246726069723
 DFT Correlation      Energy =  -2.69561182547481
 DFT Exchange         Energy = -53.80701413602328
 One-Electron (alpha) Energy = -874.99553353973909
 One-Electron (beta)  Energy = -874.99553353973909
 Total Coulomb        Energy = 655.32823438023581
 ---------------------------------------
  Cycle       Energy         DIIS error
 ---------------------------------------
    1    -915.7795430990      2.59e-02  
 Alpha HF Exchange    Energy =  -6.95218343611573
 Beta HF Exchange     Energy =  -6.75953915628042
 DFT Correlation      Energy =  -2.71538997231608
 DFT Exchange         Energy = -54.41403153469582
 One-Electron (alpha) Energy = -892.44086737036150
 One-Electron (beta)  Energy = -864.21836425065544
 Total Coulomb        Energy = 663.13625747073831
    2    -915.3332681666      2.97e-03  
 Alpha HF Exchange    Energy =  -6.89944625654592
 Beta HF Exchange     Energy =  -6.72150304543364
 DFT Correlation      Energy =  -2.68848582622655
 DFT Exchange         Energy = -54.00518959255055
 One-Electron (alpha) Energy = -889.36318670508888
 One-Electron (beta)  Energy = -861.57332630482142
 Total Coulomb        Energy = 656.90656995808399
    3    -915.3137176894      3.44e-03  
 Alpha HF Exchange    Energy =  -6.92432954448697
 Beta HF Exchange     Energy =  -6.73914453326350
 DFT Correlation      Energy =  -2.69997743758296
 DFT Exchange         Energy = -54.18532800849115
 One-Electron (alpha) Energy = -890.72550811907684
 One-Electron (beta)  Energy = -862.69684969716855
 Total Coulomb        Energy = 659.52513276909235
    4    -915.4151544878      4.65e-04  
 Alpha HF Exchange    Energy =  -6.92774875937297
 Beta HF Exchange     Energy =  -6.74256738455255
 DFT Correlation      Energy =  -2.70021979471633
 DFT Exchange         Energy = -54.20916160912623
 One-Electron (alpha) Energy = -890.92956850557266
 One-Electron (beta)  Energy = -862.89745422105091
 Total Coulomb        Energy = 659.95881272444660
    5    -915.4170574668      2.26e-04  
 Alpha HF Exchange    Energy =  -6.92756177491833
 Beta HF Exchange     Energy =  -6.74236109959342
 DFT Correlation      Energy =  -2.69992931035584
 DFT Exchange         Energy = -54.20697416478627
 One-Electron (alpha) Energy = -890.90195039567470
 One-Electron (beta)  Energy = -862.86694760496380
 Total Coulomb        Energy = 659.89729718142803
    6    -915.4175770857      5.91e-05  
 Alpha HF Exchange    Energy =  -6.92725378107426
 Beta HF Exchange     Energy =  -6.74213548251803
 DFT Correlation      Energy =  -2.69971887066975
 DFT Exchange         Energy = -54.20437530405721
 One-Electron (alpha) Energy = -890.86745938848458
 One-Electron (beta)  Energy = -862.83966318659793
 Total Coulomb        Energy = 659.83213411774818
    7    -915.4176218125      1.99e-05  
 Alpha HF Exchange    Energy =  -6.92745152507263
 Beta HF Exchange     Energy =  -6.74233770460191
 DFT Correlation      Energy =  -2.69973956658283
 DFT Exchange         Energy = -54.20580223752400
 One-Electron (alpha) Energy = -890.88274222893551
 One-Electron (beta)  Energy = -862.85606530865311
 Total Coulomb        Energy = 659.86565780064632
    8    -915.4176306876      8.81e-06  
 Alpha HF Exchange    Energy =  -6.92742105180494
 Beta HF Exchange     Energy =  -6.74231273066018
 DFT Correlation      Energy =  -2.69971084730560
 DFT Exchange         Energy = -54.20553047828275
 One-Electron (alpha) Energy = -890.87727838049091
 One-Electron (beta)  Energy = -862.85181059971103
 Total Coulomb        Energy = 659.85558059971515
    9    -915.4176334054      4.05e-06  
 Alpha HF Exchange    Energy =  -6.92742079262680
 Beta HF Exchange     Energy =  -6.74232299200077
 DFT Correlation      Energy =  -2.69971093525042
 DFT Exchange         Energy = -54.20556618769248
 One-Electron (alpha) Energy = -890.87769993712732
 One-Electron (beta)  Energy = -862.85299286140264
 Total Coulomb        Energy = 659.85722839264270
   10    -915.4176352303      3.27e-06  
 Alpha HF Exchange    Energy =  -6.92742213742037
 Beta HF Exchange     Energy =  -6.74232035626654
 DFT Correlation      Energy =  -2.69971073124226
 DFT Exchange         Energy = -54.20556003811855
 One-Electron (alpha) Energy = -890.87750419167492
 One-Electron (beta)  Energy = -862.85285945558098
 Total Coulomb        Energy = 659.85689000267348
   11    -915.4176368245      3.08e-06  
 Alpha HF Exchange    Energy =  -6.92742274326932
 Beta HF Exchange     Energy =  -6.74232198083132
 DFT Correlation      Energy =  -2.69971156041828
 DFT Exchange         Energy = -54.20556933775444
 One-Electron (alpha) Energy = -890.87762635941203
 One-Electron (beta)  Energy = -862.85307437872564
 Total Coulomb        Energy = 659.85723792280169
   12    -915.4176383545      3.05e-06  
 Alpha HF Exchange    Energy =  -6.92742212238240
 Beta HF Exchange     Energy =  -6.74232178884750
 DFT Correlation      Energy =  -2.69971194491395
 DFT Exchange         Energy = -54.20556615042734
 One-Electron (alpha) Energy = -890.87760607955965
 One-Electron (beta)  Energy = -862.85317842635084
 Total Coulomb        Energy = 659.85731607013656
   13    -915.4176403592      3.04e-06  
 Alpha HF Exchange    Energy =  -6.92742184355356
 Beta HF Exchange     Energy =  -6.74232279198779
 DFT Correlation      Energy =  -2.69971293178053
 DFT Exchange         Energy = -54.20556835956056
 One-Electron (alpha) Energy = -890.87762036661422
 One-Electron (beta)  Energy = -862.85345538681611
 Total Coulomb        Energy = 659.85760723474505
   14    -915.4176443624      3.04e-06  
 Alpha HF Exchange    Energy =  -6.92741924759663
 Beta HF Exchange     Energy =  -6.74232970271073
 DFT Correlation      Energy =  -2.69971661459874
 DFT Exchange         Energy = -54.20558194933739
 One-Electron (alpha) Energy = -890.87761403659238
 One-Electron (beta)  Energy = -862.85483039611699
 Total Coulomb        Energy = 659.85898097647862
   15    -915.4176608873      3.06e-06  
 Alpha HF Exchange    Energy =  -6.92741917134107
 Beta HF Exchange     Energy =  -6.74232652804285
 DFT Correlation      Energy =  -2.69971596099285
 DFT Exchange         Energy = -54.20557041949276
 One-Electron (alpha) Energy = -890.87758560144175
 One-Electron (beta)  Energy = -862.85446319360994
 Total Coulomb        Energy = 659.85857297667724
   16    -915.4176578151      3.01e-06  
 Alpha HF Exchange    Energy =  -6.92738795617088
 Beta HF Exchange     Energy =  -6.74286454179500
 DFT Correlation      Energy =  -2.69973771195003
 DFT Exchange         Energy = -54.20741427781189
 One-Electron (alpha) Energy = -890.87640362334844
 One-Electron (beta)  Energy = -862.89789104866350
 Total Coulomb        Energy = 659.90313289487563
   17    -915.4177161817      8.33e-05  
 Alpha HF Exchange    Energy =  -6.92740181975740
 Beta HF Exchange     Energy =  -6.74252838967458
 DFT Correlation      Energy =  -2.69973738050518
 DFT Exchange         Energy = -54.20623257590556
 One-Electron (alpha) Energy = -890.87722828003314
 One-Electron (beta)  Energy = -862.87368703022264
 Total Coulomb        Energy = 659.87821427227402
   18    -915.4177511207      2.88e-05  
 Alpha HF Exchange    Energy =  -6.92740364786966
 Beta HF Exchange     Energy =  -6.74254840231253
 DFT Correlation      Energy =  -2.69973720520751
 DFT Exchange         Energy = -54.20631536142592
 One-Electron (alpha) Energy = -890.87727406456725
 One-Electron (beta)  Energy = -862.87484532942460
 Total Coulomb        Energy = 659.87952561198188
   19    -915.4177483157      3.21e-05  
 Alpha HF Exchange    Energy =  -6.92740518893790
 Beta HF Exchange     Energy =  -6.74252866265284
 DFT Correlation      Energy =  -2.69973862866004
 DFT Exchange         Energy = -54.20624904234399
 One-Electron (alpha) Energy = -890.87739764970843
 One-Electron (beta)  Energy = -862.87362375259829
 Total Coulomb        Energy = 659.87834234243860
   20    -915.4177504993      2.86e-05  
 Alpha HF Exchange    Energy =  -6.92734306575604
 Beta HF Exchange     Energy =  -6.74358550148790
 DFT Correlation      Energy =  -2.69971085381300
 DFT Exchange         Energy = -54.20989855490555
 One-Electron (alpha) Energy = -890.87331004161842
 One-Electron (beta)  Energy = -862.94657398012646
 Total Coulomb        Energy = 659.95228615816734
   21    -915.4172857564      2.05e-04  
 Alpha HF Exchange    Energy =  -6.92733843586914
 Beta HF Exchange     Energy =  -6.74365351071864
 DFT Correlation      Energy =  -2.69970460633913
 DFT Exchange         Energy = -54.21013597043645
 One-Electron (alpha) Energy = -890.87286200213066
 One-Electron (beta)  Energy = -862.95060613584280
 Total Coulomb        Energy = 659.95623754972837
   22    -915.4172130285      2.18e-04  
 Alpha HF Exchange    Energy =  -6.92734279439955
 Beta HF Exchange     Energy =  -6.74355134950361
 DFT Correlation      Energy =  -2.69971351323485
 DFT Exchange         Energy = -54.20977111656495
 One-Electron (alpha) Energy = -890.87339773062854
 One-Electron (beta)  Energy = -862.94449243052145
 Total Coulomb        Energy = 659.95009963260111
   23    -915.4173192191      1.99e-04  
 Alpha HF Exchange    Energy =  -6.92734439357547
 Beta HF Exchange     Energy =  -6.74346376358114
 DFT Correlation      Energy =  -2.69972060007116
 DFT Exchange         Energy = -54.20944933150109
 One-Electron (alpha) Energy = -890.87368441718684
 One-Electron (beta)  Energy = -862.93927833603095
 Total Coulomb        Energy = 659.94468898732805
   24    -915.4174017715      1.83e-04  
 Alpha HF Exchange    Energy =  -6.92734770717508
 Beta HF Exchange     Energy =  -6.74338118033839
 DFT Correlation      Energy =  -2.69972680731784
 DFT Exchange         Energy = -54.20915307466076
 One-Electron (alpha) Energy = -890.87404470830882
 One-Electron (beta)  Energy = -862.93429389629057
 Total Coulomb        Energy = 659.93962389564615
   25    -915.4174733953      1.68e-04  
 Alpha HF Exchange    Energy =  -6.92734756422151
 Beta HF Exchange     Energy =  -6.74338135328881
 DFT Correlation      Energy =  -2.69972984049113
 DFT Exchange         Energy = -54.20915041166158
 One-Electron (alpha) Energy = -890.87422849376412
 One-Electron (beta)  Energy = -862.93486940692321
 Total Coulomb        Energy = 659.94037509977716
   26    -915.4174818874      1.67e-04  
 Alpha HF Exchange    Energy =  -6.92734670406713
 Beta HF Exchange     Energy =  -6.74335172609770
 DFT Correlation      Energy =  -2.69973257869500
 DFT Exchange         Energy = -54.20903396871768
 One-Electron (alpha) Energy = -890.87423034873984
 One-Electron (beta)  Energy = -862.93326533418258
 Total Coulomb        Energy = 659.93860220626311
   27    -915.4175083711      1.61e-04  
 Alpha HF Exchange    Energy =  -6.92735231523361
 Beta HF Exchange     Energy =  -6.74322058949767
 DFT Correlation      Energy =  -2.69974112401162
 DFT Exchange         Energy = -54.20856633637192
 One-Electron (alpha) Energy = -890.87475949922566
 One-Electron (beta)  Energy = -862.92525980929418
 Total Coulomb        Energy = 659.93044780442278
   28    -915.4176017861      1.38e-04  
 Alpha HF Exchange    Energy =  -6.92737208277762
 Beta HF Exchange     Energy =  -6.74265605596182
 DFT Correlation      Energy =  -2.69976830298337
 DFT Exchange         Energy = -54.20654669966224
 One-Electron (alpha) Energy = -890.87669828636126
 One-Electron (beta)  Energy = -862.89008918623608
 Total Coulomb        Energy = 659.89445424028224
   29    -915.4178262906      3.94e-05  
 Alpha HF Exchange    Energy =  -6.92734790599452
 Beta HF Exchange     Energy =  -6.74308176752732
 DFT Correlation      Energy =  -2.69976845963791
 DFT Exchange         Energy = -54.20800514477466
 One-Electron (alpha) Energy = -890.87556421436022
 One-Electron (beta)  Energy = -862.92052970917621
 Total Coulomb        Energy = 659.92572541636457
   30    -915.4177217020      1.06e-04  
 Alpha HF Exchange    Energy =  -6.92734961323862
 Beta HF Exchange     Energy =  -6.74288561896642
 DFT Correlation      Energy =  -2.69978257988958
 DFT Exchange         Energy = -54.20727677565342
 One-Electron (alpha) Energy = -890.87610363399176
 One-Electron (beta)  Energy = -862.90953729392095
 Total Coulomb        Energy = 659.91427683787413
   31    -915.4178085947      7.00e-05  
 Alpha HF Exchange    Energy =  -6.92735093787884
 Beta HF Exchange     Energy =  -6.74272506420903
 DFT Correlation      Energy =  -2.69979667296636
 DFT Exchange         Energy = -54.20667652680314
 One-Electron (alpha) Energy = -890.87658580374602
 One-Electron (beta)  Energy = -862.90116872914439
 Total Coulomb        Energy = 659.90559789534450
   32    -915.4178557563      3.97e-05  
 Alpha HF Exchange    Energy =  -6.92735709709775
 Beta HF Exchange     Energy =  -6.74243251873028
 DFT Correlation      Energy =  -2.69981352946865
 DFT Exchange         Energy = -54.20561092903061
 One-Electron (alpha) Energy = -890.87740697533036
 One-Electron (beta)  Energy = -862.88468793419406
 Total Coulomb        Energy = 659.88858326266507
   33    -915.4178756381      1.22e-05  
 Alpha HF Exchange    Energy =  -6.92735579842416
 Beta HF Exchange     Energy =  -6.74248970783404
 DFT Correlation      Energy =  -2.69981178577190
 DFT Exchange         Energy = -54.20581749443237
 One-Electron (alpha) Energy = -890.87729836483106
 One-Electron (beta)  Energy = -862.88813673406207
 Total Coulomb        Energy = 659.89218215686060
   34    -915.4178776454      2.50e-06  
 Alpha HF Exchange    Energy =  -6.92735549875234
 Beta HF Exchange     Energy =  -6.74250203067159
 DFT Correlation      Energy =  -2.69981117272257
 DFT Exchange         Energy = -54.20586197332683
 One-Electron (alpha) Energy = -890.87726880941966
 One-Electron (beta)  Energy = -862.88884795958882
 Total Coulomb        Energy = 659.89291963091330
   35    -915.4178777304      3.43e-07  Convergence criterion met
 ---------------------------------------
 SCF time:   CPU 104.10s  wall 8.00s 
<S^2> =          2.007901662
 Alpha HF Exchange    Energy =  -6.92735549875234
 Beta HF Exchange     Energy =  -6.74250203067159
 DFT Correlation      Energy =  -2.69981117272257
 DFT Exchange         Energy = -54.20586197332683
 One-Electron (alpha) Energy = -890.87726880941966
 One-Electron (beta)  Energy = -862.88884795958882
 Total Coulomb        Energy = 659.89291963091330
 Nuclear repulsion Energy = 249.03085008313505
 SCF   energy in the final basis set =     -915.4178777304
[...]
 Total Coulomb        Energy = 659.88024925906802
   16    -915.4176617672      3.01e-06  
 Alpha HF Exchange    Energy =  -6.92731297819205
 Beta HF Exchange     Energy =  -6.74282819612311
 DFT Correlation      Energy =  -2.69970951466814
 DFT Exchange         Energy = -54.20705802714336
 One-Electron (alpha) Energy = -890.89866269442962
 One-Electron (beta)  Energy = -862.91901026508060
 Total Coulomb        Energy = 659.92538944965179
   17    -915.4177181107      8.46e-05  
 Alpha HF Exchange    Energy =  -6.92732731248853
 Beta HF Exchange     Energy =  -6.74247750131845
 DFT Correlation      Energy =  -2.69970917649726
 DFT Exchange         Energy = -54.20582508698050
 One-Electron (alpha) Energy = -890.89952168873924
 One-Electron (beta)  Energy = -862.89371929036918
 Total Coulomb        Energy = 659.89935136576082
   18    -915.4177545754      2.78e-05  
 Alpha HF Exchange    Energy =  -6.92732886285426
 Beta HF Exchange     Energy =  -6.74250358851430
 DFT Correlation      Energy =  -2.69970911084298
 DFT Exchange         Energy = -54.20592894534901
 One-Electron (alpha) Energy = -890.89955277661568
 One-Electron (beta)  Energy = -862.89533550703482
 Total Coulomb        Energy = 659.90113239976449
   19    -915.4177522762      3.21e-05  
 Alpha HF Exchange    Energy =  -6.92733021011646
 Beta HF Exchange     Energy =  -6.74248655210856
 DFT Correlation      Energy =  -2.69971087577415
 DFT Exchange         Energy = -54.20587169167563
 One-Electron (alpha) Energy = -890.89967439986026
 One-Electron (beta)  Energy = -862.89437282861627
 Total Coulomb        Energy = 659.90021706228583
   20    -915.4177553806      2.88e-05  
 Alpha HF Exchange    Energy =  -6.92726973708910
 Beta HF Exchange     Energy =  -6.74351641258098
 DFT Correlation      Energy =  -2.69968502110817
 DFT Exchange         Energy = -54.20942611410536
 One-Electron (alpha) Energy = -890.89572792684794
 One-Electron (beta)  Energy = -862.96575062387433
 Total Coulomb        Energy = 659.97258665751588
   21    -915.4173150628      2.01e-04  
 Alpha HF Exchange    Energy =  -6.92726417645168
 Beta HF Exchange     Energy =  -6.74360300171781
 DFT Correlation      Energy =  -2.69967722686425
 DFT Exchange         Energy = -54.20972935537430
 One-Electron (alpha) Energy = -890.89517979266384
 One-Electron (beta)  Energy = -862.97090324179987
 Total Coulomb        Energy = 659.97765854331612
   22    -915.4172241363      2.17e-04  
 Alpha HF Exchange    Energy =  -6.92726850344773
 Beta HF Exchange     Energy =  -6.74349794295397
 DFT Correlation      Energy =  -2.69968643660484
 DFT Exchange         Energy = -54.20935331598035
 One-Electron (alpha) Energy = -890.89572509099003
 One-Electron (beta)  Energy = -862.96463246740427
 Total Coulomb        Energy = 659.97135675222466
   23    -915.4173328899      1.97e-04  
 Alpha HF Exchange    Energy =  -6.92727016756913
 Beta HF Exchange     Energy =  -6.74341058281264
 DFT Correlation      Energy =  -2.69969338599164
 DFT Exchange         Energy = -54.20903287923663
 One-Electron (alpha) Energy = -890.89601062039458
 One-Electron (beta)  Energy = -862.95940989536041
 Total Coulomb        Energy = 659.96593922880470
   24    -915.4174141873      1.82e-04  
 Alpha HF Exchange    Energy =  -6.92727341198356
 Beta HF Exchange     Energy =  -6.74332976573821
 DFT Correlation      Energy =  -2.69969938598386
 DFT Exchange         Energy = -54.20874308486002
 One-Electron (alpha) Energy = -890.89636119429611
 One-Electron (beta)  Energy = -862.95451938097040
 Total Coulomb        Energy = 659.96096858487795
   25    -915.4174835237      1.67e-04  
 Alpha HF Exchange    Energy =  -6.92727426755335
 Beta HF Exchange     Energy =  -6.74331327660449
 DFT Correlation      Energy =  -2.69970376124433
 DFT Exchange         Energy = -54.20868227574989
 One-Electron (alpha) Energy = -890.89664506186716
 One-Electron (beta)  Energy = -862.95409492883948
 Total Coulomb        Energy = 659.96073402796264
   26    -915.4175054286      1.62e-04  
 Alpha HF Exchange    Energy =  -6.92727354067584
 Beta HF Exchange     Energy =  -6.74327063843943
 DFT Correlation      Energy =  -2.69970773748479
 DFT Exchange         Energy = -54.20851707161358
 One-Electron (alpha) Energy = -890.89668660891164
 One-Electron (beta)  Energy = -862.95178270462247
 Total Coulomb        Energy = 659.95822210113511
   27    -915.4175420854      1.54e-04  
 Alpha HF Exchange    Energy =  -6.92727863269040
 Beta HF Exchange     Energy =  -6.74313917680659
 DFT Correlation      Energy =  -2.69971605612439
 DFT Exchange         Energy = -54.20804669644360
 One-Electron (alpha) Energy = -890.89719190838866
 One-Electron (beta)  Energy = -862.94374565038868
 Total Coulomb        Energy = 659.95001279370319
   28    -915.4176312119      1.31e-04  
 Alpha HF Exchange    Energy =  -6.92729693202916
 Beta HF Exchange     Energy =  -6.74259333694557
 DFT Correlation      Energy =  -2.69974237304945
 DFT Exchange         Energy = -54.20609092819764
 One-Electron (alpha) Energy = -890.89903196515729
 One-Electron (beta)  Energy = -862.90984803322362
 Total Coulomb        Energy = 659.91529365712597
   29    -915.4178357962      3.58e-05  
 Alpha HF Exchange    Energy =  -6.92727119643817
 Beta HF Exchange     Energy =  -6.74305492482316
 DFT Correlation      Energy =  -2.69974126397962
 DFT Exchange         Energy = -54.20767519401760
 One-Electron (alpha) Energy = -890.89777216544235
 One-Electron (beta)  Energy = -862.94260805623924
 Total Coulomb        Energy = 659.94892901422884
   30    -915.4177196715      1.08e-04  
 Alpha HF Exchange    Energy =  -6.92727263098273
 Beta HF Exchange     Energy =  -6.74287122709341
 DFT Correlation      Energy =  -2.69975482226066
 DFT Exchange         Energy = -54.20699211391400
 One-Electron (alpha) Energy = -890.89827710717509
 One-Electron (beta)  Energy = -862.93236069998204
 Total Coulomb        Energy = 659.93824995376315
   31    -915.4178045324      7.47e-05  
 Alpha HF Exchange    Energy =  -6.92727599155814
 Beta HF Exchange     Energy =  -6.74268375375486
 DFT Correlation      Energy =  -2.69976865766627
 DFT Exchange         Energy = -54.20630259192229
 One-Electron (alpha) Energy = -890.89884614173502
 One-Electron (beta)  Energy = -862.92202825538675
 Total Coulomb        Energy = 659.92757166724539
   32    -915.4178596095      4.03e-05  
 Alpha HF Exchange    Energy =  -6.92728096647318
 Beta HF Exchange     Energy =  -6.74243200113931
 DFT Correlation      Energy =  -2.69978404612908
 DFT Exchange         Energy = -54.20538255551707
 One-Electron (alpha) Energy = -890.89956920105851
 One-Electron (beta)  Energy = -862.90801415042188
 Total Coulomb        Energy = 659.91310684045868
   33    -915.4178819650      4.71e-06  
 Alpha HF Exchange    Energy =  -6.92728090978859
 Beta HF Exchange     Energy =  -6.74244363145675
 DFT Correlation      Energy =  -2.69978424856163
 DFT Exchange         Energy = -54.20542522226341
 One-Electron (alpha) Energy = -890.89958055193836
 One-Electron (beta)  Energy = -862.90879360606687
 Total Coulomb        Energy = 659.91395188501463
   34    -915.4178821698      2.78e-06  
 Alpha HF Exchange    Energy =  -6.92728085078121
 Beta HF Exchange     Energy =  -6.74245340163872
 DFT Correlation      Energy =  -2.69978358433827
 DFT Exchange         Energy = -54.20546159436593
 One-Electron (alpha) Energy = -890.89956020363638
 One-Electron (beta)  Energy = -862.90930994550877
 Total Coulomb        Energy = 659.91449320179277
   35    -915.4178822632      9.89e-07  Convergence criterion met
 ---------------------------------------
 SCF time:   CPU 103.33s  wall 9.00s 
<S^2> =          2.007912625
 Alpha HF Exchange    Energy =  -6.92728085078121
 Beta HF Exchange     Energy =  -6.74245340163872
 DFT Correlation      Energy =  -2.69978358433827
 DFT Exchange         Energy = -54.20546159436593
 One-Electron (alpha) Energy = -890.89956020363638
 One-Electron (beta)  Energy = -862.90930994550877
 Total Coulomb        Energy = 659.91449320179277
 Nuclear repulsion Energy = 249.05147411525527
 SCF   energy in the final basis set =     -915.4178822632
 Total energy in the final basis set =     -915.4178822632
 
 --------------------------------------------------------------
 
                    Orbital Energies (a.u.)
 --------------------------------------------------------------
 
 Alpha MOs
 -- Occupied --
-88.894 -88.885 -10.242 -10.206 -10.194  -7.956  -7.948  -5.927
 -5.916  -5.913  -5.909  -5.908  -5.903  -0.827  -0.722  -0.715
 -0.696  -0.587  -0.480  -0.445  -0.432  -0.406  -0.395  -0.381
 -0.363  -0.345  -0.307  -0.261  -0.258  -0.212
 -- Virtual --
  0.013   0.056   0.058   0.101   0.121   0.129   0.158   0.170
  0.177   0.218   0.250   0.282   0.313   0.328   0.353   0.367
  0.374   0.402   0.481   0.490   0.513   0.542   0.565   0.568
  0.603   0.662   0.689   0.701   0.718   0.739   0.741   0.749
  0.751   0.797   0.807   0.829   0.859   0.875   0.881   0.905
  0.922   0.937   0.965   1.031   1.115   1.130   1.165   1.191
  1.342   1.428   1.441   1.542   1.690   1.760   1.824   1.868
  1.903   1.974   2.012   2.035   2.071   2.078   2.088   2.092
  2.104   2.114   2.119   2.274   2.306   2.354   2.394   2.492
  2.559   2.579   2.623   2.694   2.725   2.736   2.744   2.824
  2.863   2.908   3.179   3.283   3.369   3.406   3.461   3.500
  3.932   3.973   4.245   4.368   4.578
 
 Beta MOs
 -- Occupied --
-88.889 -88.884 -10.243 -10.194 -10.193  -7.950  -7.946  -5.913
 -5.911  -5.909  -5.907  -5.905  -5.901  -0.819  -0.711  -0.682
 -0.675  -0.578  -0.475  -0.441  -0.426  -0.403  -0.383  -0.375
 -0.360  -0.333  -0.252  -0.245
 -- Virtual --
 -0.165  -0.072   0.019   0.063   0.068   0.103   0.124   0.138
  0.159   0.171   0.181   0.224   0.257   0.291   0.324   0.338
  0.366   0.379   0.392   0.408   0.486   0.494   0.519   0.555
  0.571   0.603   0.617   0.669   0.698   0.717   0.744   0.749
  0.759   0.799   0.804   0.809   0.813   0.832   0.864   0.879
  0.884   0.912   0.926   0.943   0.973   1.045   1.123   1.134
  1.170   1.196   1.359   1.435   1.464   1.551   1.697   1.762
  1.828   1.877   1.921   1.995   2.024   2.036   2.073   2.081
  2.086   2.096   2.105   2.119   2.123   2.279   2.306   2.357
  2.405   2.506   2.573   2.591   2.625   2.697   2.727   2.739
  2.745   2.826   2.863   2.910   3.179   3.286   3.373   3.408
  3.462   3.506   3.950   3.977   4.262   4.380   4.581
 --------------------------------------------------------------
 
          Ground-State Mulliken Net Atomic Charges

     Atom                 Charge (a.u.)    Spin (a.u.)
  --------------------------------------------------------
      1 S                    -0.064033       0.150796
      2 S                    -0.109289       1.027813
      3 C                    -0.218673      -0.086055
      4 C                    -0.203394       1.006546
      5 C                    -0.301642       0.005892
      6 H                     0.148584       0.014133
      7 H                     0.109845      -0.044414
      8 H                     0.130187      -0.044628
      9 H                     0.119885      -0.000553
     10 H                     0.111083      -0.000648
     11 H                     0.126230       0.001023
     12 H                     0.069623      -0.002653
     13 H                     0.081593      -0.027252
  --------------------------------------------------------
  Sum of atomic charges =    -0.000000
  Sum of spin   charges =     2.000000

 -----------------------------------------------------------------
                    Cartesian Multipole Moments
 -----------------------------------------------------------------
    Charge (ESU x 10^10)
                 0.0000
    Dipole Moment (Debye)
         X       2.2367      Y       1.3182      Z       0.6991
       Tot       2.6887
    Quadrupole Moments (Debye-Ang)
        XX     -55.0591     XY      -1.1178     YY     -50.4526
        XZ       0.9460     YZ      -1.2226     ZZ     -44.1335
    Octopole Moments (Debye-Ang^2)
       XXX     112.8673    XXY      30.8765    XYY      33.1231
       YYY      56.0920    XXZ      -1.0385    XYZ      -4.1086
       YYZ       2.2692    XZZ      25.0397    YZZ      16.1100
       ZZZ       0.0182
    Hexadecapole Moments (Debye-Ang^3)
      XXXX   -1506.5769   XXXY    -220.8013   XXYY    -339.5211
      XYYY    -190.6250   YYYY    -440.8796   XXXZ      -3.1215
      XXYZ      -0.3737   XYYZ       4.8532   YYYZ     -31.3620
      XXZZ    -238.1227   XYZZ     -55.3392   YYZZ     -84.3522
      XZZZ      -3.5945   YZZZ     -24.3753   ZZZZ     -95.6809
 -----------------------------------------------------------------
 Calculating analytic gradient of the SCF energy
 Gradient of SCF Energy
            1           2           3           4           5           6
    1   0.0000726   0.0001829  -0.0000419  -0.0002194  -0.0000275   0.0000111
    2  -0.0000799   0.0000929  -0.0000508  -0.0000609  -0.0000036   0.0000346
    3  -0.0000878  -0.0000218  -0.0000009  -0.0000765   0.0000393   0.0000014
            7           8           9          10          11          12
    1   0.0000105  -0.0000164  -0.0000036  -0.0000007   0.0000049  -0.0000163
    2   0.0000186  -0.0000574   0.0000048   0.0000093   0.0000066   0.0000006
    3  -0.0000056   0.0000219  -0.0000081   0.0000017   0.0000009   0.0000051
           13
    1   0.0000439
    2   0.0000853
    3   0.0001302
 Max gradient component =       2.194E-04
 RMS gradient           =       6.382E-05
 Gradient time:  CPU 10.78 s  wall 0.96 s
 Geometry Optimization Parameters
   NAtoms,    NIC,     NZ,  NCons,   NDum,   NFix, NCnnct, MaxDiis
       13      80       0       1       0       0       0       0

 Cartesian Hessian Update
 Hessian Updated using BFGS Update


** CONSTRAINED OPTIMIZATION IN DELOCALIZED INTERNAL COORDINATES **
   Searching for a Minimum

   Optimization Cycle:   5

                       Coordinates (Angstroms)
     ATOM                X               Y               Z
      1  S         0.3716975789   -1.4041815717   -0.1881455422
      2  S        -3.6403043889   -1.0663093283   -0.0802443230
      3  C         0.6833433790    0.4850733333   -0.2505701970
      4  C        -0.2799756492    1.1753029206    0.6221555209
      5  C         2.1486385039    0.7965991656    0.0496701688
      6  H         0.4608334227    0.6803667913   -1.3052405354
      7  H        -0.0179316679    1.3917873737    1.6537815273
      8  H        -1.3163399285    1.2849982916    0.3236077352
      9  H         2.3358247422    1.8665983997   -0.0943294254
     10  H         2.3971681823    0.5499036682    1.0874071301
     11  H         2.8171915884    0.2329335123   -0.6048908912
     12  H         0.5882306489   -1.5416728401    1.1358918219
     13  H        -2.3086764119   -1.3264027163   -0.1600959900
   Point Group: c1    Number of degrees of freedom:    33


   Energy is   -915.417882263

              Constraints and their Current Values
                                        Value     Constraint
   Distance(Angs):        2   4             4.100000     4.100000
 Hessian Updated using BFGS Update

 32 Hessian modes will be used to form the next step
  Hessian Eigenvalues:
     0.007989    0.030763    0.044998    0.046028    0.047220    0.072058
     0.077564    0.082579    0.083769    0.085893    0.095846    0.136558
     0.157746    0.160000    0.160037    0.160175    0.160640    0.163611
     0.177733    0.191562    0.196323    0.202483    0.257292    0.261575
     0.304437    0.341623    0.342138    0.342826    0.345579    0.352850
     0.355601    0.365992

 Minimum Search - Taking Simple RFO Step
 Searching for Lamda that Minimizes Along All modes
 Value Taken    Lamda =  -0.00000201
 Step Taken.  Stepsize is  0.014517

                             Maximum     Tolerance    Cnvgd?
         Gradient           0.000125      0.000300     YES
         Displacement       0.006752      0.001200      NO
         Energy change     -0.000000      0.000001     YES


                       Distance Matrix (Angstroms)
             S (  1)   S (  2)   C (  3)   C (  4)   C (  5)   H (  6)
   S (  2)  4.027649
   C (  3)  1.915804  4.596709
   C (  4)  2.781188  4.100000  1.471751
   C (  5)  2.838576  6.082694  1.527836  2.523752
   H (  6)  2.366683  4.622859  1.095436  2.123350  2.167482
   H (  7)  3.370749  4.708574  2.222717  1.086179  2.760697  3.080770
   H (  8)  3.216061  3.330549  2.228967  1.084073  3.509936  2.485371
   H (  9)  3.816359  6.657046  2.159564  2.798866  1.095752  2.527656
   H ( 10)  3.089986  6.358194  2.175220  2.788312  1.095228  3.080775
   H ( 11)  2.972249  6.607764  2.177711  3.462102  1.092306  2.498622
   H ( 12)  1.348653  4.425547  2.457442  2.898217  3.013680  3.303455
   H ( 13)  2.681649  1.359139  3.498830  3.314525  4.941538  3.606753
             H (  7)   H (  8)   H (  9)   H ( 10)   H ( 11)   H ( 12)
   H (  8)  1.861889
   H (  9)  2.970102  3.721725
   H ( 10)  2.619591  3.861851  1.770296
   H ( 11)  3.805584  4.365207  1.777990  1.772220
   H ( 12)  3.039874  3.503893  4.022915  2.765736  3.338835
   H ( 13)  3.990767  2.835157  5.636575  5.217448  5.376234  3.180880

 
 Final energy is   -915.417882263221     


 ******************************
 **  OPTIMIZATION CONVERGED  **
 ******************************

                       Coordinates (Angstroms)
     ATOM                X               Y               Z
      1  S         0.3716975789   -1.4041815717   -0.1881455422
      2  S        -3.6403043889   -1.0663093283   -0.0802443230
      3  C         0.6833433790    0.4850733333   -0.2505701970
      4  C        -0.2799756492    1.1753029206    0.6221555209
      5  C         2.1486385039    0.7965991656    0.0496701688
      6  H         0.4608334227    0.6803667913   -1.3052405354
      7  H        -0.0179316679    1.3917873737    1.6537815273
      8  H        -1.3163399285    1.2849982916    0.3236077352
      9  H         2.3358247422    1.8665983997   -0.0943294254
     10  H         2.3971681823    0.5499036682    1.0874071301
     11  H         2.8171915884    0.2329335123   -0.6048908912
     12  H         0.5882306489   -1.5416728401    1.1358918219
     13  H        -2.3086764119   -1.3264027163   -0.1600959900

Z-matrix Print:
$molecule
0 3
S 
H  1 1.348653
C  1 1.915804 2 96.108178
H  3 1.095436 1 100.028479 2 -176.663911 0
C  3 1.471751 1 109.675325 2 -60.215217 0
H  5 1.084073 3 120.656164 1 -74.356237 0
H  5 1.086179 3 119.918343 1 92.592428 0
C  3 1.527836 1 110.529126 2 67.026910 0
H  8 1.092306 3 111.347489 1 53.612686 0
H  8 1.095228 3 110.971419 1 -67.005950 0
H  8 1.095752 3 109.701449 1 173.981721 0
H  1 2.681649 2 98.810486 3 -98.818164 0
S  12 1.359139 1 170.216832 2 79.081847 0
$end

PES scan, value:    4.1000 energy: -915.4178822632
------- Summary of potential scan: ------ 
    4.1000      -915.4178822632
----------------------------------------- 
Archival summary:
1\1\hpc0250\JobtypUnspecified\ProcedureUnspecified\6-31G**\238(3)\knomura\ThuMar1401:26:572019ThuMar1401:26:572019\0\\#,JobtypUnspecified,ProcedureUnspecified,6-31G**,\\0,3\S\H,1,1.34865\C,1,1.9158,2,96.1082\H,3,1.09544,1,100.028,2,-176.664,0\C,3,1.47175,1,109.675,2,-60.2152,0\H,5,1.08407,3,120.656,1,-74.3562,0\H,5,1.08618,3,119.918,1,92.5924,0\C,3,1.52784,1,110.529,2,67.0269,0\H,8,1.09231,3,111.347,1,53.6127,0\H,8,1.09523,3,110.971,1,-67.0059,0\H,8,1.09575,3,109.701,1,173.982,0\H,1,2.68165,2,98.8105,3,-98.8182,0\S,12,1.35914,1,170.217,2,79.0818,0\\\@

 Total job time:  51.66s(wall), 604.16s(cpu) 
 Thu Mar 14 01:26:57 2019

        *************************************************************
        *                                                           *
        *  Thank you very much for using Q-Chem.  Have a nice day.  *
        *                                                           *
        *************************************************************


