
Running Job 1 of 1 thiol/03/C-S.xyz.data/inputs/bond_singlet_1.4.in
qchem thiol/03/C-S.xyz.data/inputs/bond_singlet_1.4.in_26649.0 /staging/scratch/2868767/qchem26649/ 1
/usr/usc/qchem/5.1.1/exe/qcprog.exe_s thiol/03/C-S.xyz.data/inputs/bond_singlet_1.4.in_26649.0 /staging/scratch/2868767/qchem26649/
Check license passed

                  Welcome to Q-Chem
     A Quantum Leap Into The Future Of Chemistry


 Q-Chem 5.1, Q-Chem, Inc., Pleasanton, CA (2018)

 Yihan Shao,  Zhengting Gan,  E. Epifanovsky,  A. T. B. Gilbert,  M. Wormit,  
 J. Kussmann,  A. W. Lange,  A. Behn,  Jia Deng,  Xintian Feng,  D. Ghosh,  
 M. Goldey,  P. R. Horn,  L. D. Jacobson,  I. Kaliman,  T. Kus,  A. Landau,  
 Jie Liu,  E. I. Proynov,  R. M. Richard,  R. P. Steele,  E. J. Sundstrom,  
 H. L. Woodcock III,  P. M. Zimmerman,  D. Zuev,  B. Albrecht,  E. Alguire,  
 S. A. Baeppler,  D. Barton,  Z. Benda,  Y. A. Bernard,  E. J. Berquist,  
 K. B. Bravaya,  H. Burton,  D. Casanova,  Chun-Min Chang,  Yunqing Chen,  
 A. Chien,  K. D. Closser,  M. P. Coons,  S. Coriani,  S. Dasgupta,  
 A. L. Dempwolff,  M. Diedenhofen,  Hainam Do,  R. G. Edgar,  Po-Tung Fang,  
 S. Faraji,  S. Fatehi,  Qingguo Feng,  K. D. Fenk,  J. Fosso-Tande,  
 Qinghui Ge,  A. Ghysels,  G. Gidofalvi,  J. Gomes,  J. Gonthier,  A. Gunina,  
 D. Hait,  M. W. D. Hanson-Heine,  P. H. P. Harbach,  A. W. Hauser,  
 J. E. Herr,  E. G. Hohenstein,  Z. C. Holden,  Kerwin Hui,  B. C. Huynh,  
 T.-C. Jagau,  Hyunjun Ji,  B. Kaduk,  K. Khistyaev,  Jaehoon Kim,  
 P. Klunzinger,  K. Koh,  D. Kosenkov,  L. Koulias,  T. Kowalczyk,  
 C. M. Krauter,  A. Kunitsa,  Ka Un Lao,  A. Laurent,  K. V. Lawler,  
 Joonho Lee,  D. Lefrancois,  S. Lehtola,  D. S. Levine,  Yi-Pei Li,  
 You-Sheng Lin,  Fenglai Liu,  E. Livshits,  A. Luenser,  P. Manohar,  
 E. Mansoor,  S. F. Manzer,  Shan-Ping Mao,  Yuezhi Mao,  N. Mardirossian,  
 A. V. Marenich,  T. Markovich,  L. A. Martinez-Martinez,  S. A. Maurer,  
 N. J. Mayhall,  S. C. McKenzie,  J.-M. Mewes,  A. F. Morrison,  
 J. W. Mullinax,  K. Nanda,  T. S. Nguyen-Beck,  R. Olivares-Amaya,  
 J. A. Parkhill,  T. M. Perrine,  F. Plasser,  P. Pokhilko,  S. Prager,  
 A. Prociuk,  E. Ramos,  D. R. Rehn,  F. Rob,  M. Schneider,  N. Sergueev,  
 S. M. Sharada,  S. Sharma,  D. W. Small,  T. Stauch,  T. Stein,  
 Yu-Chuan Su,  A. J. W. Thom,  A. Tkatchenko,  T. Tsuchimochi,  N. M. Tubman,  
 L. Vogt,  M. L. Vidal,  O. Vydrov,  M. A. Watson,  J. Wenzel,  
 M. de Wergifosse,  T. A. Wesolowski,  A. White,  J. Witte,  A. Yamada,  
 Jun Yang,  K. Yao,  S. Yeganeh,  S. R. Yost,  Zhi-Qiang You,  A. Zech,  
 Igor Ying Zhang,  Xing Zhang,  Yan Zhao,  Ying Zhu,  B. R. Brooks,  
 G. K. L. Chan,  C. J. Cramer,  M. S. Gordon,  W. J. Hehre,  A. Klamt,  
 M. W. Schmidt,  C. D. Sherrill,  D. G. Truhlar,  A. Aspuru-Guzik,  R. Baer,  
 A. T. Bell,  N. A. Besley,  Jeng-Da Chai,  A. E. DePrince, III,  
 R. A. DiStasio Jr.,  A. Dreuw,  B. D. Dunietz,  T. R. Furlani,  
 Chao-Ping Hsu,  Yousung Jung,  Jing Kong,  D. S. Lambrecht,  WanZhen Liang,  
 C. Ochsenfeld,  V. A. Rassolov,  L. V. Slipchenko,  J. E. Subotnik,  
 T. Van Voorhis,  J. M. Herbert,  A. I. Krylov,  P. M. W. Gill,  M. Head-Gordon

 Contributors to earlier versions of Q-Chem not listed above: 
 R. D. Adamson,  B. Austin,  J. Baker,  G. J. O. Beran,  K. Brandhorst,  
 S. T. Brown,  E. F. C. Byrd,  A. K. Chakraborty,  C.-L. Cheng,  
 Siu Hung Chien,  D. M. Chipman,  D. L. Crittenden,  H. Dachsel,  
 R. J. Doerksen,  A. D. Dutoi,  L. Fusti-Molnar,  W. A. Goddard III,  
 A. Golubeva-Zadorozhnaya,  S. R. Gwaltney,  G. Hawkins,  A. Heyden,  
 S. Hirata,  G. Kedziora,  F. J. Keil,  C. Kelley,  Jihan Kim,  R. A. King,  
 R. Z. Khaliullin,  P. P. Korambath,  W. Kurlancheek,  A. M. Lee,  M. S. Lee,  
 S. V. Levchenko,  Ching Yeh Lin,  D. Liotard,  R. C. Lochan,  I. Lotan,  
 P. E. Maslen,  N. Nair,  D. P. O'Neill,  D. Neuhauser,  E. Neuscamman,  
 C. M. Oana,  R. Olson,  B. Peters,  R. Peverati,  P. A. Pieniazek,  
 Y. M. Rhee,  J. Ritchie,  M. A. Rohrdanz,  E. Rosta,  N. J. Russ,  
 H. F. Schaefer III,  N. E. Schultz,  N. Shenvi,  A. C. Simmonett,  A. Sodt,  
 D. Stuck,  K. S. Thanthiriwatte,  V. Vanovschi,  Tao Wang,  A. Warshel,  
 C. F. Williams,  Q. Wu,  X. Xu,  W. Zhang

 Please cite Q-Chem as follows:
 Y. Shao et al., Mol. Phys. 113, 184-215 (2015)
 DOI: 10.1080/00268976.2014.952696

 Q-Chem 5.1.1 for Intel X86 EM64T Linux

 Parts of Q-Chem use Armadillo 8.300.2 (Tropical Shenanigans).
 http://arma.sourceforge.net/

 Q-Chem begins on Wed Mar 13 23:26:35 2019  

Host: 
0

     Scratch files written to /staging/scratch/2868767/qchem26649//
 Aug318 |scratch|qcdevops|jenkins|workspace|build_RNUM 6013   
Processing $rem in /usr/usc/qchem/5.1.1/config/preferences.
 MEM_TOTAL  2000 
Input Ideriv = 2
Curr. Ideriv = -1
Max.  Ideriv = 2

Checking the input file for inconsistencies... 	...done.

--------------------------------------------------------------
User input:
--------------------------------------------------------------

$comment
potential surface scanner
$end

$rem
JOBTYPE  PES_SCAN
UNRESTRICTED TRUE
SYM_IGNORE  TRUE
GEOM_OPT_MAX_CYCLES 400
SCF_MAX_CYCLES 400
METHOD   B3LYP
BASIS   6-31G**
PDB_PRINT 2
SCF_CONVERGENCE 6
THRESH 14
SCF_PRINT 1
$end
$molecule
0 1
S 0.653000 -1.655100 0.136100
S -2.273700 -0.042700 -0.103500
C 0.513800 0.101500 -0.361300
C -0.697000 0.778900 0.292500
C 1.803900 0.817400 0.036300
H 0.414100 0.130900 -1.452400
H -0.592400 0.804400 1.383200
H -0.770600 1.816900 -0.049700
H 1.768400 1.866200 -0.278900
H 1.962400 0.805000 1.120700
H 2.677400 0.363600 -0.445400
H 0.755100 -1.437500 1.455700
H -1.974700 -1.224500 0.455700
$end
$scan
stre 2 4 1.400000 1.401000 0.100000
$end
--------------------------------------------------------------
 ----------------------------------------------------------------
             Standard Nuclear Orientation (Angstroms)
    I     Atom           X                Y                Z
 ----------------------------------------------------------------
    1      S       0.6530000000    -1.6551000000     0.1361000000
    2      S      -2.2737000000    -0.0427000000    -0.1035000000
    3      C       0.5138000000     0.1015000000    -0.3613000000
    4      C      -0.6970000000     0.7789000000     0.2925000000
    5      C       1.8039000000     0.8174000000     0.0363000000
    6      H       0.4141000000     0.1309000000    -1.4524000000
    7      H      -0.5924000000     0.8044000000     1.3832000000
    8      H      -0.7706000000     1.8169000000    -0.0497000000
    9      H       1.7684000000     1.8662000000    -0.2789000000
   10      H       1.9624000000     0.8050000000     1.1207000000
   11      H       2.6774000000     0.3636000000    -0.4454000000
   12      H       0.7551000000    -1.4375000000     1.4557000000
   13      H      -1.9747000000    -1.2245000000     0.4557000000
 ----------------------------------------------------------------
 Nuclear Repulsion Energy =   290.8061723522 hartrees
 There are       29 alpha and       29 beta electrons
 Requested basis set is 6-31G(d,p)
 There are 46 shells and 123 basis functions

 Total QAlloc Memory Limit   2000 MB
 Mega-Array Size       188 MB
 MEM_STATIC part       192 MB
A total of 1 constraints
  
            1
    1   1.0100000
    2   2.0100000
    3   4.0100000
    4   1.4000000
    5   1.4010000
    6   0.1000000
    7   0.0000000
    8   0.0000000
    9   0.0000000
   10   0.0000000

                       Distance Matrix (Angstroms)
             S (  1)   S (  2)   C (  3)   C (  4)   C (  5)   H (  6)
   S (  2)  3.350047
   C (  3)  1.830963  2.803107
   C (  4)  2.787708  1.821490  1.533741
   C (  5)  2.729063  4.169669  1.528056  2.514283
   H (  6)  2.402124  3.012298  1.096040  2.167746  2.149198
   H (  7)  3.025792  2.398880  2.181978  1.096001  2.748920  3.083386
   H (  8)  3.757119  2.391718  2.165496  1.095428  2.763050  2.492725
   H (  9)  3.716974  4.473616  2.166790  2.754436  1.095716  2.494493
   H ( 10)  2.955682  4.490190  2.188533  2.785499  1.095992  3.077741
   H ( 11)  2.917445  4.979495  2.181040  3.479015  1.095888  2.488117
   H ( 12)  1.341312  3.681060  2.393373  2.893796  2.863434  3.321627
   H ( 13)  2.681859  1.341177  2.935711  2.381756  4.315446  3.344297
             H (  7)   H (  8)   H (  9)   H ( 10)   H ( 11)   H ( 12)
   H (  8)  1.763552
   H (  9)  3.076259  2.549801
   H ( 10)  2.568250  3.140552  1.767105
   H ( 11)  3.772224  3.762627  1.764032  1.777281
   H ( 12)  2.616702  3.896808  3.866529  2.568775  3.248597
   H ( 13)  2.624394  3.309894  4.909466  4.479046  4.997607  2.914992

 
 A cutoff of  1.0D-14 yielded   1033 shell pairs
 There are      7542 function pairs
 
 -------------------------------------------------------
 OpenMP Integral Computing Module                       
 Release: version 1.0, May 2013, Q-Chem Inc. Pittsburgh 
 -------------------------------------------------------
 Integral Job Info:
 Integral job number is                      11
 Integral operator is                         1
 short-range coefficients                     0
 long-range coefficients              100000000
 Omega coefficients                           0
 if combine SR and LR in K                    0
 Integral screening is                        0
 Integral computing path is                   2
 max size of driver memory is            800000
 size of driver memory is                593474
 size of scratch memory is             15267112
 max col of scratch BK array               1296
 max len of scratch array in speh3          155
 max len of scratch index in speh4           18
 max int batch size is                      520
 min int batch size is                       52
 fixed nKL is                                52
 max L of basis functions is                  2
 order of int derivative is                   0
 number of shells is                         46
 number of basis is                         123
 number of cartesian basis is               123
 number of contracted shell pairs          1033
 number of primitive shell pairs           3974
 maxK2 (contraction) of shell pair           36
 max number of K2 of shell pair               1
 max number of CS2 of shell pair             80
 max number of PS2 of shell pair            354
 mem total for path MDJ                  519084
 -------------------------------------------------------
 Smallest overlap matrix eigenvalue = 5.32E-03

 Scale SEOQF with 1.000000e-01/1.000000e-01/1.000000e+00

 Standard Electronic Orientation quadrupole field applied
 Nucleus-field energy     =    -0.0000000011 hartrees
 Guess from superposition of atomic densities
 Warning:  Energy on first SCF cycle will be non-variational
 SAD guess density has 58.000000 electrons

 -----------------------------------------------------------------------
  General SCF calculation program by
  Eric Jon Sundstrom, Paul Horn, Yuezhi Mao, Dmitri Zuev, Alec White,
  David Stuck, Shaama M.S., Shane Yost, Joonho Lee, David Small,
  Daniel Levine, Susi Lehtola, Hugh Burton, Evgeny Epifanovsky
 -----------------------------------------------------------------------
 Exchange:     0.2000 Hartree-Fock + 0.0800 Slater + 0.7200 B88
 Correlation:  0.1900 VWN1RPA + 0.8100 LYP
 Using SG-1 standard quadrature grid
 using 12 threads for integral computing
 -------------------------------------------------------
 OpenMP Integral computing Module                
 Release: version 1.0, May 2013, Q-Chem Inc. Pittsburgh 
 -------------------------------------------------------
 -------------------------------------------------------
 OpenMP BLAS3 based DFT computing Module                
 Release: version 1.0, May 2013, Q-Chem Inc. Pittsburgh 
 -------------------------------------------------------
 A unrestricted SCF calculation will be
 performed using DIIS
 SCF converges when DIIS error is below 1.0e-06
 Alpha HF Exchange    Energy =  -6.86860418470643
 Beta HF Exchange     Energy =  -6.86860418470643
 DFT Correlation      Energy =  -2.71728058875326
 DFT Exchange         Energy = -53.89352891367010
 One-Electron (alpha) Energy = -916.70586215165179
 One-Electron (beta)  Energy = -916.70586215165179
 Total Coulomb        Energy = 696.76699239042875
 ---------------------------------------
  Cycle       Energy         DIIS error
 ---------------------------------------
    1    -916.1865774336      2.85e-02  
 Alpha HF Exchange    Energy =  -6.86971263644539
 Beta HF Exchange     Energy =  -6.86971263644540
 DFT Correlation      Energy =  -2.74409399772525
 DFT Exchange         Energy = -54.50147737483255
 One-Electron (alpha) Energy = -920.72960993610093
 One-Electron (beta)  Energy = -920.72960993610104
 Total Coulomb        Energy = 706.18405706375631
    2    -915.4539871028      2.83e-03  
 Alpha HF Exchange    Energy =  -6.81529932414627
 Beta HF Exchange     Energy =  -6.81529932414627
 DFT Correlation      Energy =  -2.71846496072072
 DFT Exchange         Energy = -54.04165878911404
 One-Electron (alpha) Energy = -916.56372188784883
 One-Electron (beta)  Energy = -916.56372188784849
 Total Coulomb        Energy = 697.27720351538869
    3    -915.4347903073      3.25e-03  
 Alpha HF Exchange    Energy =  -6.84069511450833
 Beta HF Exchange     Energy =  -6.84069511450832
 DFT Correlation      Energy =  -2.73152250796605
 DFT Exchange         Energy = -54.25571982027955
 One-Electron (alpha) Energy = -918.69056560103218
 One-Electron (beta)  Energy = -918.69056560103138
 Total Coulomb        Energy = 701.72362510795381
    4    -915.5199663003      4.83e-04  
 Alpha HF Exchange    Energy =  -6.84200958650549
 Beta HF Exchange     Energy =  -6.84200958650548
 DFT Correlation      Energy =  -2.73151262195696
 DFT Exchange         Energy = -54.26493451546447
 One-Electron (alpha) Energy = -918.71756739542877
 One-Electron (beta)  Energy = -918.71756739542855
 Total Coulomb        Energy = 701.78756719936223
    5    -915.5218615508      1.38e-04  
 Alpha HF Exchange    Energy =  -6.84189437479299
 Beta HF Exchange     Energy =  -6.84189437479299
 DFT Correlation      Energy =  -2.73151319638994
 DFT Exchange         Energy = -54.26421812721280
 One-Electron (alpha) Energy = -918.71807144472314
 One-Electron (beta)  Energy = -918.71807144472336
 Total Coulomb        Energy = 701.78749265404838
    6    -915.5219979575      3.74e-05  
 Alpha HF Exchange    Energy =  -6.84173127652597
 Beta HF Exchange     Energy =  -6.84173127652598
 DFT Correlation      Energy =  -2.73145508456731
 DFT Exchange         Energy = -54.26284056248262
 One-Electron (alpha) Energy = -918.70135627841398
 One-Electron (beta)  Energy = -918.70135627841432
 Total Coulomb        Energy = 701.75229023259487
    7    -915.5220081732      7.61e-06  
 Alpha HF Exchange    Energy =  -6.84178894557165
 Beta HF Exchange     Energy =  -6.84178894557165
 DFT Correlation      Energy =  -2.73147746417039
 DFT Exchange         Energy = -54.26329699897547
 One-Electron (alpha) Energy = -918.70806105303029
 One-Electron (beta)  Energy = -918.70806105303063
 Total Coulomb        Energy = 701.76629345010019
    8    -915.5220086591      1.51e-06  
 Alpha HF Exchange    Energy =  -6.84178235010642
 Beta HF Exchange     Energy =  -6.84178235010642
 DFT Correlation      Energy =  -2.73147461643586
 DFT Exchange         Energy = -54.26324233705525
 One-Electron (alpha) Energy = -918.70716644607933
 One-Electron (beta)  Energy = -918.70716644607955
 Total Coulomb        Energy = 701.76443351557714
    9    -915.5220086792      2.35e-07  Convergence criterion met
 ---------------------------------------
 SCF time:   CPU 30.05s  wall 2.00s 
<S^2> =         -0.000000000
 Alpha HF Exchange    Energy =  -6.84178235010642
 Beta HF Exchange     Energy =  -6.84178235010642
 DFT Correlation      Energy =  -2.73147461643586
 DFT Exchange         Energy = -54.26324233705525
 One-Electron (alpha) Energy = -918.70716644607933
 One-Electron (beta)  Energy = -918.70716644607955
 Total Coulomb        Energy = 701.76443351557714
 Nuclear repulsion Energy = 290.80617235111839
 SCF   energy in the final basis set =     -915.5220086792
 Total energy in the final basis set =     -915.5220086792
 
 --------------------------------------------------------------
 
                    Orbital Energies (a.u.)
 --------------------------------------------------------------
 
 Alpha MOs
 -- Occupied --
-88.879 -88.869 -10.239 -10.229 -10.194  -7.942  -7.932  -5.907
 -5.903  -5.897  -5.897  -5.893  -5.886  -0.843  -0.761  -0.715
 -0.656  -0.591  -0.484  -0.453  -0.430  -0.424  -0.400  -0.383
 -0.366  -0.324  -0.321  -0.245  -0.235
 -- Virtual --
  0.018   0.040   0.065   0.079   0.096   0.119   0.135   0.154
  0.166   0.171   0.202   0.212   0.328   0.337   0.358   0.367
  0.376   0.396   0.405   0.442   0.494   0.518   0.536   0.563
  0.579   0.647   0.660   0.685   0.726   0.748   0.756   0.783
  0.811   0.820   0.836   0.853   0.870   0.883   0.888   0.928
  0.945   0.962   0.980   1.033   1.089   1.129   1.166   1.210
  1.363   1.376   1.399   1.566   1.609   1.721   1.771   1.821
  1.853   1.924   2.032   2.035   2.062   2.075   2.094   2.095
  2.116   2.123   2.162   2.202   2.235   2.280   2.352   2.438
  2.490   2.586   2.599   2.628   2.721   2.723   2.751   2.774
  2.825   2.859   2.886   3.175   3.232   3.314   3.428   3.457
  3.468   3.970   4.011   4.271   4.446   4.591
 
 Beta MOs
 -- Occupied --
-88.879 -88.869 -10.239 -10.229 -10.194  -7.942  -7.932  -5.907
 -5.903  -5.897  -5.897  -5.893  -5.886  -0.843  -0.761  -0.715
 -0.656  -0.591  -0.484  -0.453  -0.430  -0.424  -0.400  -0.383
 -0.366  -0.324  -0.321  -0.245  -0.235
 -- Virtual --
  0.018   0.040   0.065   0.079   0.096   0.119   0.135   0.154
  0.166   0.171   0.202   0.212   0.328   0.337   0.358   0.367
  0.376   0.396   0.405   0.442   0.494   0.518   0.536   0.563
  0.579   0.647   0.660   0.685   0.726   0.748   0.756   0.783
  0.811   0.820   0.836   0.853   0.870   0.883   0.888   0.928
  0.945   0.962   0.980   1.033   1.089   1.129   1.166   1.210
  1.363   1.376   1.399   1.566   1.609   1.721   1.771   1.821
  1.853   1.924   2.032   2.035   2.062   2.075   2.094   2.095
  2.116   2.123   2.162   2.202   2.235   2.280   2.352   2.438
  2.490   2.586   2.599   2.628   2.721   2.723   2.751   2.774
  2.825   2.859   2.886   3.175   3.232   3.314   3.428   3.457
  3.468   3.970   4.011   4.271   4.446   4.591
 --------------------------------------------------------------
 
          Ground-State Mulliken Net Atomic Charges

     Atom                 Charge (a.u.)    Spin (a.u.)
  --------------------------------------------------------
      1 S                    -0.042247       0.000000
      2 S                    -0.043972      -0.000000
      3 C                    -0.204044      -0.000000
      4 C                    -0.322612      -0.000000
      5 C                    -0.307845       0.000000
      6 H                     0.155117      -0.000000
      7 H                     0.135624      -0.000000
      8 H                     0.145126       0.000000
      9 H                     0.106579      -0.000000
     10 H                     0.108876      -0.000000
     11 H                     0.130155       0.000000
     12 H                     0.058227      -0.000000
     13 H                     0.081015       0.000000
  --------------------------------------------------------
  Sum of atomic charges =    -0.000000
  Sum of spin   charges =    -0.000000

 -----------------------------------------------------------------
                    Cartesian Multipole Moments
 -----------------------------------------------------------------
    Charge (ESU x 10^10)
                -0.0000
    Dipole Moment (Debye)
         X       1.7224      Y       1.3979      Z       1.0471
       Tot       2.4530
    Quadrupole Moments (Debye-Ang)
        XX     -53.2230     XY       2.5303     YY     -47.4794
        XZ      -0.4609     YZ      -2.3302     ZZ     -44.8941
    Octopole Moments (Debye-Ang^2)
       XXX      43.4654    XXY       8.6172    XYY       3.8472
       YYY      39.9574    XXZ      -1.6154    XYZ       0.5731
       YYZ       0.6838    XZZ      14.4077    YZZ       8.4765
       ZZZ      -2.9942
    Hexadecapole Moments (Debye-Ang^3)
      XXXX    -751.3241   XXXY      33.6731   XXYY    -176.8919
      XYYY      14.7589   YYYY    -362.3460   XXXZ      -4.9527
      XXYZ      -2.6142   XYYZ       0.0567   YYYZ      -1.0543
      XXZZ    -139.8968   XYZZ       1.1698   YYZZ     -71.5973
      XZZZ      -6.7603   YZZZ       5.4019   ZZZZ     -91.9179
 -----------------------------------------------------------------
 Calculating analytic gradient of the SCF energy
 Gradient of SCF Energy
            1           2           3           4           5           6
    1   0.0002227   0.0141548  -0.0084846  -0.0006409  -0.0059392   0.0024780
    2   0.0147686  -0.0076285  -0.0094234   0.0047502  -0.0073493   0.0058484
    3   0.0084502   0.0045173  -0.0116582  -0.0005776   0.0044183  -0.0018788
            7           8           9          10          11          12
    1  -0.0032202   0.0024903   0.0002295   0.0005791   0.0018568  -0.0018755
    2  -0.0010194   0.0011742  -0.0018446   0.0009799   0.0003233  -0.0026893
    3   0.0010187   0.0011999  -0.0003271   0.0008242  -0.0018397  -0.0037968
           13
    1  -0.0018506
    2   0.0021097
    3  -0.0003504
 Max gradient component =       1.477E-02
 RMS gradient           =       5.331E-03
 Gradient time:  CPU 11.80 s  wall 1.06 s
 Geometry Optimization Parameters
   NAtoms,    NIC,     NZ,  NCons,   NDum,   NFix, NCnnct, MaxDiis
       13      82       0       1       0       0       0       0


** CONSTRAINED OPTIMIZATION IN DELOCALIZED INTERNAL COORDINATES **
   Searching for a Minimum

   Optimization Cycle:   1

                       Coordinates (Angstroms)
     ATOM                X               Y               Z
      1  S         0.6530000000   -1.6551000000    0.1361000000
      2  S        -2.2737000000   -0.0427000000   -0.1035000000
      3  C         0.5138000000    0.1015000000   -0.3613000000
      4  C        -0.6970000000    0.7789000000    0.2925000000
      5  C         1.8039000000    0.8174000000    0.0363000000
      6  H         0.4141000000    0.1309000000   -1.4524000000
      7  H        -0.5924000000    0.8044000000    1.3832000000
      8  H        -0.7706000000    1.8169000000   -0.0497000000
      9  H         1.7684000000    1.8662000000   -0.2789000000
     10  H         1.9624000000    0.8050000000    1.1207000000
     11  H         2.6774000000    0.3636000000   -0.4454000000
     12  H         0.7551000000   -1.4375000000    1.4557000000
     13  H        -1.9747000000   -1.2245000000    0.4557000000
   Point Group: c1    Number of degrees of freedom:    33


   Energy is   -915.522008679

              Constraints and their Current Values
                                        Value     Constraint
   Distance(Angs):        2   4             1.821490     1.400000

 Attempting to Generate Delocalized Internal Coordinates
**WARNING** Constraint Gradient Reduced for constraint   1

   Using Lagrange Multiplier Algorithm


 34 Hessian modes will be used to form the next step
  Hessian Eigenvalues:
    -0.885000    0.045000    0.045000    0.045000    0.045000    0.075919
     0.076295    0.078850    0.081805    0.083482    0.084194    0.094223
     0.127259    0.144645    0.160000    0.160000    0.160000    0.160000
     0.160000    0.176672    0.204035    0.220629    0.238218    0.263175
     0.263282    0.290806    0.296036    0.341239    0.341283    0.341292
     0.341409    0.341604    0.341929    1.129944

 Minimum Search - Taking P-RFO Step
 Searching for Lamda that Maximizes Along the Constraint modes Only
 Value Taken    Lamda =   0.05650876


 ********************************************
 ** ERROR IN DETERMINING Lamda IN CONFormD **
 ********************************************


 ** Scaling Hessian by  2.511501 **


 34 Hessian modes will be used to form the next step
  Hessian Eigenvalues:
    -0.738648    0.113018    0.113018    0.113018    0.113018    0.190672
     0.191616    0.198032    0.205454    0.209665    0.211453    0.236642
     0.319610    0.363277    0.401840    0.401840    0.401840    0.401840
     0.401840    0.443712    0.512433    0.554109    0.598285    0.660965
     0.661234    0.730360    0.743495    0.857021    0.857132    0.857156
     0.857449    0.857938    0.858754    1.353824

 Minimum Search - Taking P-RFO Step
 Searching for Lamda that Maximizes Along the Constraint modes Only
 Value Taken    Lamda =   0.07481121
 Searching for Lamda that Minimizes Along All other modes
 Value Taken    Lamda =  -0.02370981
 Step Taken.  Stepsize is  0.294131

                             Maximum     Tolerance    Cnvgd?
         Gradient            0.300000       0.000300      NO
         Displacement        0.280003       0.001200      NO
         Energy change     *********       0.000001      NO


 New Cartesian Coordinates Obtained by Inverse Iteration

 Displacement from previous Coordinates is:  0.349289
 ----------------------------------------------------------------
             Standard Nuclear Orientation (Angstroms)
    I     Atom           X                Y                Z
 ----------------------------------------------------------------
    1      S       0.6662020454    -1.6889481928     0.1255734022
    2      S      -2.1897009941     0.0436497178    -0.0901489003
    3      C       0.5042859890     0.0794382276    -0.3557516500
    4      C      -0.7214538848     0.7538882458     0.2837589691
    5      C       1.7849858061     0.8208833775     0.0404129117
    6      H       0.4040314943     0.1003499077    -1.4459090890
    7      H      -0.6160651274     0.7845517074     1.3738378222
    8      H      -0.7889243431     1.7901791897    -0.0637724932
    9      H       1.7341283023     1.8694044525    -0.2770680038
   10      H       1.9395462904     0.8120911730     1.1248780651
   11      H       2.6649771264     0.3771832900    -0.4359291251
   12      H       0.7756068717    -1.4674960375     1.4473394180
   13      H      -1.9179195762    -1.1501750587     0.4617786731
 ----------------------------------------------------------------
 Nuclear Repulsion Energy =   294.5358300057 hartrees
 There are       29 alpha and       29 beta electrons

                       Distance Matrix (Angstroms)
             S (  1)   S (  2)   C (  3)   C (  4)   C (  5)   H (  6)
   S (  2)  3.347329
   C (  3)  1.839859  2.707285
   C (  4)  2.813905  1.673319  1.538277
   C (  5)  2.749215  4.052070  1.531953  2.519116
   H (  6)  2.395804  2.927243  1.094957  2.164620  2.152988
   H (  7)  3.052962  2.273439  2.178038  1.095591  2.746705  3.075663
   H (  8)  3.775920  2.239026  2.164320  1.095093  2.752345  2.487764
   H (  9)  3.736905  4.331830  2.173173  2.754775  1.096712  2.502978
   H ( 10)  2.979130  4.372354  2.188382  2.791378  1.095459  3.077877
   H ( 11)  2.929042  4.878392  2.182583  3.482495  1.094603  2.491701
   H ( 12)  1.344647  3.666126  2.391183  2.920558  2.869663  3.311661
   H ( 13)  2.661014  1.343022  2.836791  2.255810  4.215937  3.254926
             H (  7)   H (  8)   H (  9)   H ( 10)   H ( 11)   H ( 12)
   H (  8)  1.762921
   H (  9)  3.070147  2.533292
   H ( 10)  2.567857  3.132746  1.767926
   H ( 11)  3.769144  3.750266  1.765911  1.775250
   H ( 12)  2.648372  3.917099  3.876500  2.579778  3.243341
   H ( 13)  2.503966  3.193199  4.795958  4.378382  4.913415  2.885673

 
 Applying Cartesian multipole field
    Component          Value
    ---------          -----
     (2,0,0)        1.00000E-11
     (0,2,0)        2.00000E-11
     (0,0,2)       -3.00000E-10
 Nucleus-field energy     =    -0.0000000010 hartrees
 Requested basis set is 6-31G(d,p)
 There are 46 shells and 123 basis functions
 A cutoff of  1.0D-14 yielded   1035 shell pairs
 There are      7546 function pairs
 Smallest overlap matrix eigenvalue = 5.24E-03
 Guess from superposition of atomic densities
 Warning:  Energy on first SCF cycle will be non-variational
 SAD guess density has 58.000000 electrons

 -----------------------------------------------------------------------
  General SCF calculation program by
  Eric Jon Sundstrom, Paul Horn, Yuezhi Mao, Dmitri Zuev, Alec White,
  David Stuck, Shaama M.S., Shane Yost, Joonho Lee, David Small,
  Daniel Levine, Susi Lehtola, Hugh Burton, Evgeny Epifanovsky
 -----------------------------------------------------------------------
 Exchange:     0.2000 Hartree-Fock + 0.0800 Slater + 0.7200 B88
 Correlation:  0.1900 VWN1RPA + 0.8100 LYP
 Using SG-1 standard quadrature grid
 using 12 threads for integral computing
 -------------------------------------------------------
 OpenMP Integral computing Module                
 Release: version 1.0, May 2013, Q-Chem Inc. Pittsburgh 
 -------------------------------------------------------
 -------------------------------------------------------
 OpenMP BLAS3 based DFT computing Module                
 Release: version 1.0, May 2013, Q-Chem Inc. Pittsburgh 
 -------------------------------------------------------
 A unrestricted SCF calculation will be
 performed using DIIS
 SCF converges when DIIS error is below 1.0e-06
 Alpha HF Exchange    Energy =  -6.88305387621676
 Beta HF Exchange     Energy =  -6.88305387621676
 DFT Correlation      Energy =  -2.72076412350651
 DFT Exchange         Energy = -53.92251655192305
 One-Electron (alpha) Energy = -920.37815108691996
 One-Electron (beta)  Energy = -920.37815108691996
 Total Coulomb        Energy = 700.29714553535712
 ---------------------------------------
  Cycle       Energy         DIIS error
 ---------------------------------------
    1    -916.3327150616      2.99e-02  
 Alpha HF Exchange    Energy =  -6.87611693556571
 Beta HF Exchange     Energy =  -6.87611693556571
 DFT Correlation      Energy =  -2.74823857121390
 DFT Exchange         Energy = -54.54854884045137
 One-Electron (alpha) Energy = -924.53603637425317
 One-Electron (beta)  Energy = -924.53603637425363
 Total Coulomb        Energy = 710.14733913440966
    2    -915.4379248922      2.95e-03  
 Alpha HF Exchange    Energy =  -6.81895595429244
 Beta HF Exchange     Energy =  -6.81895595429244
 DFT Correlation      Energy =  -2.72128064818525
 DFT Exchange         Energy = -54.06659358581276
 One-Electron (alpha) Energy = -920.06676254857496
 One-Electron (beta)  Energy = -920.06676254857473
 Total Coulomb        Energy = 700.60776436505057
    3    -915.4157168700      3.41e-03  
 Alpha HF Exchange    Energy =  -6.84606655663865
 Beta HF Exchange     Energy =  -6.84606655663866
 DFT Correlation      Energy =  -2.73511057501570
 DFT Exchange         Energy = -54.29430876380803
 One-Electron (alpha) Energy = -922.38756226611997
 One-Electron (beta)  Energy = -922.38756226612077
 Total Coulomb        Energy = 705.45130265029593
    4    -915.5095443293      4.67e-04  
 Alpha HF Exchange    Energy =  -6.84727824434830
 Beta HF Exchange     Energy =  -6.84727824434830
 DFT Correlation      Energy =  -2.73509369666460
 DFT Exchange         Energy = -54.30277980923896
 One-Electron (alpha) Energy = -922.40024704328721
 One-Electron (beta)  Energy = -922.40024704328710
 Total Coulomb        Energy = 705.48581923273457
    5    -915.5112748437      1.41e-04  
 Alpha HF Exchange    Energy =  -6.84717603749200
 Beta HF Exchange     Energy =  -6.84717603749200
 DFT Correlation      Energy =  -2.73509524543782
 DFT Exchange         Energy = -54.30215601861545
 One-Electron (alpha) Energy = -922.40324768333596
 One-Electron (beta)  Energy = -922.40324768333608
 Total Coulomb        Energy = 705.49085407939515
    6    -915.5114146216      3.73e-05  
 Alpha HF Exchange    Energy =  -6.84701555497221
 Beta HF Exchange     Energy =  -6.84701555497221
 DFT Correlation      Energy =  -2.73503834536972
 DFT Exchange         Energy = -54.30080392173778
 One-Electron (alpha) Energy = -922.38669774947891
 One-Electron (beta)  Energy = -922.38669774947925
 Total Coulomb        Energy = 705.45601410889833
    7    -915.5114247624      8.01e-06  
 Alpha HF Exchange    Energy =  -6.84707152651208
 Beta HF Exchange     Energy =  -6.84707152651209
 DFT Correlation      Energy =  -2.73506001466169
 DFT Exchange         Energy = -54.30124609281278
 One-Electron (alpha) Energy = -922.39313624362762
 One-Electron (beta)  Energy = -922.39313624362831
 Total Coulomb        Energy = 705.46946635223355
    8    -915.5114252908      1.61e-06  
 Alpha HF Exchange    Energy =  -6.84706759532385
 Beta HF Exchange     Energy =  -6.84706759532384
 DFT Correlation      Energy =  -2.73505815873066
 DFT Exchange         Energy = -54.30121261132584
 One-Electron (alpha) Energy = -922.39257714644555
 One-Electron (beta)  Energy = -922.39257714644509
 Total Coulomb        Energy = 705.46830493773257
    9    -915.5114253112      4.32e-07  Convergence criterion met
 ---------------------------------------
 SCF time:   CPU 29.29s  wall 2.00s 
<S^2> =         -0.000000000
 Alpha HF Exchange    Energy =  -6.84706759532385
 Beta HF Exchange     Energy =  -6.84706759532384
 DFT Correlation      Energy =  -2.73505815873066
 DFT Exchange         Energy = -54.30121261132584
 One-Electron (alpha) Energy = -922.39257714644555
 One-Electron (beta)  Energy = -922.39257714644509
 Total Coulomb        Energy = 705.46830493773257
 Nuclear repulsion Energy = 294.53583000469604
 SCF   energy in the final basis set =     -915.5114253112
 Total energy in the final basis set =     -915.5114253112
 
 --------------------------------------------------------------
 
                    Orbital Energies (a.u.)
 --------------------------------------------------------------
 
 Alpha MOs
 -- Occupied --
-88.881 -88.864 -10.237 -10.220 -10.192  -7.944  -7.930  -5.908
 -5.905  -5.898  -5.895  -5.891  -5.885  -0.853  -0.780  -0.714
 -0.648  -0.590  -0.493  -0.454  -0.432  -0.428  -0.402  -0.383
 -0.365  -0.329  -0.320  -0.246  -0.232
 -- Virtual --
  0.019   0.044   0.064   0.091   0.110   0.118   0.134   0.152
  0.169   0.171   0.198   0.213   0.332   0.340   0.360   0.367
  0.375   0.393   0.411   0.444   0.499   0.519   0.541   0.577
  0.584   0.635   0.667   0.687   0.724   0.751   0.755   0.773
  0.802   0.822   0.840   0.847   0.871   0.883   0.897   0.931
  0.949   0.960   1.010   1.074   1.107   1.123   1.184   1.207
  1.371   1.390   1.422   1.568   1.620   1.714   1.770   1.817
  1.855   1.943   2.033   2.040   2.061   2.079   2.090   2.100
  2.121   2.128   2.209   2.236   2.264   2.283   2.356   2.444
  2.502   2.590   2.609   2.635   2.724   2.725   2.747   2.779
  2.833   2.860   2.887   3.179   3.242   3.318   3.430   3.457
  3.471   3.976   4.022   4.277   4.458   4.597
 
 Beta MOs
 -- Occupied --
-88.881 -88.864 -10.237 -10.220 -10.192  -7.944  -7.930  -5.908
 -5.905  -5.898  -5.895  -5.891  -5.885  -0.853  -0.780  -0.714
 -0.648  -0.590  -0.493  -0.454  -0.432  -0.428  -0.402  -0.383
 -0.365  -0.329  -0.320  -0.246  -0.232
 -- Virtual --
  0.019   0.044   0.064   0.091   0.110   0.118   0.134   0.152
  0.169   0.171   0.198   0.213   0.332   0.340   0.360   0.367
  0.375   0.393   0.411   0.444   0.499   0.519   0.541   0.577
  0.584   0.635   0.667   0.687   0.724   0.751   0.755   0.773
  0.802   0.822   0.840   0.847   0.871   0.883   0.897   0.931
  0.949   0.960   1.010   1.074   1.107   1.123   1.184   1.207
  1.371   1.390   1.422   1.568   1.620   1.714   1.770   1.817
  1.855   1.943   2.033   2.040   2.061   2.079   2.090   2.100
  2.121   2.128   2.209   2.236   2.264   2.283   2.356   2.444
  2.502   2.590   2.609   2.635   2.724   2.725   2.747   2.779
  2.833   2.860   2.887   3.179   3.242   3.318   3.430   3.457
  3.471   3.976   4.022   4.277   4.458   4.597
 --------------------------------------------------------------
 
          Ground-State Mulliken Net Atomic Charges

     Atom                 Charge (a.u.)    Spin (a.u.)
  --------------------------------------------------------
      1 S                    -0.042652      -0.000000
      2 S                    -0.023050       0.000000
      3 C                    -0.210892       0.000000
      4 C                    -0.322800      -0.000000
      5 C                    -0.307067      -0.000000
      6 H                     0.152700      -0.000000
      7 H                     0.131749       0.000000
      8 H                     0.145893       0.000000
      9 H                     0.106653       0.000000
     10 H                     0.108596       0.000000
     11 H                     0.128212       0.000000
     12 H                     0.058554       0.000000
     13 H                     0.074104      -0.000000
  --------------------------------------------------------
  Sum of atomic charges =    -0.000000
  Sum of spin   charges =    -0.000000

 -----------------------------------------------------------------
                    Cartesian Multipole Moments
 -----------------------------------------------------------------
    Charge (ESU x 10^10)
                -0.0000
    Dipole Moment (Debye)
         X       1.5909      Y       1.3729      Z       1.0391
       Tot       2.3443
    Quadrupole Moments (Debye-Ang)
        XX     -52.9176     XY       2.3224     YY     -47.5938
        XZ      -0.4471     YZ      -2.3245     ZZ     -44.8558
    Octopole Moments (Debye-Ang^2)
       XXX      38.8943    XXY       8.4500    XYY       3.3588
       YYY      39.2409    XXZ      -1.3388    XYZ       0.3190
       YYZ       0.4450    XZZ      13.0226    YZZ       7.8787
       ZZZ      -3.1246
    Hexadecapole Moments (Debye-Ang^3)
      XXXX    -715.5873   XXXY      43.0109   XXYY    -173.9562
      XYYY      23.0643   YYYY    -369.8006   XXXZ      -4.2152
      XXYZ      -2.3573   XYYZ       1.0865   YYYZ      -1.2693
      XXZZ    -133.7841   XYZZ       4.6252   YYZZ     -72.5373
      XZZZ      -5.5314   YZZZ       5.4334   ZZZZ     -91.2036
 -----------------------------------------------------------------
 Calculating analytic gradient of the SCF energy
 Gradient of SCF Energy
            1           2           3           4           5           6
    1   0.0018341   0.0801545  -0.0137149  -0.0568575  -0.0041733   0.0022242
    2   0.0081522   0.0300696  -0.0110098  -0.0243830  -0.0044426   0.0049287
    3   0.0054418   0.0209954  -0.0099930  -0.0157714   0.0045734  -0.0008552
            7           8           9          10          11          12
    1  -0.0080844  -0.0037079   0.0006959   0.0004335   0.0009670  -0.0018910
    2  -0.0044186  -0.0015572  -0.0007839   0.0007478   0.0002879  -0.0013664
    3  -0.0008557  -0.0005287  -0.0003256   0.0003984  -0.0014602  -0.0024339
           13
    1   0.0021197
    2   0.0037752
    3   0.0008148
 Max gradient component =       8.015E-02
 RMS gradient           =       1.796E-02
 Gradient time:  CPU 11.84 s  wall 1.06 s
 Geometry Optimization Parameters
   NAtoms,    NIC,     NZ,  NCons,   NDum,   NFix, NCnnct, MaxDiis
       13      82       0       1       0       0       0       0

 Cartesian Hessian Update
 Hessian Updated using BFGS Update


** CONSTRAINED OPTIMIZATION IN DELOCALIZED INTERNAL COORDINATES **
   Searching for a Minimum

   Optimization Cycle:   2

                       Coordinates (Angstroms)
     ATOM                X               Y               Z
      1  S         0.6662020454   -1.6889481928    0.1255734022
      2  S        -2.1897009941    0.0436497178   -0.0901489003
      3  C         0.5042859890    0.0794382276   -0.3557516500
      4  C        -0.7214538848    0.7538882458    0.2837589691
      5  C         1.7849858061    0.8208833775    0.0404129117
      6  H         0.4040314943    0.1003499077   -1.4459090890
      7  H        -0.6160651274    0.7845517074    1.3738378222
      8  H        -0.7889243431    1.7901791897   -0.0637724932
      9  H         1.7341283023    1.8694044525   -0.2770680038
     10  H         1.9395462904    0.8120911730    1.1248780651
     11  H         2.6649771264    0.3771832900   -0.4359291251
     12  H         0.7756068717   -1.4674960375    1.4473394180
     13  H        -1.9179195762   -1.1501750587    0.4617786731
   Point Group: c1    Number of degrees of freedom:    33


   Energy is   -915.511425311

              Constraints and their Current Values
                                        Value     Constraint
   Distance(Angs):        2   4             1.673319     1.400000
 Hessian Updated using BFGS Update
**WARNING** Constraint Gradient Reduced for constraint   1

   Using Lagrange Multiplier Algorithm


 29 Hessian modes will be used to form the next step
  Hessian Eigenvalues:
    -0.857713    0.112572    0.113030    0.189098    0.191625    0.196721
     0.205430    0.209636    0.212816    0.236636    0.321626    0.362357
     0.401404    0.406957    0.444039    0.512601    0.545103    0.597304
     0.660578    0.661203    0.729069    0.743232    0.856948    0.857138
     0.857287    0.857439    0.857935    0.858864    1.176535

 Minimum Search - Taking P-RFO Step
 Searching for Lamda that Maximizes Along the Constraint modes Only
 Value Taken    Lamda =   0.03429400
 Searching for Lamda that Minimizes Along All other modes
 Value Taken    Lamda =  -0.05944981
 Calculated Step too Large.  Step scaled by  0.929428
 Step Taken.  Stepsize is  0.300000

                             Maximum     Tolerance    Cnvgd?
         Gradient            0.300000       0.000300      NO
         Displacement        0.266106       0.001200      NO
         Energy change      0.010583       0.000001      NO


 New Cartesian Coordinates Obtained by Inverse Iteration

 Displacement from previous Coordinates is:  0.306615
 ----------------------------------------------------------------
             Standard Nuclear Orientation (Angstroms)
    I     Atom           X                Y                Z
 ----------------------------------------------------------------
    1      S       0.6862951594    -1.7194093498     0.1186569961
    2      S      -2.1187474457     0.1275433284    -0.0707999317
    3      C       0.5012407266     0.0597805369    -0.3479023473
    4      C      -0.7500650618     0.7235633511     0.2756537558
    5      C       1.7707439739     0.8300514609     0.0435905484
    6      H       0.3985072920     0.0682864677    -1.4371667746
    7      H      -0.6142673502     0.7670198002     1.3638189778
    8      H      -0.7883394391     1.7607396943    -0.0772700957
    9      H       1.6986943215     1.8767776304    -0.2782741555
   10      H       1.9211172972     0.8268858088     1.1281765417
   11      H       2.6587031980     0.3989022089    -0.4261887273
   12      H       0.8081968501    -1.4965465574     1.4429996365
   13      H      -1.9323795219    -1.0985943805     0.4537055758
 ----------------------------------------------------------------
 Nuclear Repulsion Energy =   297.8872721357 hartrees
 There are       29 alpha and       29 beta electrons

                       Distance Matrix (Angstroms)
             S (  1)   S (  2)   C (  3)   C (  4)   C (  5)   H (  6)
   S (  2)  3.363836
   C (  3)  1.848632  2.635473
   C (  4)  2.838291  1.532502  1.547642
   C (  5)  2.771537  3.954080  1.535651  2.533707
   H (  6)  2.387314  2.864793  1.094131  2.163876  2.157768
   H (  7)  3.069889  2.174976  2.162067  1.097467  2.726766  3.059324
   H (  8)  3.784755  2.106504  2.151632  1.096246  2.725747  2.474333
   H (  9)  3.757002  4.204251  2.177205  2.762818  1.097462  2.510808
   H ( 10)  3.004586  4.271666  2.187078  2.805831  1.094965  3.078116
   H ( 11)  2.945249  4.798330  2.185355  3.495381  1.093185  2.497973
   H ( 12)  1.348485  3.673726  2.392427  2.952925  2.880608  3.303317
   H ( 13)  2.712034  1.346571  2.811924  2.179410  4.195354  3.220255
             H (  7)   H (  8)   H (  9)   H ( 10)   H ( 11)   H ( 12)
   H (  8)  1.759124
   H (  9)  3.045952  2.497840
   H ( 10)  2.547015  3.109074  1.769138
   H ( 11)  3.748596  3.722694  1.768505  1.772923
   H ( 12)  2.674585  3.933200  3.890384  2.595389  3.242062
   H ( 13)  2.458911  3.125149  4.751140  4.360255  4.908640  2.940719

 
 Applying Cartesian multipole field
    Component          Value
    ---------          -----
     (2,0,0)        1.00000E-11
     (0,2,0)        2.00000E-11
     (0,0,2)       -3.00000E-10
 Nucleus-field energy     =    -0.0000000008 hartrees
 Requested basis set is 6-31G(d,p)
 There are 46 shells and 123 basis functions
 A cutoff of  1.0D-14 yielded   1038 shell pairs
 There are      7581 function pairs
 Smallest overlap matrix eigenvalue = 5.17E-03
 Guess from superposition of atomic densities
 Warning:  Energy on first SCF cycle will be non-variational
 SAD guess density has 58.000000 electrons

 -----------------------------------------------------------------------
  General SCF calculation program by
  Eric Jon Sundstrom, Paul Horn, Yuezhi Mao, Dmitri Zuev, Alec White,
  David Stuck, Shaama M.S., Shane Yost, Joonho Lee, David Small,
  Daniel Levine, Susi Lehtola, Hugh Burton, Evgeny Epifanovsky
 -----------------------------------------------------------------------
 Exchange:     0.2000 Hartree-Fock + 0.0800 Slater + 0.7200 B88
 Correlation:  0.1900 VWN1RPA + 0.8100 LYP
 Using SG-1 standard quadrature grid
 using 12 threads for integral computing
 -------------------------------------------------------
 OpenMP Integral computing Module                
 Release: version 1.0, May 2013, Q-Chem Inc. Pittsburgh 
 -------------------------------------------------------
 -------------------------------------------------------
 OpenMP BLAS3 based DFT computing Module                
 Release: version 1.0, May 2013, Q-Chem Inc. Pittsburgh 
 -------------------------------------------------------
 A unrestricted SCF calculation will be
 performed using DIIS
 SCF converges when DIIS error is below 1.0e-06
 Alpha HF Exchange    Energy =  -6.89942479532173
 Beta HF Exchange     Energy =  -6.89942479532173
 DFT Correlation      Energy =  -2.72407196105350
 DFT Exchange         Energy = -53.95662464335666
 One-Electron (alpha) Energy = -923.63015549704494
 One-Electron (beta)  Energy = -923.63015549704494
 Total Coulomb        Energy = 703.34202617810126
 ---------------------------------------
  Cycle       Energy         DIIS error
 ---------------------------------------
    1    -916.5105588762      3.18e-02  
 Alpha HF Exchange    Energy =  -6.88362149194876
 Beta HF Exchange     Energy =  -6.88362149194877
 DFT Correlation      Energy =  -2.75257428194569
 DFT Exchange         Energy = -54.60752013706732
 One-Electron (alpha) Energy = -927.99380628018332
 One-Electron (beta)  Energy = -927.99380628018378
 Total Coulomb        Energy = 713.83638717612439
    2    -915.3912906523      3.14e-03  
 Alpha HF Exchange    Energy =  -6.82228171543941
 Beta HF Exchange     Energy =  -6.82228171543942
 DFT Correlation      Energy =  -2.72366231415928
 DFT Exchange         Energy = -54.09148564829012
 One-Electron (alpha) Energy = -923.05526797165794
 One-Electron (beta)  Energy = -923.05526797165805
 Total Coulomb        Energy = 703.31917009337849
    3    -915.3638051084      3.66e-03  
 Alpha HF Exchange    Energy =  -6.85196469589103
 Beta HF Exchange     Energy =  -6.85196469589105
 DFT Correlation      Energy =  -2.73865311212782
 DFT Exchange         Energy = -54.34007188502959
 One-Electron (alpha) Energy = -925.67072334427928
 One-Electron (beta)  Energy = -925.67072334427974
 Total Coulomb        Energy = 708.76538415401001
    4    -915.4714447886      4.70e-04  
 Alpha HF Exchange    Energy =  -6.85307787893911
 Beta HF Exchange     Energy =  -6.85307787893910
 DFT Correlation      Energy =  -2.73861948857829
 DFT Exchange         Energy = -54.34774963529459
 One-Electron (alpha) Energy = -925.66972741174891
 One-Electron (beta)  Energy = -925.66972741174811
 Total Coulomb        Energy = 708.77153363220020
    5    -915.4731739382      1.51e-04  
 Alpha HF Exchange    Energy =  -6.85296990744287
 Beta HF Exchange     Energy =  -6.85296990744286
 DFT Correlation      Energy =  -2.73862002235768
 DFT Exchange         Energy = -54.34709603639698
 One-Electron (alpha) Energy = -925.67238484396921
 One-Electron (beta)  Energy = -925.67238484396887
 Total Coulomb        Energy = 708.77581867465813
    6    -915.4733347520      3.83e-05  
 Alpha HF Exchange    Energy =  -6.85280901304020
 Beta HF Exchange     Energy =  -6.85280901304021
 DFT Correlation      Energy =  -2.73856079138962
 DFT Exchange         Energy = -54.34573314410057
 One-Electron (alpha) Energy = -925.65648732869249
 One-Electron (beta)  Energy = -925.65648732869283
 Total Coulomb        Energy = 708.74226910751042
    7    -915.4733453766      9.26e-06  
 Alpha HF Exchange    Energy =  -6.85286187676436
 Beta HF Exchange     Energy =  -6.85286187676436
 DFT Correlation      Energy =  -2.73858223728374
 DFT Exchange         Energy = -54.34615345155650
 One-Electron (alpha) Energy = -925.66239622352612
 One-Electron (beta)  Energy = -925.66239622352600
 Total Coulomb        Energy = 708.75463368984924
    8    -915.4733460647      1.72e-06  
 Alpha HF Exchange    Energy =  -6.85286224660502
 Beta HF Exchange     Energy =  -6.85286224660502
 DFT Correlation      Energy =  -2.73858181530155
 DFT Exchange         Energy = -54.34615337734289
 One-Electron (alpha) Energy = -925.66236408081693
 One-Electron (beta)  Energy = -925.66236408081681
 Total Coulomb        Energy = 708.75456962541853
    9    -915.4733460872      5.12e-07  Convergence criterion met
 ---------------------------------------
 SCF time:   CPU 28.99s  wall 2.00s 
<S^2> =          0.000000000
 Alpha HF Exchange    Energy =  -6.85286224660502
 Beta HF Exchange     Energy =  -6.85286224660502
 DFT Correlation      Energy =  -2.73858181530155
 DFT Exchange         Energy = -54.34615337734289
 One-Electron (alpha) Energy = -925.66236408081693
 One-Electron (beta)  Energy = -925.66236408081681
 Total Coulomb        Energy = 708.75456962541853
 Nuclear repulsion Energy = 297.88727213488073
 SCF   energy in the final basis set =     -915.4733460872
 Total energy in the final basis set =     -915.4733460872
 
 --------------------------------------------------------------
 
                    Orbital Energies (a.u.)
 --------------------------------------------------------------
 
 Alpha MOs
 -- Occupied --
-88.881 -88.858 -10.236 -10.212 -10.192  -7.944  -7.929  -5.909
 -5.905  -5.899  -5.894  -5.890  -5.883  -0.874  -0.793  -0.713
 -0.642  -0.589  -0.506  -0.456  -0.438  -0.430  -0.403  -0.385
 -0.364  -0.332  -0.314  -0.248  -0.226
 -- Virtual --
  0.019   0.048   0.063   0.088   0.114   0.125   0.133   0.152
  0.172   0.173   0.193   0.215   0.333   0.339   0.360   0.371
  0.375   0.390   0.421   0.447   0.507   0.521   0.550   0.588
  0.606   0.625   0.675   0.691   0.723   0.742   0.755   0.769
  0.789   0.821   0.834   0.848   0.873   0.879   0.903   0.932
  0.950   0.961   1.023   1.107   1.115   1.121   1.195   1.265
  1.380   1.401   1.451   1.571   1.635   1.720   1.771   1.813
  1.854   1.959   2.033   2.046   2.060   2.081   2.089   2.098
  2.122   2.129   2.212   2.249   2.287   2.339   2.369   2.451
  2.512   2.591   2.621   2.650   2.723   2.733   2.744   2.783
  2.836   2.862   2.886   3.181   3.246   3.320   3.431   3.451
  3.475   3.978   4.038   4.278   4.472   4.605
 
 Beta MOs
 -- Occupied --
-88.881 -88.858 -10.236 -10.212 -10.192  -7.944  -7.929  -5.909
 -5.905  -5.899  -5.894  -5.890  -5.883  -0.874  -0.793  -0.713
 -0.642  -0.589  -0.506  -0.456  -0.438  -0.430  -0.403  -0.385
 -0.364  -0.332  -0.314  -0.248  -0.226
 -- Virtual --
  0.019   0.048   0.063   0.088   0.114   0.125   0.133   0.152
  0.172   0.173   0.193   0.215   0.333   0.339   0.360   0.371
  0.375   0.390   0.421   0.447   0.507   0.521   0.550   0.588
  0.606   0.625   0.675   0.691   0.723   0.742   0.755   0.769
  0.789   0.821   0.834   0.848   0.873   0.879   0.903   0.932
  0.950   0.961   1.023   1.107   1.115   1.121   1.195   1.265
  1.380   1.401   1.451   1.571   1.635   1.720   1.771   1.813
  1.854   1.959   2.033   2.046   2.060   2.081   2.089   2.098
  2.122   2.129   2.212   2.249   2.287   2.339   2.369   2.451
  2.512   2.591   2.621   2.650   2.723   2.733   2.744   2.783
  2.836   2.862   2.886   3.181   3.246   3.320   3.431   3.451
  3.475   3.978   4.038   4.278   4.472   4.605
 --------------------------------------------------------------
 
          Ground-State Mulliken Net Atomic Charges

     Atom                 Charge (a.u.)    Spin (a.u.)
  --------------------------------------------------------
      1 S                    -0.044773      -0.000000
      2 S                    -0.017066       0.000000
      3 C                    -0.219294       0.000000
      4 C                    -0.298045      -0.000000
      5 C                    -0.307039      -0.000000
      6 H                     0.149400      -0.000000
      7 H                     0.123292      -0.000000
      8 H                     0.146471      -0.000000
      9 H                     0.106528       0.000000
     10 H                     0.108892      -0.000000
     11 H                     0.127774       0.000000
     12 H                     0.058076       0.000000
     13 H                     0.065783       0.000000
  --------------------------------------------------------
  Sum of atomic charges =     0.000000
  Sum of spin   charges =    -0.000000

 -----------------------------------------------------------------
                    Cartesian Multipole Moments
 -----------------------------------------------------------------
    Charge (ESU x 10^10)
                 0.0000
    Dipole Moment (Debye)
         X       1.4730      Y       1.3825      Z       1.0273
       Tot       2.2663
    Quadrupole Moments (Debye-Ang)
        XX     -52.5586     XY       2.2980     YY     -47.6449
        XZ      -0.4485     YZ      -2.2845     ZZ     -44.8646
    Octopole Moments (Debye-Ang^2)
       XXX      34.6008    XXY       7.8793    XYY       2.7626
       YYY      38.6152    XXZ      -1.0104    XYZ       0.0127
       YYZ       0.1153    XZZ      11.7822    YZZ       7.2774
       ZZZ      -3.6530
    Hexadecapole Moments (Debye-Ang^3)
      XXXX    -688.2560   XXXY      52.6304   XXYY    -172.4581
      XYYY      30.7540   YYYY    -377.8880   XXXZ      -3.8531
      XXYZ      -2.1188   XYYZ       2.1009   YYYZ      -1.3725
      XXZZ    -129.2183   XYZZ       7.7487   YYZZ     -73.6873
      XZZZ      -3.9917   YZZZ       5.5412   ZZZZ     -90.6981
 -----------------------------------------------------------------
 Calculating analytic gradient of the SCF energy
 Gradient of SCF Energy
            1           2           3           4           5           6
    1   0.0033139   0.2062624  -0.0165568  -0.1784689  -0.0012110   0.0017886
    2   0.0020008   0.0868236  -0.0097199  -0.0750765  -0.0019291   0.0038988
    3   0.0024443   0.0541785  -0.0066722  -0.0479210   0.0039551   0.0002058
            7           8           9          10          11          12
    1  -0.0110298  -0.0075438   0.0007569   0.0002052   0.0003319  -0.0016128
    2  -0.0069791  -0.0036674  -0.0000042   0.0003774   0.0003778  -0.0002448
    3  -0.0028725  -0.0022584  -0.0003365  -0.0000402  -0.0008772  -0.0008123
           13
    1   0.0037641
    2   0.0041426
    3   0.0010067
 Max gradient component =       2.063E-01
 RMS gradient           =       4.898E-02
 Gradient time:  CPU 11.99 s  wall 1.08 s
 Geometry Optimization Parameters
   NAtoms,    NIC,     NZ,  NCons,   NDum,   NFix, NCnnct, MaxDiis
       13      82       0       1       0       0       0       0

 Cartesian Hessian Update
 Hessian Updated using BFGS Update


** CONSTRAINED OPTIMIZATION IN DELOCALIZED INTERNAL COORDINATES **
   Searching for a Minimum

   Optimization Cycle:   3

                       Coordinates (Angstroms)
     ATOM                X               Y               Z
      1  S         0.6862951594   -1.7194093498    0.1186569961
      2  S        -2.1187474457    0.1275433284   -0.0707999317
      3  C         0.5012407266    0.0597805369   -0.3479023473
      4  C        -0.7500650618    0.7235633511    0.2756537558
      5  C         1.7707439739    0.8300514609    0.0435905484
      6  H         0.3985072920    0.0682864677   -1.4371667746
      7  H        -0.6142673502    0.7670198002    1.3638189778
      8  H        -0.7883394391    1.7607396943   -0.0772700957
      9  H         1.6986943215    1.8767776304   -0.2782741555
     10  H         1.9211172972    0.8268858088    1.1281765417
     11  H         2.6587031980    0.3989022089   -0.4261887273
     12  H         0.8081968501   -1.4965465574    1.4429996365
     13  H        -1.9323795219   -1.0985943805    0.4537055758
   Point Group: c1    Number of degrees of freedom:    33


   Energy is   -915.473346087

              Constraints and their Current Values
                                        Value     Constraint
   Distance(Angs):        2   4             1.532502     1.400000
 Hessian Updated using BFGS Update

   Using Lagrange Multiplier Algorithm


 31 Hessian modes will be used to form the next step
  Hessian Eigenvalues:
    -0.748285    0.112413    0.113018    0.113031    0.187436    0.191671
     0.196117    0.205416    0.209598    0.211975    0.236574    0.319942
     0.361518    0.400512    0.401843    0.404832    0.444329    0.512810
     0.538885    0.597286    0.660244    0.661186    0.726843    0.743379
     0.856698    0.857102    0.857201    0.857500    0.857956    0.858774
     1.364642

 Minimum Search - Taking P-RFO Step
 Searching for Lamda that Maximizes Along the Constraint modes Only
 Value Taken    Lamda =   0.06723482
 Searching for Lamda that Minimizes Along All other modes
 Value Taken    Lamda =  -0.01699152
 Calculated Step too Large.  Step scaled by  0.953720
 Step Taken.  Stepsize is  0.300000

                             Maximum     Tolerance    Cnvgd?
         Gradient            0.250392       0.000300      NO
         Displacement        0.223067       0.001200      NO
         Energy change      0.038079       0.000001      NO


 New Cartesian Coordinates Obtained by Inverse Iteration

 Displacement from previous Coordinates is:  0.299581
 ----------------------------------------------------------------
             Standard Nuclear Orientation (Angstroms)
    I     Atom           X                Y                Z
 ----------------------------------------------------------------
    1      S       0.7019176434    -1.7405346240     0.1181399034
    2      S      -2.0632673254     0.1916562989    -0.0536004007
    3      C       0.5030804577     0.0456651458    -0.3373417873
    4      C      -0.7806617676     0.6910925042     0.2722566548
    5      C       1.7600987767     0.8433889414     0.0448617696
    6      H       0.3949026490     0.0376157646    -1.4260782661
    7      H      -0.5826653580     0.7561884067     1.3554296329
    8      H      -0.7654506049     1.7317117855    -0.0819429164
    9      H       1.6647185765     1.8864634913    -0.2837136156
   10      H       1.9081284125     0.8485707687     1.1295592554
   11      H       2.6552891033     0.4237367845    -0.4188807674
   12      H       0.8446000813    -1.5198781594     1.4437953542
   13      H      -2.0009906445    -1.0706771082     0.4265151830
 ----------------------------------------------------------------
 Nuclear Repulsion Energy =   300.8965439731 hartrees
 There are       29 alpha and       29 beta electrons

                       Distance Matrix (Angstroms)
             S (  1)   S (  2)   C (  3)   C (  4)   C (  5)   H (  6)
   S (  2)  3.377737
   C (  3)  1.854052  2.586110
   C (  4)  2.852123  1.414460  1.560827
   C (  5)  2.793166  3.879765  1.537055  2.555458
   H (  6)  2.375013  2.819579  1.094127  2.166408  2.162567
   H (  7)  3.068333  2.120435  2.132877  1.103043  2.685840  3.034596
   H (  8)  3.774877  2.014175  2.125359  1.099353  2.680223  2.454197
   H (  9)  3.774068  4.101610  2.177342  2.778111  1.097754  2.517075
   H ( 10)  3.030079  4.195639  2.184174  2.826546  1.094764  3.078763
   H ( 11)  2.964477  4.738361  2.186684  3.514955  1.092031  2.504572
   H ( 12)  1.351447  3.691509  2.395832  2.983684  2.894855  3.296087
   H ( 13)  2.801699  1.351989  2.846062  2.148681  4.237346  3.225015
             H (  7)   H (  8)   H (  9)   H ( 10)   H ( 11)   H ( 12)
   H (  8)  1.746739
   H (  9)  3.002507  2.443436
   H ( 10)  2.502720  3.065241  1.770257
   H ( 11)  3.707162  3.677742  1.771742  1.770988
   H ( 12)  2.688006  3.936112  3.906411  2.615222  3.244348
   H ( 13)  2.492382  3.104589  4.763038  4.411235  4.962752  3.055164

 
 Applying Cartesian multipole field
    Component          Value
    ---------          -----
     (2,0,0)        1.00000E-11
     (0,2,0)        2.00000E-11
     (0,0,2)       -3.00000E-10
 Nucleus-field energy     =    -0.0000000006 hartrees
 Requested basis set is 6-31G(d,p)
 There are 46 shells and 123 basis functions
 A cutoff of  1.0D-14 yielded   1038 shell pairs
 There are      7581 function pairs
 Smallest overlap matrix eigenvalue = 5.07E-03
 Guess from superposition of atomic densities
 Warning:  Energy on first SCF cycle will be non-variational
 SAD guess density has 58.000000 electrons

 -----------------------------------------------------------------------
  General SCF calculation program by
  Eric Jon Sundstrom, Paul Horn, Yuezhi Mao, Dmitri Zuev, Alec White,
  David Stuck, Shaama M.S., Shane Yost, Joonho Lee, David Small,
  Daniel Levine, Susi Lehtola, Hugh Burton, Evgeny Epifanovsky
 -----------------------------------------------------------------------
 Exchange:     0.2000 Hartree-Fock + 0.0800 Slater + 0.7200 B88
 Correlation:  0.1900 VWN1RPA + 0.8100 LYP
 Using SG-1 standard quadrature grid
 using 12 threads for integral computing
 -------------------------------------------------------
 OpenMP Integral computing Module                
 Release: version 1.0, May 2013, Q-Chem Inc. Pittsburgh 
 -------------------------------------------------------
 -------------------------------------------------------
 OpenMP BLAS3 based DFT computing Module                
 Release: version 1.0, May 2013, Q-Chem Inc. Pittsburgh 
 -------------------------------------------------------
 A unrestricted SCF calculation will be
 performed using DIIS
 SCF converges when DIIS error is below 1.0e-06
 Alpha HF Exchange    Energy =  -6.91531596279766
 Beta HF Exchange     Energy =  -6.91531596279766
 DFT Correlation      Energy =  -2.72694567719025
 DFT Exchange         Energy = -53.99116531960950
 One-Electron (alpha) Energy = -926.49651241824802
 One-Electron (beta)  Energy = -926.49651241824802
 Total Coulomb        Energy = 705.95324507965722
 ---------------------------------------
  Cycle       Energy         DIIS error
 ---------------------------------------
    1    -916.6919787068      3.42e-02  
 Alpha HF Exchange    Energy =  -6.89144053923299
 Beta HF Exchange     Energy =  -6.89144053923298
 DFT Correlation      Energy =  -2.75675722486204
 DFT Exchange         Energy = -54.67284484395055
 One-Electron (alpha) Energy = -931.12585198144677
 One-Electron (beta)  Energy = -931.12585198144666
 Total Coulomb        Energy = 717.25779622446703
    2    -915.3098469133      3.41e-03  
 Alpha HF Exchange    Energy =  -6.82477435682469
 Beta HF Exchange     Energy =  -6.82477435682470
 DFT Correlation      Energy =  -2.72542579680541
 DFT Exchange         Energy = -54.11285178424024
 One-Electron (alpha) Energy = -925.58377343075813
 One-Electron (beta)  Energy = -925.58377343075870
 Total Coulomb        Energy = 705.48505848980619
    3    -915.2737706940      4.01e-03  
 Alpha HF Exchange    Energy =  -6.85773470137509
 Beta HF Exchange     Energy =  -6.85773470137509
 DFT Correlation      Energy =  -2.74189523239612
 DFT Exchange         Energy = -54.38836365893393
 One-Electron (alpha) Energy = -928.58297228087167
 One-Electron (beta)  Energy = -928.58297228087224
 Total Coulomb        Energy = 711.71308668998699
    4    -915.4020421934      4.90e-04  
 Alpha HF Exchange    Energy =  -6.85873833927834
 Beta HF Exchange     Energy =  -6.85873833927834
 DFT Correlation      Energy =  -2.74182823378179
 DFT Exchange         Energy = -54.39512390757231
 One-Electron (alpha) Energy = -928.56544560184898
 One-Electron (beta)  Energy = -928.56544560184864
 Total Coulomb        Energy = 711.68485637236154
    5    -915.4039196788      1.66e-04  
 Alpha HF Exchange    Energy =  -6.85859573577705
 Beta HF Exchange     Energy =  -6.85859573577703
 DFT Correlation      Energy =  -2.74182125471396
 DFT Exchange         Energy = -54.39422391978260
 One-Electron (alpha) Energy = -928.56507128267958
 One-Electron (beta)  Energy = -928.56507128267901
 Total Coulomb        Energy = 711.68271891888321
    6    -915.4041163201      4.15e-05  
 Alpha HF Exchange    Energy =  -6.85843090605864
 Beta HF Exchange     Energy =  -6.85843090605866
 DFT Correlation      Energy =  -2.74175528780611
 DFT Exchange         Energy = -54.39281106405946
 One-Electron (alpha) Energy = -928.54991497440801
 One-Electron (beta)  Energy = -928.54991497440869
 Total Coulomb        Energy = 711.65058546288935
    7    -915.4041286775      1.15e-05  
 Alpha HF Exchange    Energy =  -6.85848176186732
 Beta HF Exchange     Energy =  -6.85848176186731
 DFT Correlation      Energy =  -2.74177802411662
 DFT Exchange         Energy = -54.39322103939783
 One-Electron (alpha) Energy = -928.55537753290730
 One-Electron (beta)  Energy = -928.55537753290685
 Total Coulomb        Energy = 711.66204396100136
    8    -915.4041297196      1.83e-06  
 Alpha HF Exchange    Energy =  -6.85848633367473
 Beta HF Exchange     Energy =  -6.85848633367473
 DFT Correlation      Energy =  -2.74177899504439
 DFT Exchange         Energy = -54.39325373934674
 One-Electron (alpha) Energy = -928.55585167836489
 One-Electron (beta)  Energy = -928.55585167836546
 Total Coulomb        Energy = 711.66303504092116
    9    -915.4041297451      5.86e-07  Convergence criterion met
 ---------------------------------------
 SCF time:   CPU 29.43s  wall 2.00s 
<S^2> =          0.000000000
 Alpha HF Exchange    Energy =  -6.85848633367473
 Beta HF Exchange     Energy =  -6.85848633367473
 DFT Correlation      Energy =  -2.74177899504439
 DFT Exchange         Energy = -54.39325373934674
 One-Electron (alpha) Energy = -928.55585167836489
 One-Electron (beta)  Energy = -928.55585167836546
 Total Coulomb        Energy = 711.66303504092116
 Nuclear repulsion Energy = 300.89654397245124
 SCF   energy in the final basis set =     -915.4041297451
 Total energy in the final basis set =     -915.4041297451
 
 --------------------------------------------------------------
 
                    Orbital Energies (a.u.)
 --------------------------------------------------------------
 
 Alpha MOs
 -- Occupied --
-88.881 -88.853 -10.234 -10.208 -10.192  -7.943  -7.930  -5.908
 -5.904  -5.898  -5.894  -5.889  -5.883  -0.902  -0.798  -0.712
 -0.639  -0.589  -0.518  -0.460  -0.446  -0.431  -0.405  -0.389
 -0.362  -0.333  -0.305  -0.248  -0.219
 -- Virtual --
  0.020   0.052   0.064   0.078   0.109   0.125   0.133   0.155
  0.173   0.176   0.191   0.218   0.330   0.337   0.361   0.374
  0.376   0.392   0.433   0.450   0.515   0.524   0.556   0.597
  0.617   0.637   0.681   0.695   0.723   0.731   0.753   0.768
  0.778   0.817   0.828   0.851   0.872   0.878   0.903   0.935
  0.949   0.965   1.033   1.107   1.113   1.125   1.187   1.386
  1.403   1.412   1.464   1.582   1.648   1.738   1.778   1.812
  1.854   1.969   2.031   2.052   2.061   2.083   2.089   2.095
  2.119   2.131   2.208   2.243   2.293   2.355   2.414   2.467
  2.517   2.587   2.630   2.672   2.723   2.739   2.750   2.786
  2.833   2.864   2.884   3.180   3.238   3.320   3.433   3.443
  3.477   3.979   4.045   4.279   4.486   4.618
 
 Beta MOs
 -- Occupied --
-88.881 -88.853 -10.234 -10.208 -10.192  -7.943  -7.930  -5.908
 -5.904  -5.898  -5.894  -5.889  -5.883  -0.902  -0.798  -0.712
 -0.639  -0.589  -0.518  -0.460  -0.446  -0.431  -0.405  -0.389
 -0.362  -0.333  -0.305  -0.248  -0.219
 -- Virtual --
  0.020   0.052   0.064   0.078   0.109   0.125   0.133   0.155
  0.173   0.176   0.191   0.218   0.330   0.337   0.361   0.374
  0.376   0.392   0.433   0.450   0.515   0.524   0.556   0.597
  0.617   0.637   0.681   0.695   0.723   0.731   0.753   0.768
  0.778   0.817   0.828   0.851   0.872   0.878   0.903   0.935
  0.949   0.965   1.033   1.107   1.113   1.125   1.187   1.386
  1.403   1.412   1.464   1.582   1.648   1.738   1.778   1.812
  1.854   1.969   2.031   2.052   2.061   2.083   2.089   2.095
  2.119   2.131   2.208   2.243   2.293   2.355   2.414   2.467
  2.517   2.587   2.630   2.672   2.723   2.739   2.750   2.786
  2.833   2.864   2.884   3.180   3.238   3.320   3.433   3.443
  3.477   3.979   4.045   4.279   4.486   4.618
 --------------------------------------------------------------
 
          Ground-State Mulliken Net Atomic Charges

     Atom                 Charge (a.u.)    Spin (a.u.)
  --------------------------------------------------------
      1 S                    -0.048636       0.000000
      2 S                    -0.016697       0.000000
      3 C                    -0.228298      -0.000000
      4 C                    -0.262973       0.000000
      5 C                    -0.308048       0.000000
      6 H                     0.145672      -0.000000
      7 H                     0.109573       0.000000
      8 H                     0.149520       0.000000
      9 H                     0.106341       0.000000
     10 H                     0.109795      -0.000000
     11 H                     0.128793       0.000000
     12 H                     0.057210      -0.000000
     13 H                     0.057748      -0.000000
  --------------------------------------------------------
  Sum of atomic charges =     0.000000
  Sum of spin   charges =     0.000000

 -----------------------------------------------------------------
                    Cartesian Multipole Moments
 -----------------------------------------------------------------
    Charge (ESU x 10^10)
                 0.0000
    Dipole Moment (Debye)
         X       1.3744      Y       1.4301      Z       0.9987
       Tot       2.2207
    Quadrupole Moments (Debye-Ang)
        XX     -52.1546     XY       2.4334     YY     -47.6412
        XZ      -0.4219     YZ      -2.1982     ZZ     -44.9346
    Octopole Moments (Debye-Ang^2)
       XXX      31.1524    XXY       7.1591    XYY       2.2252
       YYY      38.3640    XXZ      -0.7592    XYZ      -0.3573
       YYZ      -0.2260    XZZ      10.8317    YZZ       6.8046
       ZZZ      -4.4811
    Hexadecapole Moments (Debye-Ang^3)
      XXXX    -667.9687   XXXY      59.9429   XXYY    -171.8357
      XYYY      36.0605   YYYY    -384.4610   XXXZ      -4.0010
      XXYZ      -1.7228   XYYZ       2.8291   YYYZ      -1.2253
      XXZZ    -125.8762   XYZZ       9.8461   YYZZ     -74.7245
      XZZZ      -2.7050   YZZZ       5.7285   ZZZZ     -90.6912
 -----------------------------------------------------------------
 Calculating analytic gradient of the SCF energy
 Gradient of SCF Energy
            1           2           3           4           5           6
    1   0.0034484   0.3984410  -0.0166110  -0.3721581   0.0017133   0.0011878
    2  -0.0019825   0.1537130  -0.0052889  -0.1423404   0.0001160   0.0027063
    3   0.0001662   0.1050277  -0.0015728  -0.0985436   0.0025365   0.0009232
            7           8           9          10          11          12
    1  -0.0096561  -0.0072493   0.0004739  -0.0000486  -0.0000278  -0.0011180
    2  -0.0071013  -0.0036466   0.0002827  -0.0000311   0.0003996   0.0004033
    3  -0.0046646  -0.0033048  -0.0002587  -0.0003508  -0.0003021   0.0003903
           13
    1   0.0016043
    2   0.0027699
    3  -0.0000464
 Max gradient component =       3.984E-01
 RMS gradient           =       9.641E-02
 Gradient time:  CPU 12.00 s  wall 1.07 s
 Geometry Optimization Parameters
   NAtoms,    NIC,     NZ,  NCons,   NDum,   NFix, NCnnct, MaxDiis
       13      82       0       1       0       0       0       0

 Cartesian Hessian Update
 Hessian Updated using BFGS Update


** CONSTRAINED OPTIMIZATION IN DELOCALIZED INTERNAL COORDINATES **
   Searching for a Minimum

   Optimization Cycle:   4

                       Coordinates (Angstroms)
     ATOM                X               Y               Z
      1  S         0.7019176434   -1.7405346240    0.1181399034
      2  S        -2.0632673254    0.1916562989   -0.0536004007
      3  C         0.5030804577    0.0456651458   -0.3373417873
      4  C        -0.7806617676    0.6910925042    0.2722566548
      5  C         1.7600987767    0.8433889414    0.0448617696
      6  H         0.3949026490    0.0376157646   -1.4260782661
      7  H        -0.5826653580    0.7561884067    1.3554296329
      8  H        -0.7654506049    1.7317117855   -0.0819429164
      9  H         1.6647185765    1.8864634913   -0.2837136156
     10  H         1.9081284125    0.8485707687    1.1295592554
     11  H         2.6552891033    0.4237367845   -0.4188807674
     12  H         0.8446000813   -1.5198781594    1.4437953542
     13  H        -2.0009906445   -1.0706771082    0.4265151830
   Point Group: c1    Number of degrees of freedom:    33


   Energy is   -915.404129745

              Constraints and their Current Values
                                        Value     Constraint
   Distance(Angs):        2   4             1.414460     1.400000
 Hessian Updated using BFGS Update

   Using Lagrange Multiplier Algorithm


 33 Hessian modes will be used to form the next step
  Hessian Eigenvalues:
    -0.605056    0.112043    0.113018    0.113021    0.113028    0.184165
     0.191662    0.195581    0.205382    0.208291    0.209763    0.236431
     0.314746    0.361106    0.399316    0.401840    0.401842    0.402772
     0.443759    0.512750    0.538600    0.597431    0.660042    0.661067
     0.724194    0.743388    0.855377    0.857018    0.857154    0.857431
     0.857939    0.858614    1.710514

 Minimum Search - Taking P-RFO Step
 Searching for Lamda that Maximizes Along the Constraint modes Only
 Value Taken    Lamda =   0.00891485
 Searching for Lamda that Minimizes Along All other modes
 Value Taken    Lamda =  -0.00497725
 Step Taken.  Stepsize is  0.102499

                             Maximum     Tolerance    Cnvgd?
         Gradient            0.103018       0.000300      NO
         Displacement        0.113474       0.001200      NO
         Energy change      0.069216       0.000001      NO


 New Cartesian Coordinates Obtained by Inverse Iteration

 Displacement from previous Coordinates is:  0.116375
 ----------------------------------------------------------------
             Standard Nuclear Orientation (Angstroms)
    I     Atom           X                Y                Z
 ----------------------------------------------------------------
    1      S       0.7033797467    -1.7420879518     0.1208257667
    2      S      -2.0653016653     0.2004122472    -0.0547401630
    3      C       0.5072749194     0.0439067883    -0.3330514023
    4      C      -0.7915783313     0.6804388809     0.2746154926
    5      C       1.7591301549     0.8488893014     0.0442156920
    6      H       0.3955719511     0.0279660460    -1.4220112045
    7      H      -0.5599922459     0.7585925903     1.3554592252
    8      H      -0.7470761050     1.7235849384    -0.0757501575
    9      H       1.6562622900     1.8900523888    -0.2876866389
   10      H       1.9076221742     0.8584749428     1.1290211756
   11      H       2.6560357714     0.4314687924    -0.4179011745
   12      H       0.8588581350    -1.5248687991     1.4457451076
   13      H      -2.0404867953    -1.0718301655     0.4102582810
 ----------------------------------------------------------------
 Nuclear Repulsion Energy =   300.8895103066 hartrees
 There are       29 alpha and       29 beta electrons

                       Distance Matrix (Angstroms)
             S (  1)   S (  2)   C (  3)   C (  4)   C (  5)   H (  6)
   S (  2)  3.386699
   C (  3)  1.853170  2.592316
   C (  4)  2.850822  1.400454  1.568902
   C (  5)  2.798864  3.880283  1.535405  2.566627
   H (  6)  2.368160  2.820473  1.094790  2.171080  2.164030
   H (  7)  3.061671  2.136863  2.121533  1.108135  2.665678  3.026757
   H (  8)  3.762094  2.014501  2.112089  1.101313  2.657170  2.448099
   H (  9)  3.777209  4.093798  2.174967  2.787700  1.097616  2.518610
   H ( 10)  3.038023  4.197435  2.182235  2.836792  1.094963  3.079579
   H ( 11)  2.971101  4.740918  2.185081  3.525281  1.091894  2.506142
   H ( 12)  1.351580  3.711975  2.397662  2.993137  2.899914  3.293927
   H ( 13)  2.839334  1.354784  2.878970  2.156065  4.273200  3.240547
             H (  7)   H (  8)   H (  9)   H ( 10)   H ( 11)   H ( 12)
   H (  8)  1.736252
   H (  9)  2.981931  2.418401
   H ( 10)  2.479994  3.040939  1.770422
   H ( 11)  3.687093  3.656200  1.773124  1.770713
   H ( 12)  2.689885  3.930194  3.911819  2.623080  3.245040
   H ( 13)  2.536871  3.118246  4.788092  4.453118  5.000308  3.111861

 
 Applying Cartesian multipole field
    Component          Value
    ---------          -----
     (2,0,0)        1.00000E-11
     (0,2,0)        2.00000E-11
     (0,0,2)       -3.00000E-10
 Nucleus-field energy     =    -0.0000000006 hartrees
 Requested basis set is 6-31G(d,p)
 There are 46 shells and 123 basis functions
 A cutoff of  1.0D-14 yielded   1038 shell pairs
 There are      7581 function pairs
 Smallest overlap matrix eigenvalue = 5.09E-03
 Guess from superposition of atomic densities
 Warning:  Energy on first SCF cycle will be non-variational
 SAD guess density has 58.000000 electrons

 -----------------------------------------------------------------------
  General SCF calculation program by
  Eric Jon Sundstrom, Paul Horn, Yuezhi Mao, Dmitri Zuev, Alec White,
  David Stuck, Shaama M.S., Shane Yost, Joonho Lee, David Small,
  Daniel Levine, Susi Lehtola, Hugh Burton, Evgeny Epifanovsky
 -----------------------------------------------------------------------
 Exchange:     0.2000 Hartree-Fock + 0.0800 Slater + 0.7200 B88
 Correlation:  0.1900 VWN1RPA + 0.8100 LYP
 Using SG-1 standard quadrature grid
 using 12 threads for integral computing
 -------------------------------------------------------
 OpenMP Integral computing Module                
 Release: version 1.0, May 2013, Q-Chem Inc. Pittsburgh 
 -------------------------------------------------------
 -------------------------------------------------------
 OpenMP BLAS3 based DFT computing Module                
 Release: version 1.0, May 2013, Q-Chem Inc. Pittsburgh 
 -------------------------------------------------------
 A unrestricted SCF calculation will be
 performed using DIIS
 SCF converges when DIIS error is below 1.0e-06
 Alpha HF Exchange    Energy =  -6.91612192526659
 Beta HF Exchange     Energy =  -6.91612192526659
 DFT Correlation      Energy =  -2.72699575863829
 DFT Exchange         Energy = -53.99342702458065
 One-Electron (alpha) Energy = -926.47266664700851
 One-Electron (beta)  Energy = -926.47266664700851
 Total Coulomb        Energy = 705.90273680507096
 ---------------------------------------
  Cycle       Energy         DIIS error
 ---------------------------------------
    1    -916.7057528167      3.44e-02  
 Alpha HF Exchange    Energy =  -6.89181345946462
 Beta HF Exchange     Energy =  -6.89181345946463
 DFT Correlation      Energy =  -2.75696335478718
[...]
    2      S      -2.0845510176     0.2331914698    -0.0972609833
    3      C       0.5095495351     0.0385947556    -0.3191627200
    4      C      -0.8133030813     0.6724638306     0.2912860110
    5      C       1.7543393636     0.8489625837     0.0337405551
    6      H       0.3800552020    -0.0103278597    -1.4067213727
    7      H      -0.5711716091     0.7341878341     1.3808884906
    8      H      -0.7110356777     1.7335307764     0.0024285948
    9      H       1.6521181086     1.8792344948    -0.3287967312
   10      H       1.9024539089     0.8922538876     1.1188330412
   11      H       2.6520382749     0.4151976816    -0.4123225408
   12      H       0.9877907341    -1.5102327583     1.4528711190
   13      H      -2.0962847423    -1.0613719971     0.3139619531
 ----------------------------------------------------------------
 Nuclear Repulsion Energy =   300.1631342475 hartrees
 There are       29 alpha and       29 beta electrons

                       Distance Matrix (Angstroms)
             S (  1)   S (  2)   C (  3)   C (  4)   C (  5)   H (  6)
   S (  2)  3.404706
   C (  3)  1.850133  2.610836
   C (  4)  2.839685  1.400000  1.588829
   C (  5)  2.807343  3.890169  1.526676  2.586555
   H (  6)  2.352660  2.801477  1.096333  2.184843  2.168402
   H (  7)  3.029367  2.173992  2.131193  1.117887  2.689978  3.038076
   H (  8)  3.744777  2.036541  2.113305  1.104428  2.619449  2.493437
   H (  9)  3.780410  4.089714  2.166451  2.814089  1.096970  2.520022
   H ( 10)  3.058296  4.220125  2.176407  2.847539  1.096010  3.083955
   H ( 11)  2.978680  4.750544  2.177330  3.545397  1.092240  2.516308
   H ( 12)  1.350077  3.857683  2.401601  3.058984  2.857854  3.285776
   H ( 13)  2.860139  1.358358  2.898473  2.157022  4.307576  3.193384
             H (  7)   H (  8)   H (  9)   H ( 10)   H ( 11)   H ( 12)
   H (  8)  1.708333
   H (  9)  3.029385  2.390698
   H ( 10)  2.492485  2.963855  1.769867
   H ( 11)  3.702221  3.635971  1.774886  1.770282
   H ( 12)  2.733673  3.938502  3.886407  2.592322  3.155305
   H ( 13)  2.586182  3.134876  4.807372  4.522652  5.025368  3.318149

 
 Applying Cartesian multipole field
    Component          Value
    ---------          -----
     (2,0,0)        1.00000E-11
     (0,2,0)        2.00000E-11
     (0,0,2)       -3.00000E-10
 Nucleus-field energy     =    -0.0000000008 hartrees
 Requested basis set is 6-31G(d,p)
 There are 46 shells and 123 basis functions
 A cutoff of  1.0D-14 yielded   1037 shell pairs
 There are      7580 function pairs
 Smallest overlap matrix eigenvalue = 5.17E-03
 Guess from superposition of atomic densities
 Warning:  Energy on first SCF cycle will be non-variational
 SAD guess density has 58.000000 electrons

 -----------------------------------------------------------------------
  General SCF calculation program by
  Eric Jon Sundstrom, Paul Horn, Yuezhi Mao, Dmitri Zuev, Alec White,
  David Stuck, Shaama M.S., Shane Yost, Joonho Lee, David Small,
  Daniel Levine, Susi Lehtola, Hugh Burton, Evgeny Epifanovsky
 -----------------------------------------------------------------------
 Exchange:     0.2000 Hartree-Fock + 0.0800 Slater + 0.7200 B88
 Correlation:  0.1900 VWN1RPA + 0.8100 LYP
 Using SG-1 standard quadrature grid
 using 12 threads for integral computing
 -------------------------------------------------------
 OpenMP Integral computing Module                
 Release: version 1.0, May 2013, Q-Chem Inc. Pittsburgh 
 -------------------------------------------------------
 -------------------------------------------------------
 OpenMP BLAS3 based DFT computing Module                
 Release: version 1.0, May 2013, Q-Chem Inc. Pittsburgh 
 -------------------------------------------------------
 A unrestricted SCF calculation will be
 performed using DIIS
 SCF converges when DIIS error is below 1.0e-06
 Alpha HF Exchange    Energy =  -6.91373002892476
 Beta HF Exchange     Energy =  -6.91373002892476
 DFT Correlation      Energy =  -2.72641908188654
 DFT Exchange         Energy = -53.98897808266608
 One-Electron (alpha) Energy = -925.75655466659339
 One-Electron (beta)  Energy = -925.75655466659339
 Total Coulomb        Energy = 705.20560248004347
 ---------------------------------------
  Cycle       Energy         DIIS error
 ---------------------------------------
    1    -916.6872298289      3.42e-02  
 Alpha HF Exchange    Energy =  -6.89046647113836
 Beta HF Exchange     Energy =  -6.89046647113835
 DFT Correlation      Energy =  -2.75634605662215
 DFT Exchange         Energy = -54.66848276432950
 One-Electron (alpha) Energy = -930.41397795825924
 One-Electron (beta)  Energy = -930.41397795825901
 Total Coulomb        Energy = 716.57135833134987
    2    -915.2992251017      3.42e-03  
 Alpha HF Exchange    Energy =  -6.82343941944906
 Beta HF Exchange     Energy =  -6.82343941944906
 DFT Correlation      Energy =  -2.72472136150915
 DFT Exchange         Energy = -54.10459587442094
 One-Electron (alpha) Energy = -924.78578025407978
 One-Electron (beta)  Energy = -924.78578025407990
 Total Coulomb        Energy = 704.62375184753580
    3    -915.2608704888      4.06e-03  
 Alpha HF Exchange    Energy =  -6.85670465133309
 Beta HF Exchange     Energy =  -6.85670465133309
 DFT Correlation      Energy =  -2.74138907283653
 DFT Exchange         Energy = -54.38310366544781
 One-Electron (alpha) Energy = -927.84679702027108
 One-Electron (beta)  Energy = -927.84679702027074
 Total Coulomb        Energy = 710.97610950366345
    4    -915.3922523311      4.84e-04  
 Alpha HF Exchange    Energy =  -6.85769909896422
 Beta HF Exchange     Energy =  -6.85769909896423
 DFT Correlation      Energy =  -2.74133151917906
 DFT Exchange         Energy = -54.38979247468195
 One-Electron (alpha) Energy = -927.82665906334501
 One-Electron (beta)  Energy = -927.82665906334557
 Total Coulomb        Energy = 710.94263214372393
    5    -915.3940739281      1.66e-04  
 Alpha HF Exchange    Energy =  -6.85755558697921
 Beta HF Exchange     Energy =  -6.85755558697921
 DFT Correlation      Energy =  -2.74132331195675
 DFT Exchange         Energy = -54.38888675207363
 One-Electron (alpha) Energy = -927.82519072890068
 One-Electron (beta)  Energy = -927.82519072890079
 Total Coulomb        Energy = 710.93829847829682
    6    -915.3942699708      4.32e-05  
 Alpha HF Exchange    Energy =  -6.85739626434464
 Beta HF Exchange     Energy =  -6.85739626434464
 DFT Correlation      Energy =  -2.74125708740492
 DFT Exchange         Energy = -54.38751136171310
 One-Electron (alpha) Energy = -927.81142351097344
 One-Electron (beta)  Energy = -927.81142351097424
 Total Coulomb        Energy = 710.90899060192589
    7    -915.3942831511      1.28e-05  
 Alpha HF Exchange    Energy =  -6.85744012267964
 Beta HF Exchange     Energy =  -6.85744012267965
 DFT Correlation      Energy =  -2.74127818469778
 DFT Exchange         Energy = -54.38786700681610
 One-Electron (alpha) Energy = -927.81600492309326
 One-Electron (beta)  Energy = -927.81600492309326
 Total Coulomb        Energy = 710.91861661063194
    8    -915.3942844257      1.94e-06  
 Alpha HF Exchange    Energy =  -6.85744755897121
 Beta HF Exchange     Energy =  -6.85744755897123
 DFT Correlation      Energy =  -2.74128026064212
 DFT Exchange         Energy = -54.38792269600302
 One-Electron (alpha) Energy = -927.81681755444197
 One-Electron (beta)  Energy = -927.81681755444265
 Total Coulomb        Energy = 710.92031448269540
    9    -915.3942844541      6.27e-07  Convergence criterion met
 ---------------------------------------
 SCF time:   CPU 28.95s  wall 2.00s 
<S^2> =          0.000000000
 Alpha HF Exchange    Energy =  -6.85744755897121
 Beta HF Exchange     Energy =  -6.85744755897123
 DFT Correlation      Energy =  -2.74128026064212
 DFT Exchange         Energy = -54.38792269600302
 One-Electron (alpha) Energy = -927.81681755444197
 One-Electron (beta)  Energy = -927.81681755444265
 Total Coulomb        Energy = 710.92031448269540
 Nuclear repulsion Energy = 300.16313424668891
 SCF   energy in the final basis set =     -915.3942844541
 Total energy in the final basis set =     -915.3942844541
 
 --------------------------------------------------------------
 
                    Orbital Energies (a.u.)
 --------------------------------------------------------------
 
 Alpha MOs
 -- Occupied --
-88.879 -88.855 -10.233 -10.208 -10.194  -7.941  -7.932  -5.906
 -5.902  -5.897  -5.896  -5.892  -5.886  -0.900  -0.799  -0.712
 -0.639  -0.589  -0.512  -0.458  -0.446  -0.432  -0.408  -0.391
 -0.360  -0.333  -0.301  -0.249  -0.219
 -- Virtual --
  0.022   0.052   0.067   0.073   0.105   0.125   0.131   0.153
  0.173   0.175   0.189   0.221   0.325   0.336   0.357   0.375
  0.377   0.392   0.434   0.449   0.517   0.531   0.554   0.600
  0.621   0.638   0.676   0.701   0.721   0.724   0.755   0.769
  0.773   0.812   0.827   0.853   0.870   0.880   0.902   0.936
  0.949   0.968   1.032   1.089   1.103   1.133   1.184   1.400
  1.409   1.421   1.442   1.586   1.644   1.745   1.788   1.807
  1.857   1.955   2.031   2.054   2.060   2.087   2.090   2.092
  2.114   2.135   2.194   2.238   2.295   2.357   2.408   2.463
  2.499   2.572   2.622   2.676   2.721   2.741   2.747   2.787
  2.814   2.861   2.881   3.174   3.226   3.320   3.432   3.435
  3.473   3.980   4.041   4.278   4.488   4.619
 
 Beta MOs
 -- Occupied --
-88.879 -88.855 -10.233 -10.208 -10.194  -7.941  -7.932  -5.906
 -5.902  -5.897  -5.896  -5.892  -5.886  -0.900  -0.799  -0.712
 -0.639  -0.589  -0.512  -0.458  -0.446  -0.432  -0.408  -0.391
 -0.360  -0.333  -0.301  -0.249  -0.219
 -- Virtual --
  0.022   0.052   0.067   0.073   0.105   0.125   0.131   0.153
  0.173   0.175   0.189   0.221   0.325   0.336   0.357   0.375
  0.377   0.392   0.434   0.449   0.517   0.531   0.554   0.600
  0.621   0.638   0.676   0.701   0.721   0.724   0.755   0.769
  0.773   0.812   0.827   0.853   0.870   0.880   0.902   0.936
  0.949   0.968   1.032   1.089   1.103   1.133   1.184   1.400
  1.409   1.421   1.442   1.586   1.644   1.745   1.788   1.807
  1.857   1.955   2.031   2.054   2.060   2.087   2.090   2.092
  2.114   2.135   2.194   2.238   2.295   2.357   2.408   2.463
  2.499   2.572   2.622   2.676   2.721   2.741   2.747   2.787
  2.814   2.861   2.881   3.174   3.226   3.320   3.432   3.435
  3.473   3.980   4.041   4.278   4.488   4.619
 --------------------------------------------------------------
 
          Ground-State Mulliken Net Atomic Charges

     Atom                 Charge (a.u.)    Spin (a.u.)
  --------------------------------------------------------
      1 S                    -0.052760      -0.000000
      2 S                    -0.012994      -0.000000
      3 C                    -0.230028      -0.000000
      4 C                    -0.256865       0.000000
      5 C                    -0.312547       0.000000
      6 H                     0.144914      -0.000000
      7 H                     0.102682      -0.000000
      8 H                     0.148327       0.000000
      9 H                     0.109746       0.000000
     10 H                     0.110720       0.000000
     11 H                     0.131081      -0.000000
     12 H                     0.057598       0.000000
     13 H                     0.060127       0.000000
  --------------------------------------------------------
  Sum of atomic charges =    -0.000000
  Sum of spin   charges =    -0.000000

 -----------------------------------------------------------------
                    Cartesian Multipole Moments
 -----------------------------------------------------------------
    Charge (ESU x 10^10)
                 0.0000
    Dipole Moment (Debye)
         X       1.4086      Y       1.4172      Z       0.9531
       Tot       2.2138
    Quadrupole Moments (Debye-Ang)
        XX     -51.3766     XY       2.7726     YY     -47.7899
        XZ      -0.0244     YZ      -1.7717     ZZ     -45.2566
    Octopole Moments (Debye-Ang^2)
       XXX      32.6490    XXY       5.6661    XYY       3.1695
       YYY      37.6851    XXZ      -0.4559    XYZ      -1.4178
       YYZ      -0.4228    XZZ      11.8114    YZZ       6.4451
       ZZZ      -4.6817
    Hexadecapole Moments (Debye-Ang^3)
      XXXX    -669.6817   XXXY      63.4465   XXYY    -173.2716
      XYYY      39.2759   YYYY    -386.1851   XXXZ      -7.5083
      XXYZ      -0.5725   XYYZ       2.3276   YYYZ       2.1939
      XXZZ    -126.8322   XYZZ      10.5567   YYZZ     -75.4757
      XZZZ      -6.6012   YZZZ       8.4671   ZZZZ     -93.0090
 -----------------------------------------------------------------
 Calculating analytic gradient of the SCF energy
 Gradient of SCF Energy
            1           2           3           4           5           6
    1  -0.0000676   0.4215496  -0.0001549  -0.4216513   0.0000982   0.0001327
    2   0.0000245   0.1457829  -0.0000295  -0.1456665   0.0000199   0.0000038
    3   0.0000091   0.1288170   0.0000018  -0.1287810  -0.0000174  -0.0000844
            7           8           9          10          11          12
    1   0.0000427   0.0000510  -0.0000125   0.0000291  -0.0000427  -0.0000043
    2   0.0000025  -0.0000120   0.0000036  -0.0000799  -0.0000124  -0.0000343
    3   0.0001376  -0.0000569   0.0000863   0.0000242  -0.0000416  -0.0000536
           13
    1   0.0000302
    2  -0.0000026
    3  -0.0000411
 Max gradient component =       4.217E-01
 RMS gradient           =       1.051E-01
 Gradient time:  CPU 11.93 s  wall 1.07 s
 Geometry Optimization Parameters
   NAtoms,    NIC,     NZ,  NCons,   NDum,   NFix, NCnnct, MaxDiis
       13      82       0       1       0       0       0       0

 Cartesian Hessian Update
 Hessian Updated using BFGS Update


** CONSTRAINED OPTIMIZATION IN DELOCALIZED INTERNAL COORDINATES **
   Searching for a Minimum

   Optimization Cycle:  17

                       Coordinates (Angstroms)
     ATOM                X               Y               Z
      1  S         0.6777010008   -1.7406846990    0.1592545831
      2  S        -2.0845510176    0.2331914698   -0.0972609833
      3  C         0.5095495351    0.0385947556   -0.3191627200
      4  C        -0.8133030813    0.6724638306    0.2912860110
      5  C         1.7543393636    0.8489625837    0.0337405551
      6  H         0.3800552020   -0.0103278597   -1.4067213727
      7  H        -0.5711716091    0.7341878341    1.3808884906
      8  H        -0.7110356777    1.7335307764    0.0024285948
      9  H         1.6521181086    1.8792344948   -0.3287967312
     10  H         1.9024539089    0.8922538876    1.1188330412
     11  H         2.6520382749    0.4151976816   -0.4123225408
     12  H         0.9877907341   -1.5102327583    1.4528711190
     13  H        -2.0962847423   -1.0613719971    0.3139619531
   Point Group: c1    Number of degrees of freedom:    33


   Energy is   -915.394284454

              Constraints and their Current Values
                                        Value     Constraint
   Distance(Angs):        2   4             1.400000     1.400000
 Hessian Updated using BFGS Update

 32 Hessian modes will be used to form the next step
  Hessian Eigenvalues:
     0.005635    0.019848    0.083136    0.109584    0.113046    0.139955
     0.191401    0.199449    0.205117    0.207405    0.209864    0.273075
     0.364165    0.394339    0.398605    0.401653    0.401855    0.407770
     0.430035    0.508098    0.532810    0.589091    0.627427    0.658971
     0.660464    0.736127    0.830709    0.855546    0.856788    0.857158
     0.857622    0.857934

 Minimum Search - Taking Simple RFO Step
 Searching for Lamda that Minimizes Along All modes
 Value Taken    Lamda =   0.00000000
 Step Taken.  Stepsize is  0.005403

                             Maximum     Tolerance    Cnvgd?
         Gradient           0.000156      0.000300     YES
         Displacement       0.002927      0.001200      NO
         Energy change     -0.000001      0.000001     YES


                       Distance Matrix (Angstroms)
             S (  1)   S (  2)   C (  3)   C (  4)   C (  5)   H (  6)
   S (  2)  3.404706
   C (  3)  1.850133  2.610836
   C (  4)  2.839685  1.400000  1.588829
   C (  5)  2.807343  3.890169  1.526676  2.586555
   H (  6)  2.352660  2.801477  1.096333  2.184843  2.168402
   H (  7)  3.029367  2.173992  2.131193  1.117887  2.689978  3.038076
   H (  8)  3.744777  2.036541  2.113305  1.104428  2.619449  2.493437
   H (  9)  3.780410  4.089714  2.166451  2.814089  1.096970  2.520022
   H ( 10)  3.058296  4.220125  2.176407  2.847539  1.096010  3.083955
   H ( 11)  2.978680  4.750544  2.177330  3.545397  1.092240  2.516308
   H ( 12)  1.350077  3.857683  2.401601  3.058984  2.857854  3.285776
   H ( 13)  2.860139  1.358358  2.898473  2.157022  4.307576  3.193384
             H (  7)   H (  8)   H (  9)   H ( 10)   H ( 11)   H ( 12)
   H (  8)  1.708333
   H (  9)  3.029385  2.390698
   H ( 10)  2.492485  2.963855  1.769867
   H ( 11)  3.702221  3.635971  1.774886  1.770282
   H ( 12)  2.733673  3.938502  3.886407  2.592322  3.155305
   H ( 13)  2.586182  3.134876  4.807372  4.522652  5.025368  3.318149

 
 Final energy is   -915.394284454088     


 ******************************
 **  OPTIMIZATION CONVERGED  **
 ******************************

                       Coordinates (Angstroms)
     ATOM                X               Y               Z
      1  S         0.6777010008   -1.7406846990    0.1592545831
      2  S        -2.0845510176    0.2331914698   -0.0972609833
      3  C         0.5095495351    0.0385947556   -0.3191627200
      4  C        -0.8133030813    0.6724638306    0.2912860110
      5  C         1.7543393636    0.8489625837    0.0337405551
      6  H         0.3800552020   -0.0103278597   -1.4067213727
      7  H        -0.5711716091    0.7341878341    1.3808884906
      8  H        -0.7110356777    1.7335307764    0.0024285948
      9  H         1.6521181086    1.8792344948   -0.3287967312
     10  H         1.9024539089    0.8922538876    1.1188330412
     11  H         2.6520382749    0.4151976816   -0.4123225408
     12  H         0.9877907341   -1.5102327583    1.4528711190
     13  H        -2.0962847423   -1.0613719971    0.3139619531

Z-matrix Print:
$molecule
0 1
S 
H  1 1.358358
C  1 1.400000 2 102.876756
H  3 1.104428 1 108.236596 2 -179.536630 0
H  3 1.117887 1 118.980632 2 -65.874880 0
C  3 1.588829 1 121.615455 2 63.259590 0
H  6 1.096333 3 107.493530 1 46.978210 0
C  6 1.526676 3 112.227468 1 168.608540 0
H  8 1.092240 6 111.403312 3 -178.625814 0
H  8 1.096010 6 111.100764 3 60.914885 0
H  8 1.096970 6 110.252426 3 -58.307893 0
S  6 1.850133 3 111.099870 1 -64.967799 0
H  12 1.350077 6 95.997663 3 -72.265618 0
$end

PES scan, value:    1.4000 energy: -915.3942844541
------- Summary of potential scan: ------ 
    1.4000      -915.3942844541
----------------------------------------- 
Archival summary:
1\1\hpc0250\JobtypUnspecified\ProcedureUnspecified\6-31G**\238\knomura\WedMar1323:27:442019WedMar1323:27:442019\0\\#,JobtypUnspecified,ProcedureUnspecified,6-31G**,\\0,1\S\H,1,1.35836\C,1,1.4,2,102.877\H,3,1.10443,1,108.237,2,-179.537,0\H,3,1.11789,1,118.981,2,-65.8749,0\C,3,1.58883,1,121.615,2,63.2596,0\H,6,1.09633,3,107.494,1,46.9782,0\C,6,1.52668,3,112.227,1,168.609,0\H,8,1.09224,6,111.403,3,-178.626,0\H,8,1.09601,6,111.101,3,60.9149,0\H,8,1.09697,6,110.252,3,-58.3079,0\S,6,1.85013,3,111.1,1,-64.9678,0\H,12,1.35008,6,95.9977,3,-72.2656,0\\\@

 Total job time:  68.77s(wall), 788.49s(cpu) 
 Wed Mar 13 23:27:44 2019

        *************************************************************
        *                                                           *
        *  Thank you very much for using Q-Chem.  Have a nice day.  *
        *                                                           *
        *************************************************************


