
Running Job 1 of 1 thiol/03/C-S.xyz.data/inputs/bond_triplet_2.9.in
qchem thiol/03/C-S.xyz.data/inputs/bond_triplet_2.9.in_30026.0 /staging/scratch/2868767/qchem30026/ 1
/usr/usc/qchem/5.1.1/exe/qcprog.exe_s thiol/03/C-S.xyz.data/inputs/bond_triplet_2.9.in_30026.0 /staging/scratch/2868767/qchem30026/
Check license passed

                  Welcome to Q-Chem
     A Quantum Leap Into The Future Of Chemistry


 Q-Chem 5.1, Q-Chem, Inc., Pleasanton, CA (2018)

 Yihan Shao,  Zhengting Gan,  E. Epifanovsky,  A. T. B. Gilbert,  M. Wormit,  
 J. Kussmann,  A. W. Lange,  A. Behn,  Jia Deng,  Xintian Feng,  D. Ghosh,  
 M. Goldey,  P. R. Horn,  L. D. Jacobson,  I. Kaliman,  T. Kus,  A. Landau,  
 Jie Liu,  E. I. Proynov,  R. M. Richard,  R. P. Steele,  E. J. Sundstrom,  
 H. L. Woodcock III,  P. M. Zimmerman,  D. Zuev,  B. Albrecht,  E. Alguire,  
 S. A. Baeppler,  D. Barton,  Z. Benda,  Y. A. Bernard,  E. J. Berquist,  
 K. B. Bravaya,  H. Burton,  D. Casanova,  Chun-Min Chang,  Yunqing Chen,  
 A. Chien,  K. D. Closser,  M. P. Coons,  S. Coriani,  S. Dasgupta,  
 A. L. Dempwolff,  M. Diedenhofen,  Hainam Do,  R. G. Edgar,  Po-Tung Fang,  
 S. Faraji,  S. Fatehi,  Qingguo Feng,  K. D. Fenk,  J. Fosso-Tande,  
 Qinghui Ge,  A. Ghysels,  G. Gidofalvi,  J. Gomes,  J. Gonthier,  A. Gunina,  
 D. Hait,  M. W. D. Hanson-Heine,  P. H. P. Harbach,  A. W. Hauser,  
 J. E. Herr,  E. G. Hohenstein,  Z. C. Holden,  Kerwin Hui,  B. C. Huynh,  
 T.-C. Jagau,  Hyunjun Ji,  B. Kaduk,  K. Khistyaev,  Jaehoon Kim,  
 P. Klunzinger,  K. Koh,  D. Kosenkov,  L. Koulias,  T. Kowalczyk,  
 C. M. Krauter,  A. Kunitsa,  Ka Un Lao,  A. Laurent,  K. V. Lawler,  
 Joonho Lee,  D. Lefrancois,  S. Lehtola,  D. S. Levine,  Yi-Pei Li,  
 You-Sheng Lin,  Fenglai Liu,  E. Livshits,  A. Luenser,  P. Manohar,  
 E. Mansoor,  S. F. Manzer,  Shan-Ping Mao,  Yuezhi Mao,  N. Mardirossian,  
 A. V. Marenich,  T. Markovich,  L. A. Martinez-Martinez,  S. A. Maurer,  
 N. J. Mayhall,  S. C. McKenzie,  J.-M. Mewes,  A. F. Morrison,  
 J. W. Mullinax,  K. Nanda,  T. S. Nguyen-Beck,  R. Olivares-Amaya,  
 J. A. Parkhill,  T. M. Perrine,  F. Plasser,  P. Pokhilko,  S. Prager,  
 A. Prociuk,  E. Ramos,  D. R. Rehn,  F. Rob,  M. Schneider,  N. Sergueev,  
 S. M. Sharada,  S. Sharma,  D. W. Small,  T. Stauch,  T. Stein,  
 Yu-Chuan Su,  A. J. W. Thom,  A. Tkatchenko,  T. Tsuchimochi,  N. M. Tubman,  
 L. Vogt,  M. L. Vidal,  O. Vydrov,  M. A. Watson,  J. Wenzel,  
 M. de Wergifosse,  T. A. Wesolowski,  A. White,  J. Witte,  A. Yamada,  
 Jun Yang,  K. Yao,  S. Yeganeh,  S. R. Yost,  Zhi-Qiang You,  A. Zech,  
 Igor Ying Zhang,  Xing Zhang,  Yan Zhao,  Ying Zhu,  B. R. Brooks,  
 G. K. L. Chan,  C. J. Cramer,  M. S. Gordon,  W. J. Hehre,  A. Klamt,  
 M. W. Schmidt,  C. D. Sherrill,  D. G. Truhlar,  A. Aspuru-Guzik,  R. Baer,  
 A. T. Bell,  N. A. Besley,  Jeng-Da Chai,  A. E. DePrince, III,  
 R. A. DiStasio Jr.,  A. Dreuw,  B. D. Dunietz,  T. R. Furlani,  
 Chao-Ping Hsu,  Yousung Jung,  Jing Kong,  D. S. Lambrecht,  WanZhen Liang,  
 C. Ochsenfeld,  V. A. Rassolov,  L. V. Slipchenko,  J. E. Subotnik,  
 T. Van Voorhis,  J. M. Herbert,  A. I. Krylov,  P. M. W. Gill,  M. Head-Gordon

 Contributors to earlier versions of Q-Chem not listed above: 
 R. D. Adamson,  B. Austin,  J. Baker,  G. J. O. Beran,  K. Brandhorst,  
 S. T. Brown,  E. F. C. Byrd,  A. K. Chakraborty,  C.-L. Cheng,  
 Siu Hung Chien,  D. M. Chipman,  D. L. Crittenden,  H. Dachsel,  
 R. J. Doerksen,  A. D. Dutoi,  L. Fusti-Molnar,  W. A. Goddard III,  
 A. Golubeva-Zadorozhnaya,  S. R. Gwaltney,  G. Hawkins,  A. Heyden,  
 S. Hirata,  G. Kedziora,  F. J. Keil,  C. Kelley,  Jihan Kim,  R. A. King,  
 R. Z. Khaliullin,  P. P. Korambath,  W. Kurlancheek,  A. M. Lee,  M. S. Lee,  
 S. V. Levchenko,  Ching Yeh Lin,  D. Liotard,  R. C. Lochan,  I. Lotan,  
 P. E. Maslen,  N. Nair,  D. P. O'Neill,  D. Neuhauser,  E. Neuscamman,  
 C. M. Oana,  R. Olson,  B. Peters,  R. Peverati,  P. A. Pieniazek,  
 Y. M. Rhee,  J. Ritchie,  M. A. Rohrdanz,  E. Rosta,  N. J. Russ,  
 H. F. Schaefer III,  N. E. Schultz,  N. Shenvi,  A. C. Simmonett,  A. Sodt,  
 D. Stuck,  K. S. Thanthiriwatte,  V. Vanovschi,  Tao Wang,  A. Warshel,  
 C. F. Williams,  Q. Wu,  X. Xu,  W. Zhang

 Please cite Q-Chem as follows:
 Y. Shao et al., Mol. Phys. 113, 184-215 (2015)
 DOI: 10.1080/00268976.2014.952696

 Q-Chem 5.1.1 for Intel X86 EM64T Linux

 Parts of Q-Chem use Armadillo 8.300.2 (Tropical Shenanigans).
 http://arma.sourceforge.net/

 Q-Chem begins on Thu Mar 14 01:44:50 2019  

Host: 
0

     Scratch files written to /staging/scratch/2868767/qchem30026//
 Aug318 |scratch|qcdevops|jenkins|workspace|build_RNUM 6013   
Processing $rem in /usr/usc/qchem/5.1.1/config/preferences.
 MEM_TOTAL  2000 
Input Ideriv = 2
Curr. Ideriv = -1
Max.  Ideriv = 2

Checking the input file for inconsistencies... 	...done.

--------------------------------------------------------------
User input:
--------------------------------------------------------------

$comment
potential surface scanner
$end

$rem
JOBTYPE  PES_SCAN
UNRESTRICTED TRUE
SYM_IGNORE  TRUE
GEOM_OPT_MAX_CYCLES 400
SCF_MAX_CYCLES 400
METHOD   B3LYP
BASIS   6-31G**
PDB_PRINT 2
SCF_CONVERGENCE 6
THRESH 14
SCF_PRINT 1
$end
$molecule
0 3
S 0.267944 -1.351096 -0.283883
S -2.529203 -0.768799 0.360638
C 0.673700 0.530857 -0.329548
C -0.353197 1.296197 0.388775
C 2.100548 0.742977 0.178023
H 0.617053 0.714679 -1.406491
H -0.293911 1.405742 1.466986
H -1.234669 1.662585 -0.119102
H 2.386913 1.790591 0.036442
H 2.172963 0.519427 1.247601
H 2.814429 0.111178 -0.356306
H 0.469607 -1.509069 1.039404
H -2.852475 -2.020271 -0.033542
$end
$scan
stre 2 4 2.900000 2.901000 0.100000
$end
--------------------------------------------------------------
 ----------------------------------------------------------------
             Standard Nuclear Orientation (Angstroms)
    I     Atom           X                Y                Z
 ----------------------------------------------------------------
    1      S       0.2679440000    -1.3510960000    -0.2838830000
    2      S      -2.5292030000    -0.7687990000     0.3606380000
    3      C       0.6737000000     0.5308570000    -0.3295480000
    4      C      -0.3531970000     1.2961970000     0.3887750000
    5      C       2.1005480000     0.7429770000     0.1780230000
    6      H       0.6170530000     0.7146790000    -1.4064910000
    7      H      -0.2939110000     1.4057420000     1.4669860000
    8      H      -1.2346690000     1.6625850000    -0.1191020000
    9      H       2.3869130000     1.7905910000     0.0364420000
   10      H       2.1729630000     0.5194270000     1.2476010000
   11      H       2.8144290000     0.1111780000    -0.3563060000
   12      H       0.4696070000    -1.5090690000     1.0394040000
   13      H      -2.8524750000    -2.0202710000    -0.0335420000
 ----------------------------------------------------------------
 Nuclear Repulsion Energy =   273.6405067505 hartrees
 There are       30 alpha and       28 beta electrons
 Requested basis set is 6-31G(d,p)
 There are 46 shells and 123 basis functions

 Total QAlloc Memory Limit   2000 MB
 Mega-Array Size       188 MB
 MEM_STATIC part       192 MB
A total of 1 constraints
  
            1
    1   1.0100000
    2   2.0100000
    3   4.0100000
    4   2.9000000
    5   2.9010000
    6   0.1000000
    7   0.0000000
    8   0.0000000
    9   0.0000000
   10   0.0000000

                       Distance Matrix (Angstroms)
             S (  1)   S (  2)   C (  3)   C (  4)   C (  5)   H (  6)
   S (  2)  2.928909
   C (  3)  1.925739  3.524777
   C (  4)  2.801151  3.000000  1.468418
   C (  5)  2.820804  4.873747  1.529222  2.524150
   H (  6)  2.376879  3.901587  1.093986  2.121916  2.170770
   H (  7)  3.313816  3.308952  2.220187  1.085382  2.798949  3.092619
   H (  8)  3.371538  2.795997  2.228670  1.081283  3.472410  2.446379
   H (  9)  3.803003  5.551916  2.157771  2.806558  1.095238  2.524291
   H ( 10)  3.077888  4.955461  2.176079  2.778928  1.095087  3.082723
   H ( 11)  2.937359  5.462854  2.181643  3.463130  1.092842  2.509096
   H ( 12)  1.347855  3.162528  2.465153  2.994969  2.910955  3.308957
   H ( 13)  3.201169  1.351320  4.362314  4.174171  5.675626  4.626291
             H (  7)   H (  8)   H (  9)   H ( 10)   H ( 11)   H ( 12)
   H (  8)  1.861899
   H (  9)  3.062904  3.627180
   H ( 10)  2.630428  3.845340  1.768768
   H ( 11)  3.829108  4.342617  1.776921  1.775011
   H ( 12)  3.043339  3.782338  3.945852  2.656984  3.173546
   H ( 13)  4.531600  4.023437  6.479101  5.774636  6.063089  3.528281

 
 A cutoff of  1.0D-14 yielded   1005 shell pairs
 There are      7391 function pairs
 
 -------------------------------------------------------
 OpenMP Integral Computing Module                       
 Release: version 1.0, May 2013, Q-Chem Inc. Pittsburgh 
 -------------------------------------------------------
 Integral Job Info:
 Integral job number is                      11
 Integral operator is                         1
 short-range coefficients                     0
 long-range coefficients              100000000
 Omega coefficients                           0
 if combine SR and LR in K                    0
 Integral screening is                        0
 Integral computing path is                   2
 max size of driver memory is            800000
 size of driver memory is                593474
 size of scratch memory is             15267112
 max col of scratch BK array               1296
 max len of scratch array in speh3          155
 max len of scratch index in speh4           18
 max int batch size is                      520
 min int batch size is                       52
 fixed nKL is                                52
 max L of basis functions is                  2
 order of int derivative is                   0
 number of shells is                         46
 number of basis is                         123
 number of cartesian basis is               123
 number of contracted shell pairs          1005
 number of primitive shell pairs           3782
 maxK2 (contraction) of shell pair           36
 max number of K2 of shell pair               1
 max number of CS2 of shell pair             84
 max number of PS2 of shell pair            378
 mem total for path MDJ                  519084
 -------------------------------------------------------
 Smallest overlap matrix eigenvalue = 5.75E-03

 Scale SEOQF with 1.000000e-01/1.000000e-01/1.000000e+00

 Standard Electronic Orientation quadrupole field applied
 Nucleus-field energy     =    -0.0000000022 hartrees
 Guess from superposition of atomic densities
 Warning:  Energy on first SCF cycle will be non-variational
 SAD guess density has 58.000000 electrons

 -----------------------------------------------------------------------
  General SCF calculation program by
  Eric Jon Sundstrom, Paul Horn, Yuezhi Mao, Dmitri Zuev, Alec White,
  David Stuck, Shaama M.S., Shane Yost, Joonho Lee, David Small,
  Daniel Levine, Susi Lehtola, Hugh Burton, Evgeny Epifanovsky
 -----------------------------------------------------------------------
 Exchange:     0.2000 Hartree-Fock + 0.0800 Slater + 0.7200 B88
 Correlation:  0.1900 VWN1RPA + 0.8100 LYP
 Using SG-1 standard quadrature grid
 using 12 threads for integral computing
 -------------------------------------------------------
 OpenMP Integral computing Module                
 Release: version 1.0, May 2013, Q-Chem Inc. Pittsburgh 
 -------------------------------------------------------
 -------------------------------------------------------
 OpenMP BLAS3 based DFT computing Module                
 Release: version 1.0, May 2013, Q-Chem Inc. Pittsburgh 
 -------------------------------------------------------
 A unrestricted SCF calculation will be
 performed using DIIS
 SCF converges when DIIS error is below 1.0e-06
 Alpha HF Exchange    Energy =  -6.82819402137445
 Beta HF Exchange     Energy =  -6.82819402137445
 DFT Correlation      Energy =  -2.70172055668846
 DFT Exchange         Energy = -53.81727402458397
 One-Electron (alpha) Energy = -899.59830210270320
 One-Electron (beta)  Energy = -899.59830210270320
 Total Coulomb        Energy = 679.90745250576435
 ---------------------------------------
  Cycle       Energy         DIIS error
 ---------------------------------------
    1    -915.8240275754      2.61e-02  
 Alpha HF Exchange    Energy =  -6.95694377412268
 Beta HF Exchange     Energy =  -6.75424152519838
 DFT Correlation      Energy =  -2.72280279220744
 DFT Exchange         Energy = -54.41886151330407
 One-Electron (alpha) Energy = -918.74519888903046
 One-Electron (beta)  Energy = -887.46651221277648
 Total Coulomb        Energy = 688.10999165257613
    2    -915.3140623058      3.21e-03  
 Alpha HF Exchange    Energy =  -6.90141507760714
 Beta HF Exchange     Energy =  -6.71843423425113
 DFT Correlation      Energy =  -2.69613769627363
 DFT Exchange         Energy = -54.01072912713533
 One-Electron (alpha) Energy = -915.52681656946311
 One-Electron (beta)  Energy = -884.92417146589810
 Total Coulomb        Energy = 681.89066824963857
    3    -915.2465291727      4.23e-03  
 Alpha HF Exchange    Energy =  -6.92682638222762
 Beta HF Exchange     Energy =  -6.72874332230807
 DFT Correlation      Energy =  -2.70728006339445
 DFT Exchange         Energy = -54.16842144849951
 One-Electron (alpha) Energy = -916.80366655220075
 One-Electron (beta)  Energy = -885.68867694804521
 Total Coulomb        Energy = 683.96652690034455
    4    -915.4165810680      5.53e-04  
 Alpha HF Exchange    Energy =  -6.93262593405673
 Beta HF Exchange     Energy =  -6.73516896486249
 DFT Correlation      Energy =  -2.70845844407309
 DFT Exchange         Energy = -54.21344641668366
 One-Electron (alpha) Energy = -917.24619351494084
 One-Electron (beta)  Energy = -886.13439760063682
 Total Coulomb        Energy = 684.91061771791567
    5    -915.4191664090      2.97e-04  
 Alpha HF Exchange    Energy =  -6.93226256527519
 Beta HF Exchange     Energy =  -6.73393800889989
 DFT Correlation      Energy =  -2.70793295724725
 DFT Exchange         Energy = -54.20646762362367
 One-Electron (alpha) Energy = -917.16387778756302
 One-Electron (beta)  Energy = -886.01333580576136
 Total Coulomb        Energy = 684.69724165646664
    6    -915.4200663436      6.77e-05  
 Alpha HF Exchange    Energy =  -6.93210802752591
 Beta HF Exchange     Energy =  -6.73393950175406
 DFT Correlation      Energy =  -2.70777760895247
 DFT Exchange         Energy = -54.20514217105240
 One-Electron (alpha) Energy = -917.14284449045635
 One-Electron (beta)  Energy = -885.99944143909067
 Total Coulomb        Energy = 684.66062537683047
    7    -915.4201211137      2.73e-05  
 Alpha HF Exchange    Energy =  -6.93233010978614
 Beta HF Exchange     Energy =  -6.73404881008410
 DFT Correlation      Energy =  -2.70776172382552
 DFT Exchange         Energy = -54.20622356885069
 One-Electron (alpha) Energy = -917.15636442076357
 One-Electron (beta)  Energy = -886.00809533060180
 Total Coulomb        Energy = 684.68418644997826
    8    -915.4201307656      9.81e-06  
 Alpha HF Exchange    Energy =  -6.93232786520493
 Beta HF Exchange     Energy =  -6.73407924241418
 DFT Correlation      Energy =  -2.70774848574951
 DFT Exchange         Energy = -54.20628178060279
 One-Electron (alpha) Energy = -917.15446301493466
 One-Electron (beta)  Energy = -886.00761120003381
 Total Coulomb        Energy = 684.68187299137583
    9    -915.4201318493      4.17e-06  
 Alpha HF Exchange    Energy =  -6.93231779294077
 Beta HF Exchange     Energy =  -6.73406017540221
 DFT Correlation      Energy =  -2.70773853419419
 DFT Exchange         Energy = -54.20615599191846
 One-Electron (alpha) Energy = -917.15256139837209
 One-Electron (beta)  Energy = -886.00574300998505
 Total Coulomb        Energy = 684.67793811863589
   10    -915.4201320359      1.60e-06  
 Alpha HF Exchange    Energy =  -6.93232596043264
 Beta HF Exchange     Energy =  -6.73406806077157
 DFT Correlation      Energy =  -2.70774183689484
 DFT Exchange         Energy = -54.20622320357204
 One-Electron (alpha) Energy = -917.15358669630245
 One-Electron (beta)  Energy = -886.00676271623729
 Total Coulomb        Energy = 684.68006964986512
   11    -915.4201320760      4.98e-07  Convergence criterion met
 ---------------------------------------
 SCF time:   CPU 34.44s  wall 2.00s 
<S^2> =          2.008587153
 Alpha HF Exchange    Energy =  -6.93232596043264
 Beta HF Exchange     Energy =  -6.73406806077157
 DFT Correlation      Energy =  -2.70774183689484
 DFT Exchange         Energy = -54.20622320357204
 One-Electron (alpha) Energy = -917.15358669630245
 One-Electron (beta)  Energy = -886.00676271623729
 Total Coulomb        Energy = 684.68006964986512
 Nuclear repulsion Energy = 273.64050674830435
 SCF   energy in the final basis set =     -915.4201320760
 Total energy in the final basis set =     -915.4201320760
 
 --------------------------------------------------------------
 
                    Orbital Energies (a.u.)
 --------------------------------------------------------------
 
 Alpha MOs
 -- Occupied --
-88.907 -88.855 -10.249 -10.208 -10.202  -7.969  -7.916  -5.933
 -5.929  -5.927  -5.885  -5.879  -5.870  -0.835  -0.733  -0.703
 -0.685  -0.592  -0.486  -0.453  -0.435  -0.417  -0.390  -0.378
 -0.366  -0.348  -0.311  -0.229  -0.222  -0.214
 -- Virtual --
  0.004   0.046   0.073   0.096   0.119   0.131   0.153   0.162
  0.186   0.222   0.248   0.296   0.324   0.336   0.367   0.390
  0.414   0.447   0.480   0.485   0.524   0.545   0.560   0.577
  0.611   0.656   0.687   0.711   0.736   0.743   0.768   0.780
  0.793   0.813   0.826   0.830   0.867   0.873   0.893   0.910
  0.924   0.937   0.952   1.046   1.113   1.120   1.162   1.189
  1.359   1.430   1.462   1.555   1.669   1.754   1.834   1.865
  1.915   1.967   2.012   2.031   2.073   2.085   2.090   2.097
  2.109   2.119   2.129   2.273   2.309   2.345   2.395   2.494
  2.549   2.582   2.624   2.690   2.725   2.735   2.748   2.820
  2.858   2.906   3.174   3.263   3.381   3.406   3.454   3.505
  3.952   3.985   4.247   4.386   4.584
 
 Beta MOs
 -- Occupied --
-88.905 -88.851 -10.250 -10.201 -10.195  -7.966  -7.912  -5.930
 -5.926  -5.921  -5.876  -5.870  -5.867  -0.826  -0.720  -0.682
 -0.655  -0.582  -0.481  -0.448  -0.428  -0.412  -0.384  -0.367
 -0.359  -0.336  -0.271  -0.217
 -- Virtual --
 -0.117  -0.077   0.015   0.055   0.086   0.098   0.121   0.141
  0.154   0.164   0.192   0.226   0.257   0.305   0.333   0.348
  0.379   0.399   0.423   0.470   0.486   0.492   0.535   0.559
  0.576   0.607   0.622   0.668   0.710   0.721   0.746   0.756
  0.775   0.788   0.818   0.826   0.839   0.849   0.875   0.877
  0.905   0.920   0.932   0.964   0.966   1.062   1.120   1.126
  1.174   1.197   1.377   1.430   1.496   1.562   1.676   1.755
  1.835   1.873   1.935   1.990   2.018   2.033   2.077   2.086
  2.096   2.099   2.109   2.124   2.136   2.279   2.310   2.348
  2.404   2.507   2.562   2.595   2.627   2.692   2.727   2.737
  2.751   2.822   2.859   2.909   3.175   3.266   3.386   3.408
  3.455   3.511   3.960   3.999   4.263   4.398   4.588
 --------------------------------------------------------------
 
          Ground-State Mulliken Net Atomic Charges

     Atom                 Charge (a.u.)    Spin (a.u.)
  --------------------------------------------------------
      1 S                     0.029527       0.384446
      2 S                    -0.249579       0.799660
      3 C                    -0.222120      -0.089180
      4 C                    -0.185699       0.986905
      5 C                    -0.308170       0.011564
      6 H                     0.153867       0.006608
      7 H                     0.120127      -0.043695
      8 H                     0.146428      -0.043253
      9 H                     0.126565       0.001099
     10 H                     0.115445      -0.001169
     11 H                     0.127053       0.004324
     12 H                     0.092562      -0.010842
     13 H                     0.053995      -0.006467
  --------------------------------------------------------
  Sum of atomic charges =    -0.000000
  Sum of spin   charges =     2.000000

 -----------------------------------------------------------------
                    Cartesian Multipole Moments
 -----------------------------------------------------------------
    Charge (ESU x 10^10)
                 0.0000
    Dipole Moment (Debye)
         X       2.9699      Y       0.7783      Z       0.0789
       Tot       3.0712
    Quadrupole Moments (Debye-Ang)
        XX     -51.8645     XY       0.8410     YY     -45.3211
        XZ       1.9615     YZ      -0.8506     ZZ     -46.6996
    Octopole Moments (Debye-Ang^2)
       XXX      59.8036    XXY      11.8842    XYY       8.0392
       YYY      31.9260    XXZ      -6.9497    XYZ      -4.0214
       YYZ      -1.8083    XZZ      21.0680    YZZ      14.7077
       ZZZ     -12.9993
    Hexadecapole Moments (Debye-Ang^3)
      XXXX    -877.4571   XXXY     -88.9289   XXYY    -187.9793
      XYYY     -89.3632   YYYY    -378.2751   XXXZ      40.6194
      XXYZ       1.2974   XYYZ      17.2975   YYYZ     -17.1703
      XXZZ    -173.9033   XYZZ     -40.8095   YYZZ     -83.2150
      XZZZ      42.5609   YZZZ      -8.8589   ZZZZ    -108.4003
 -----------------------------------------------------------------
 Calculating analytic gradient of the SCF energy
 Gradient of SCF Energy
            1           2           3           4           5           6
    1  -0.0000226   0.0048759   0.0001348  -0.0050048  -0.0000047  -0.0000407
    2   0.0001411   0.0046020  -0.0001554  -0.0046334   0.0000202  -0.0000050
    3   0.0000271  -0.0000181   0.0000249  -0.0000206  -0.0000264  -0.0000060
            7           8           9          10          11          12
    1   0.0000097   0.0000562  -0.0000065  -0.0000054   0.0000028  -0.0000073
    2   0.0000270   0.0000344   0.0000018   0.0000184  -0.0000013  -0.0000243
    3  -0.0000282  -0.0000333  -0.0000121   0.0000036   0.0000129   0.0000204
           13
    1   0.0000125
    2  -0.0000256
    3   0.0000557
 Max gradient component =       5.005E-03
 RMS gradient           =       1.532E-03
 Gradient time:  CPU 10.91 s  wall 0.94 s
 Geometry Optimization Parameters
   NAtoms,    NIC,     NZ,  NCons,   NDum,   NFix, NCnnct, MaxDiis
       13      77       0       1       0       0       0       0


** CONSTRAINED OPTIMIZATION IN DELOCALIZED INTERNAL COORDINATES **
   Searching for a Minimum

   Optimization Cycle:   1

                       Coordinates (Angstroms)
     ATOM                X               Y               Z
      1  S         0.2679440000   -1.3510960000   -0.2838830000
      2  S        -2.5292030000   -0.7687990000    0.3606380000
      3  C         0.6737000000    0.5308570000   -0.3295480000
      4  C        -0.3531970000    1.2961970000    0.3887750000
      5  C         2.1005480000    0.7429770000    0.1780230000
      6  H         0.6170530000    0.7146790000   -1.4064910000
      7  H        -0.2939110000    1.4057420000    1.4669860000
      8  H        -1.2346690000    1.6625850000   -0.1191020000
      9  H         2.3869130000    1.7905910000    0.0364420000
     10  H         2.1729630000    0.5194270000    1.2476010000
     11  H         2.8144290000    0.1111780000   -0.3563060000
     12  H         0.4696070000   -1.5090690000    1.0394040000
     13  H        -2.8524750000   -2.0202710000   -0.0335420000
   Point Group: c1    Number of degrees of freedom:    33


   Energy is   -915.420132076

              Constraints and their Current Values
                                        Value     Constraint
   Distance(Angs):        2   4             3.000000     2.900000

 Attempting to Generate Delocalized Internal Coordinates

   Using Lagrange Multiplier Algorithm


 34 Hessian modes will be used to form the next step
  Hessian Eigenvalues:
    -0.987919    0.044814    0.045000    0.045000    0.045000    0.045000
     0.045000    0.045208    0.074249    0.080864    0.082522    0.084232
     0.105109    0.159598    0.160000    0.160000    0.160000    0.160000
     0.160000    0.160000    0.182731    0.192685    0.205746    0.255369
     0.258036    0.294954    0.342143    0.342313    0.343560    0.344863
     0.352276    0.353518    0.359303    1.012229

 Minimum Search - Taking P-RFO Step
 Searching for Lamda that Maximizes Along the Constraint modes Only
 Value Taken    Lamda =   0.01923450
 Searching for Lamda that Minimizes Along All other modes
 Value Taken    Lamda =  -0.01593635
 Step Taken.  Stepsize is  0.185706

                             Maximum     Tolerance    Cnvgd?
         Gradient            0.188973       0.000300      NO
         Displacement        0.185688       0.001200      NO
         Energy change     *********       0.000001      NO


 New Cartesian Coordinates Obtained by Inverse Iteration

 Displacement from previous Coordinates is:  0.539699
 ----------------------------------------------------------------
             Standard Nuclear Orientation (Angstroms)
    I     Atom           X                Y                Z
 ----------------------------------------------------------------
    1      S       0.2077786090    -1.3342712646    -0.3221017556
    2      S      -2.3999457091    -0.7543047002     0.3938414761
    3      C       0.6516376517     0.5398009191    -0.3410582306
    4      C      -0.3690076301     1.3181105224     0.3721147864
    5      C       2.0753047503     0.7170189937     0.1884440700
    6      H       0.6138308297     0.7365817416    -1.4165265698
    7      H      -0.3218875464     1.4144169550     1.4522026272
    8      H      -1.2298939611     1.7057270864    -0.1391287362
    9      H       2.3848957328     1.7600481596     0.0627764911
   10      H       2.1282003323     0.4801575821     1.2563037221
   11      H       2.7835857436     0.0766922804    -0.3431772687
   12      H       0.3881132797    -1.5101412775     1.0019986201
   13      H      -2.6729100824    -2.0248389980     0.0233077678
 ----------------------------------------------------------------
 Nuclear Repulsion Energy =   278.6677065439 hartrees
 There are       30 alpha and       28 beta electrons

                       Distance Matrix (Angstroms)
             S (  1)   S (  2)   C (  3)   C (  4)   C (  5)   H (  6)
   S (  2)  2.765712
   C (  3)  1.926011  3.395136
   C (  4)  2.801740  2.901739  1.468366
   C (  5)  2.820656  4.715384  1.529250  2.523828
   H (  6)  2.377199  3.818773  1.093976  2.122118  2.170765
   H (  7)  3.314210  3.184620  2.220020  1.085396  2.798210  3.092675
   H (  8)  3.367784  2.775758  2.222683  1.073658  3.465427  2.443422
   H (  9)  3.802997  5.415375  2.157839  2.806240  1.095239  2.524380
   H ( 10)  3.077586  4.771985  2.176088  2.778489  1.095092  3.082708
   H ( 11)  2.937013  5.301203  2.181668  3.462890  1.092841  2.509057
   H ( 12)  1.347847  2.952019  2.464855  2.994828  2.910108  3.308773
   H ( 13)  2.982375  1.351319  4.214589  4.074916  5.485490  4.527829
             H (  7)   H (  8)   H (  9)   H ( 10)   H ( 11)   H ( 12)
   H (  8)  1.855175
   H (  9)  3.062130  3.620832
   H ( 10)  2.629477  3.837454  1.768762
   H ( 11)  3.828428  4.336290  1.776918  1.775008
   H ( 12)  3.042996  3.776497  3.945050  2.655911  3.172669
   H ( 13)  4.404263  4.003224  6.317304  5.553913  5.858677  3.254630

 
 Applying Cartesian multipole field
    Component          Value
    ---------          -----
     (2,0,0)        1.00000E-11
     (0,2,0)        2.00000E-11
     (0,0,2)       -3.00000E-10
 Nucleus-field energy     =    -0.0000000034 hartrees
 Requested basis set is 6-31G(d,p)
 There are 46 shells and 123 basis functions
 A cutoff of  1.0D-14 yielded   1009 shell pairs
 There are      7404 function pairs
 Smallest overlap matrix eigenvalue = 5.60E-03
 Guess from superposition of atomic densities
 Warning:  Energy on first SCF cycle will be non-variational
 SAD guess density has 58.000000 electrons

 -----------------------------------------------------------------------
  General SCF calculation program by
  Eric Jon Sundstrom, Paul Horn, Yuezhi Mao, Dmitri Zuev, Alec White,
  David Stuck, Shaama M.S., Shane Yost, Joonho Lee, David Small,
  Daniel Levine, Susi Lehtola, Hugh Burton, Evgeny Epifanovsky
 -----------------------------------------------------------------------
 Exchange:     0.2000 Hartree-Fock + 0.0800 Slater + 0.7200 B88
 Correlation:  0.1900 VWN1RPA + 0.8100 LYP
 Using SG-1 standard quadrature grid
 using 12 threads for integral computing
 -------------------------------------------------------
 OpenMP Integral computing Module                
 Release: version 1.0, May 2013, Q-Chem Inc. Pittsburgh 
 -------------------------------------------------------
 -------------------------------------------------------
 OpenMP BLAS3 based DFT computing Module                
 Release: version 1.0, May 2013, Q-Chem Inc. Pittsburgh 
 -------------------------------------------------------
 A unrestricted SCF calculation will be
 performed using DIIS
 SCF converges when DIIS error is below 1.0e-06
 Alpha HF Exchange    Energy =  -6.83207079516807
 Beta HF Exchange     Energy =  -6.83207079516807
 DFT Correlation      Energy =  -2.70414610018361
 DFT Exchange         Energy = -53.82479720846293
 One-Electron (alpha) Energy = -904.61886568780608
 One-Electron (beta)  Energy = -904.61886568780608
 Total Coulomb        Energy = 684.90789762229269
 ---------------------------------------
  Cycle       Energy         DIIS error
 ---------------------------------------
    1    -915.8552121118      2.63e-02  
 Alpha HF Exchange    Energy =  -6.95859341046194
 Beta HF Exchange     Energy =  -6.75662455193320
 DFT Correlation      Energy =  -2.72512413746783
 DFT Exchange         Energy = -54.43212620511179
 One-Electron (alpha) Energy = -923.95578782455652
 One-Electron (beta)  Energy = -892.37068765153663
 Total Coulomb        Energy = 693.21671803642766
    2    -915.3145192041      3.21e-03  
 Alpha HF Exchange    Energy =  -6.90270831830739
 Beta HF Exchange     Energy =  -6.71822396668260
 DFT Correlation      Energy =  -2.69865275409315
 DFT Exchange         Energy = -54.01669076025943
 One-Electron (alpha) Energy = -920.69464502690994
 One-Electron (beta)  Energy = -889.68657780947763
 Total Coulomb        Energy = 686.80025634706783
    3    -915.2495357482      4.18e-03  
 Alpha HF Exchange    Energy =  -6.92850260362600
 Beta HF Exchange     Energy =  -6.73027064084571
 DFT Correlation      Energy =  -2.70984450567788
 DFT Exchange         Energy = -54.18081210907037
 One-Electron (alpha) Energy = -922.01981989024398
 One-Electron (beta)  Energy = -890.54707603425300
 Total Coulomb        Energy = 689.03461841289641
    4    -915.4140008303      5.61e-04  
 Alpha HF Exchange    Energy =  -6.93394092875920
 Beta HF Exchange     Energy =  -6.73605058230675
 DFT Correlation      Energy =  -2.71097111002889
 DFT Exchange         Energy = -54.22256978270191
 One-Electron (alpha) Energy = -922.44116853232879
 One-Electron (beta)  Energy = -890.95775587724177
 Total Coulomb        Energy = 689.91799617135609
    5    -915.4167541015      2.77e-04  
 Alpha HF Exchange    Energy =  -6.93366608304743
 Beta HF Exchange     Energy =  -6.73497718733984
 DFT Correlation      Energy =  -2.71045903606587
 DFT Exchange         Energy = -54.21639919411348
 One-Electron (alpha) Energy = -922.36683344012465
 One-Electron (beta)  Energy = -890.84686933407488
 Total Coulomb        Energy = 689.72396856765135
    6    -915.4175291666      6.58e-05  
 Alpha HF Exchange    Energy =  -6.93352102149937
 Beta HF Exchange     Energy =  -6.73491701477263
 DFT Correlation      Energy =  -2.71031426383421
 DFT Exchange         Energy = -54.21498997327144
 One-Electron (alpha) Energy = -922.34752679428425
 One-Electron (beta)  Energy = -890.83128731954514
 Total Coulomb        Energy = 689.68726968695523
    7    -915.4175801598      2.46e-05  
 Alpha HF Exchange    Energy =  -6.93374147043949
 Beta HF Exchange     Energy =  -6.73501068954708
 DFT Correlation      Energy =  -2.71029883960466
 DFT Exchange         Energy = -54.21601100397769
 One-Electron (alpha) Energy = -922.36110097678909
 One-Electron (beta)  Energy = -890.83913477913029
 Total Coulomb        Energy = 689.71000307586928
    8    -915.4175881431      9.96e-06  
 Alpha HF Exchange    Energy =  -6.93373873556411
 Beta HF Exchange     Energy =  -6.73502909472037
 DFT Correlation      Energy =  -2.71028480578483
 DFT Exchange         Energy = -54.21602911096387
 One-Electron (alpha) Energy = -922.35917890320002
 One-Electron (beta)  Energy = -890.83795377172373
 Total Coulomb        Energy = 689.70691864089144
    9    -915.4175892406      3.92e-06  
 Alpha HF Exchange    Energy =  -6.93373013026667
 Beta HF Exchange     Energy =  -6.73501186116695
 DFT Correlation      Energy =  -2.71027537702332
 DFT Exchange         Energy = -54.21591490302573
 One-Electron (alpha) Energy = -922.35743141434432
 One-Electron (beta)  Energy = -890.83617986575291
 Total Coulomb        Energy = 689.70324761324991
   10    -915.4175893978      1.50e-06  
 Alpha HF Exchange    Energy =  -6.93373852105966
 Beta HF Exchange     Energy =  -6.73501906570002
 DFT Correlation      Energy =  -2.71027858608613
 DFT Exchange         Energy = -54.21598056781767
 One-Electron (alpha) Energy = -922.35847570859369
 One-Electron (beta)  Energy = -890.83714153551307
 Total Coulomb        Energy = 689.70533801468082
   11    -915.4175894296      4.63e-07  Convergence criterion met
 ---------------------------------------
 SCF time:   CPU 34.50s  wall 3.00s 
<S^2> =          2.008552044
 Alpha HF Exchange    Energy =  -6.93373852105966
 Beta HF Exchange     Energy =  -6.73501906570002
 DFT Correlation      Energy =  -2.71027858608613
 DFT Exchange         Energy = -54.21598056781767
 One-Electron (alpha) Energy = -922.35847570859369
 One-Electron (beta)  Energy = -890.83714153551307
 Total Coulomb        Energy = 689.70533801468082
 Nuclear repulsion Energy = 278.66770654050055
 SCF   energy in the final basis set =     -915.4175894296
 Total energy in the final basis set =     -915.4175894296
 
 --------------------------------------------------------------
 
                    Orbital Energies (a.u.)
 --------------------------------------------------------------
 
 Alpha MOs
 -- Occupied --
-88.911 -88.849 -10.250 -10.209 -10.203  -7.972  -7.910  -5.936
 -5.933  -5.931  -5.878  -5.872  -5.864  -0.838  -0.738  -0.705
 -0.680  -0.594  -0.488  -0.455  -0.436  -0.420  -0.393  -0.379
 -0.368  -0.346  -0.319  -0.225  -0.221  -0.203
 -- Virtual --
  0.002   0.044   0.077   0.095   0.118   0.130   0.152   0.161
  0.185   0.221   0.248   0.304   0.327   0.335   0.367   0.393
  0.415   0.460   0.475   0.485   0.520   0.534   0.559   0.578
  0.611   0.652   0.686   0.716   0.733   0.749   0.769   0.785
  0.794   0.812   0.827   0.833   0.865   0.874   0.901   0.912
  0.926   0.953   0.965   1.053   1.112   1.123   1.178   1.195
  1.362   1.428   1.464   1.561   1.670   1.753   1.833   1.864
  1.921   1.966   2.013   2.031   2.072   2.085   2.090   2.097
  2.113   2.122   2.131   2.272   2.310   2.345   2.397   2.495
  2.549   2.582   2.624   2.689   2.724   2.735   2.754   2.823
  2.858   2.908   3.174   3.268   3.382   3.408   3.453   3.511
  3.949   3.994   4.251   4.390   4.586
 
 Beta MOs
 -- Occupied --
-88.908 -88.844 -10.252 -10.203 -10.196  -7.969  -7.905  -5.933
 -5.929  -5.924  -5.870  -5.863  -5.861  -0.828  -0.724  -0.683
 -0.652  -0.583  -0.483  -0.450  -0.430  -0.414  -0.386  -0.368
 -0.361  -0.335  -0.278  -0.214
 -- Virtual --
 -0.106  -0.078   0.013   0.055   0.089   0.098   0.120   0.141
  0.153   0.163   0.191   0.225   0.256   0.313   0.336   0.348
  0.380   0.402   0.424   0.476   0.481   0.500   0.530   0.552
  0.571   0.609   0.623   0.665   0.709   0.725   0.743   0.762
  0.776   0.793   0.815   0.825   0.841   0.853   0.873   0.877
  0.912   0.919   0.936   0.967   0.995   1.068   1.120   1.129
  1.190   1.204   1.380   1.429   1.498   1.567   1.676   1.754
  1.834   1.872   1.940   1.989   2.018   2.033   2.075   2.087
  2.096   2.099   2.114   2.127   2.140   2.278   2.311   2.348
  2.406   2.509   2.563   2.595   2.629   2.691   2.726   2.736
  2.757   2.825   2.858   2.911   3.174   3.270   3.386   3.410
  3.454   3.517   3.958   4.007   4.267   4.402   4.591
 --------------------------------------------------------------
 
          Ground-State Mulliken Net Atomic Charges

     Atom                 Charge (a.u.)    Spin (a.u.)
  --------------------------------------------------------
      1 S                     0.034504       0.424147
      2 S                    -0.270219       0.757630
      3 C                    -0.220690      -0.087362
      4 C                    -0.187175       0.980967
      5 C                    -0.308479       0.011129
      6 H                     0.154451       0.006317
      7 H                     0.123660      -0.043318
      8 H                     0.148896      -0.042302
      9 H                     0.127410       0.001046
     10 H                     0.116360      -0.001151
     11 H                     0.127229       0.004601
     12 H                     0.102342      -0.011846
     13 H                     0.051710       0.000143
  --------------------------------------------------------
  Sum of atomic charges =    -0.000000
  Sum of spin   charges =     2.000000

 -----------------------------------------------------------------
                    Cartesian Multipole Moments
 -----------------------------------------------------------------
    Charge (ESU x 10^10)
                 0.0000
    Dipole Moment (Debye)
         X       3.1840      Y       0.7920      Z       0.0061
       Tot       3.2810
    Quadrupole Moments (Debye-Ang)
        XX     -52.6617     XY       0.5256     YY     -45.0898
        XZ       1.9440     YZ      -0.9190     ZZ     -46.7983
    Octopole Moments (Debye-Ang^2)
       XXX      61.3970    XXY      12.8584    XYY       7.8304
       YYY      30.7895    XXZ      -6.8277    XYZ      -3.5555
       YYZ      -1.5277    XZZ      20.2912    YZZ      14.5527
       ZZZ     -13.0722
    Hexadecapole Moments (Debye-Ang^3)
      XXXX    -827.5093   XXXY     -90.1551   XXYY    -179.3533
      XYYY     -85.7808   YYYY    -373.6474   XXXZ      41.3317
      XXYZ       0.1205   XYYZ      16.8067   YYYZ     -17.8926
      XXZZ    -163.4886   XYZZ     -38.9413   YYZZ     -83.2562
      XZZZ      44.0034   YZZZ      -9.1121   ZZZZ    -112.1935
 -----------------------------------------------------------------
 Calculating analytic gradient of the SCF energy
 Gradient of SCF Energy
            1           2           3           4           5           6
    1  -0.0058341   0.0113079   0.0002265  -0.0100437   0.0000023   0.0000526
    2   0.0013574   0.0053980  -0.0009247  -0.0036576   0.0001118   0.0000411
    3   0.0001848  -0.0008197  -0.0000779  -0.0025042   0.0000036   0.0000227
            7           8           9          10          11          12
    1  -0.0001515   0.0042729   0.0000792  -0.0000426  -0.0000637  -0.0011694
    2  -0.0001094  -0.0022361   0.0000909   0.0000426  -0.0000327   0.0003789
    3   0.0001468   0.0025569   0.0000470  -0.0000723   0.0000313   0.0007460
           13
    1   0.0013634
    2  -0.0004602
    3  -0.0002649
 Max gradient component =       1.131E-02
 RMS gradient           =       2.992E-03
 Gradient time:  CPU 11.43 s  wall 1.01 s
 Geometry Optimization Parameters
   NAtoms,    NIC,     NZ,  NCons,   NDum,   NFix, NCnnct, MaxDiis
       13      77       0       1       0       0       0       0

 Cartesian Hessian Update
 Hessian Updated using BFGS Update


** CONSTRAINED OPTIMIZATION IN DELOCALIZED INTERNAL COORDINATES **
   Searching for a Minimum

   Optimization Cycle:   2

                       Coordinates (Angstroms)
     ATOM                X               Y               Z
      1  S         0.2077786090   -1.3342712646   -0.3221017556
      2  S        -2.3999457091   -0.7543047002    0.3938414761
      3  C         0.6516376517    0.5398009191   -0.3410582306
      4  C        -0.3690076301    1.3181105224    0.3721147864
      5  C         2.0753047503    0.7170189937    0.1884440700
      6  H         0.6138308297    0.7365817416   -1.4165265698
      7  H        -0.3218875464    1.4144169550    1.4522026272
      8  H        -1.2298939611    1.7057270864   -0.1391287362
      9  H         2.3848957328    1.7600481596    0.0627764911
     10  H         2.1282003323    0.4801575821    1.2563037221
     11  H         2.7835857436    0.0766922804   -0.3431772687
     12  H         0.3881132797   -1.5101412775    1.0019986201
     13  H        -2.6729100824   -2.0248389980    0.0233077678
   Point Group: c1    Number of degrees of freedom:    33


   Energy is   -915.417589430

              Constraints and their Current Values
                                        Value     Constraint
   Distance(Angs):        2   4             2.901739     2.900000
 Hessian Updated using BFGS Update

   Using Lagrange Multiplier Algorithm


 27 Hessian modes will be used to form the next step
  Hessian Eigenvalues:
    -0.967798    0.044873    0.044998    0.045142    0.073079    0.080811
     0.082522    0.084232    0.101312    0.117935    0.159599    0.159974
     0.166024    0.182721    0.205624    0.255358    0.257971    0.294954
     0.315550    0.342145    0.342315    0.343560    0.344863    0.353517
     0.356294    0.480904    1.069845

 Minimum Search - Taking P-RFO Step
 Searching for Lamda that Maximizes Along the Constraint modes Only
 Value Taken    Lamda =   0.00006294
 Searching for Lamda that Minimizes Along All other modes
 Value Taken    Lamda =  -0.00245597
 Step Taken.  Stepsize is  0.089418

                             Maximum     Tolerance    Cnvgd?
         Gradient            0.027136       0.000300      NO
         Displacement        0.072516       0.001200      NO
         Energy change      0.002543       0.000001      NO


 New Cartesian Coordinates Obtained by Inverse Iteration

 Displacement from previous Coordinates is:  0.422559
 ----------------------------------------------------------------
             Standard Nuclear Orientation (Angstroms)
    I     Atom           X                Y                Z
 ----------------------------------------------------------------
    1      S       0.2851006540    -1.3611095687    -0.3470028005
    2      S      -2.4745838569    -0.7166661230     0.4126868792
    3      C       0.6688458877     0.5265683567    -0.3480275779
    4      C      -0.3739822136     1.2820338964     0.3604763224
    5      C       2.0825214534     0.7354597998     0.1965593233
    6      H       0.6370750126     0.7301527002    -1.4224197363
    7      H      -0.3310611205     1.3808912853     1.4404836533
    8      H      -1.2331893107     1.6753960590    -0.1538436283
    9      H       2.3672142021     1.7866422822     0.0805363070
   10      H       2.1310006398     0.4929516518     1.2633895497
   11      H       2.8116762206     0.1164723608    -0.3321194992
   12      H       0.4641397728    -1.5421784506     0.9763804622
   13      H      -2.7950553412    -1.9816162498     0.0618977451
 ----------------------------------------------------------------
 Nuclear Repulsion Energy =   274.9087674208 hartrees
 There are       30 alpha and       28 beta electrons

                       Distance Matrix (Angstroms)
             S (  1)   S (  2)   C (  3)   C (  4)   C (  5)   H (  6)
   S (  2)  2.933989
   C (  3)  1.926289  3.464891
   C (  4)  2.814449  2.900009  1.469761
   C (  5)  2.814566  4.787754  1.529277  2.521908
   H (  6)  2.377769  3.891442  1.093972  2.122623  2.170354
   H (  7)  3.330665  3.170300  2.220012  1.085371  2.790934  3.091434
   H (  8)  3.400424  2.753902  2.230527  1.075870  3.464131  2.449624
   H (  9)  3.798201  5.460759  2.157755  2.801277  1.095215  2.523575
   H ( 10)  3.072174  4.837177  2.176164  2.777200  1.095120  3.082475
   H ( 11)  2.926953  5.403092  2.181778  3.462173  1.092846  2.508834
   H ( 12)  1.347659  3.104081  2.464888  3.009645  2.900848  3.308721
   H ( 13)  3.168531  1.351242  4.296236  4.074574  5.584925  4.619135
             H (  7)   H (  8)   H (  9)   H ( 10)   H ( 11)   H ( 12)
   H (  8)  1.855383
   H (  9)  3.048734  3.609739
   H ( 10)  2.623270  3.837251  1.768778
   H ( 11)  3.823307  4.338544  1.776879  1.775023
   H ( 12)  3.064649  3.809346  3.937674  2.646234  3.158199
   H ( 13)  4.390697  3.982425  6.391334  5.642083  5.999389  3.413464

 
 Applying Cartesian multipole field
    Component          Value
    ---------          -----
     (2,0,0)        1.00000E-11
     (0,2,0)        2.00000E-11
     (0,0,2)       -3.00000E-10
 Nucleus-field energy     =    -0.0000000037 hartrees
 Requested basis set is 6-31G(d,p)
 There are 46 shells and 123 basis functions
 A cutoff of  1.0D-14 yielded   1006 shell pairs
 There are      7397 function pairs
 Smallest overlap matrix eigenvalue = 5.69E-03
 Guess from superposition of atomic densities
 Warning:  Energy on first SCF cycle will be non-variational
 SAD guess density has 58.000000 electrons

 -----------------------------------------------------------------------
  General SCF calculation program by
  Eric Jon Sundstrom, Paul Horn, Yuezhi Mao, Dmitri Zuev, Alec White,
  David Stuck, Shaama M.S., Shane Yost, Joonho Lee, David Small,
  Daniel Levine, Susi Lehtola, Hugh Burton, Evgeny Epifanovsky
 -----------------------------------------------------------------------
 Exchange:     0.2000 Hartree-Fock + 0.0800 Slater + 0.7200 B88
 Correlation:  0.1900 VWN1RPA + 0.8100 LYP
 Using SG-1 standard quadrature grid
 using 12 threads for integral computing
 -------------------------------------------------------
 OpenMP Integral computing Module                
 Release: version 1.0, May 2013, Q-Chem Inc. Pittsburgh 
 -------------------------------------------------------
 -------------------------------------------------------
 OpenMP BLAS3 based DFT computing Module                
 Release: version 1.0, May 2013, Q-Chem Inc. Pittsburgh 
 -------------------------------------------------------
 A unrestricted SCF calculation will be
 performed using DIIS
 SCF converges when DIIS error is below 1.0e-06
 Alpha HF Exchange    Energy =  -6.82909184019504
 Beta HF Exchange     Energy =  -6.82909184019504
 DFT Correlation      Energy =  -2.70241505249684
 DFT Exchange         Energy = -53.81890587229005
 One-Electron (alpha) Energy = -900.86413451432873
 One-Electron (beta)  Energy = -900.86413451432873
 Total Coulomb        Energy = 681.16916719925587
 ---------------------------------------
  Cycle       Energy         DIIS error
 ---------------------------------------
    1    -915.8298390174      2.61e-02  
 Alpha HF Exchange    Energy =  -6.95722064855757
 Beta HF Exchange     Energy =  -6.75446838688618
 DFT Correlation      Energy =  -2.72346157264153
 DFT Exchange         Energy = -54.42127917206977
 One-Electron (alpha) Energy = -920.07625242074073
 One-Electron (beta)  Energy = -888.69539420048454
 Total Coulomb        Energy = 689.40752422985770
    2    -915.3117847544      3.23e-03  
 Alpha HF Exchange    Energy =  -6.90156086452354
 Beta HF Exchange     Energy =  -6.71873936813586
 DFT Correlation      Energy =  -2.69681847473906
 DFT Exchange         Energy = -54.01295629419997
 One-Electron (alpha) Energy = -916.84025794634670
 One-Electron (beta)  Energy = -886.09942102781872
 Total Coulomb        Energy = 683.12225849398112
    3    -915.2387280646      4.29e-03  
 Alpha HF Exchange    Energy =  -6.92705776398597
 Beta HF Exchange     Energy =  -6.72869954274474
 DFT Correlation      Energy =  -2.70795286739768
 DFT Exchange         Energy = -54.16984378432524
 One-Electron (alpha) Energy = -918.13099114289275
 One-Electron (beta)  Energy = -886.88858272401399
 Total Coulomb        Energy = 685.22963864459859
    4    -915.4147217636      5.70e-04  
 Alpha HF Exchange    Energy =  -6.93290379859648
 Beta HF Exchange     Energy =  -6.73535498441482
 DFT Correlation      Energy =  -2.70915847634809
 DFT Exchange         Energy = -54.21583228149314
 One-Electron (alpha) Energy = -918.57630325601292
 One-Electron (beta)  Energy = -887.33859531514747
 Total Coulomb        Energy = 686.18189399671166
    5    -915.4174866982      3.06e-04  
 Alpha HF Exchange    Energy =  -6.93258467933307
 Beta HF Exchange     Energy =  -6.73409590397265
 DFT Correlation      Energy =  -2.70861433434638
 DFT Exchange         Energy = -54.20884997979572
 One-Electron (alpha) Energy = -918.49441398889962
 One-Electron (beta)  Energy = -887.21713872271550
 Total Coulomb        Energy = 685.96847732632193
    6    -915.4184528656      7.08e-05  
 Alpha HF Exchange    Energy =  -6.93243246981275
 Beta HF Exchange     Energy =  -6.73412669889987
 DFT Correlation      Energy =  -2.70846065852786
 DFT Exchange         Energy = -54.20760677640541
 One-Electron (alpha) Energy = -918.47425437614072
 One-Electron (beta)  Energy = -887.20489124703863
 Total Coulomb        Energy = 685.93449001252338
    7    -915.4185147972      2.94e-05  
 Alpha HF Exchange    Energy =  -6.93264719411593
 Beta HF Exchange     Energy =  -6.73422747042359
 DFT Correlation      Energy =  -2.70843371970547
 DFT Exchange         Energy = -54.20858867581957
 One-Electron (alpha) Energy = -918.48586362930723
 One-Electron (beta)  Energy = -887.21196733281261
 Total Coulomb        Energy = 685.95443441844907
    8    -915.4185261866      1.14e-05  
 Alpha HF Exchange    Energy =  -6.93265843816946
 Beta HF Exchange     Energy =  -6.73427381487340
 DFT Correlation      Energy =  -2.70842433734285
 DFT Exchange         Energy = -54.20875739963938
 One-Electron (alpha) Energy = -918.48538770559389
 One-Electron (beta)  Energy = -887.21292789728204
 Total Coulomb        Energy = 685.95513454904608
    9    -915.4185276267      4.83e-06  
 Alpha HF Exchange    Energy =  -6.93264335219972
 Beta HF Exchange     Energy =  -6.73425273790239
 DFT Correlation      Energy =  -2.70841199854770
 DFT Exchange         Energy = -54.20859929096354
 One-Electron (alpha) Energy = -918.48278113858726
 One-Electron (beta)  Energy = -887.21059093689325
 Total Coulomb        Energy = 685.94998413884719
   10    -915.4185278991      1.66e-06  
 Alpha HF Exchange    Energy =  -6.93265195356759
 Beta HF Exchange     Energy =  -6.73426044790415
 DFT Correlation      Energy =  -2.70841525069587
 DFT Exchange         Energy = -54.20866752814904
 One-Electron (alpha) Energy = -918.48382972979903
 One-Electron (beta)  Energy = -887.21165361069518
 Total Coulomb        Energy = 685.95218313915484
   11    -915.4185279645      6.01e-07  Convergence criterion met
 ---------------------------------------
 SCF time:   CPU 34.24s  wall 3.00s 
<S^2> =          2.008464857
 Alpha HF Exchange    Energy =  -6.93265195356759
 Beta HF Exchange     Energy =  -6.73426044790415
 DFT Correlation      Energy =  -2.70841525069587
 DFT Exchange         Energy = -54.20866752814904
 One-Electron (alpha) Energy = -918.48382972979903
 One-Electron (beta)  Energy = -887.21165361069518
 Total Coulomb        Energy = 685.95218313915484
 Nuclear repulsion Energy = 274.90876741714294
 SCF   energy in the final basis set =     -915.4185279645
 Total energy in the final basis set =     -915.4185279645
 
 --------------------------------------------------------------
 
                    Orbital Energies (a.u.)
 --------------------------------------------------------------
 
 Alpha MOs
 -- Occupied --
-88.907 -88.856 -10.249 -10.208 -10.201  -7.969  -7.917  -5.933
 -5.929  -5.927  -5.885  -5.879  -5.870  -0.835  -0.733  -0.704
 -0.685  -0.592  -0.486  -0.453  -0.434  -0.417  -0.391  -0.379
 -0.366  -0.346  -0.311  -0.229  -0.225  -0.211
 -- Virtual --
  0.005   0.046   0.075   0.097   0.119   0.131   0.154   0.162
  0.186   0.223   0.248   0.297   0.325   0.335   0.370   0.393
  0.415   0.450   0.480   0.482   0.522   0.540   0.562   0.577
  0.613   0.654   0.682   0.713   0.735   0.748   0.766   0.781
  0.792   0.814   0.827   0.833   0.869   0.874   0.892   0.913
  0.927   0.940   0.954   1.053   1.114   1.123   1.168   1.195
  1.362   1.429   1.463   1.560   1.670   1.755   1.834   1.863
  1.922   1.966   2.013   2.032   2.072   2.085   2.091   2.098
  2.109   2.118   2.132   2.274   2.311   2.345   2.398   2.498
  2.549   2.582   2.626   2.690   2.725   2.736   2.749   2.823
  2.859   2.910   3.175   3.266   3.382   3.409   3.455   3.512
  3.952   3.986   4.247   4.391   4.587
 
 Beta MOs
 -- Occupied --
-88.905 -88.851 -10.250 -10.201 -10.195  -7.966  -7.912  -5.930
 -5.926  -5.921  -5.876  -5.870  -5.867  -0.826  -0.720  -0.682
 -0.655  -0.582  -0.481  -0.448  -0.428  -0.412  -0.384  -0.367
 -0.360  -0.335  -0.270  -0.217
 -- Virtual --
 -0.119  -0.076   0.015   0.056   0.087   0.099   0.121   0.141
  0.155   0.164   0.193   0.227   0.256   0.305   0.334   0.346
  0.382   0.402   0.423   0.471   0.486   0.492   0.532   0.555
  0.576   0.608   0.625   0.667   0.706   0.721   0.744   0.760
  0.773   0.790   0.819   0.826   0.841   0.849   0.877   0.878
  0.905   0.921   0.936   0.966   0.969   1.069   1.120   1.129
  1.181   1.204   1.380   1.431   1.497   1.567   1.676   1.756
  1.835   1.872   1.940   1.991   2.018   2.034   2.076   2.086
  2.098   2.099   2.110   2.124   2.142   2.279   2.312   2.348
  2.407   2.511   2.563   2.595   2.631   2.693   2.727   2.737
  2.752   2.825   2.860   2.913   3.176   3.268   3.387   3.411
  3.456   3.517   3.960   4.000   4.262   4.403   4.591
 --------------------------------------------------------------
 
          Ground-State Mulliken Net Atomic Charges

     Atom                 Charge (a.u.)    Spin (a.u.)
  --------------------------------------------------------
      1 S                     0.026593       0.385407
      2 S                    -0.248718       0.795944
      3 C                    -0.221130      -0.086421
      4 C                    -0.187846       0.981152
      5 C                    -0.308443       0.011212
      6 H                     0.153043       0.006278
      7 H                     0.122583      -0.043516
      8 H                     0.147320      -0.042567
      9 H                     0.126052       0.000739
     10 H                     0.115746      -0.001138
     11 H                     0.126606       0.004726
     12 H                     0.094604      -0.010605
     13 H                     0.053591      -0.001210
  --------------------------------------------------------
  Sum of atomic charges =     0.000000
  Sum of spin   charges =     2.000000

 -----------------------------------------------------------------
                    Cartesian Multipole Moments
 -----------------------------------------------------------------
    Charge (ESU x 10^10)
                 0.0000
    Dipole Moment (Debye)
         X       2.8944      Y       0.7471      Z       0.0671
       Tot       2.9901
    Quadrupole Moments (Debye-Ang)
        XX     -51.7144     XY       0.8621     YY     -45.1785
        XZ       1.8192     YZ      -1.0804     ZZ     -46.8838
    Octopole Moments (Debye-Ang^2)
       XXX      56.9815    XXY      11.3422    XYY       7.4292
       YYY      30.8191    XXZ      -6.0219    XYZ      -3.4543
       YYZ      -1.1207    XZZ      20.1551    YZZ      14.5008
       ZZZ     -12.8768
    Hexadecapole Moments (Debye-Ang^3)
      XXXX    -851.2244   XXXY     -79.7322   XXYY    -183.4500
      XYYY     -81.1730   YYYY    -371.5767   XXXZ      43.3489
      XXYZ      -1.2001   XYYZ      17.9267   YYYZ     -19.6867
      XXZZ    -169.8803   XYZZ     -37.3065   YYZZ     -83.4354
      XZZZ      48.0054   YZZZ     -10.4195   ZZZZ    -114.7018
 -----------------------------------------------------------------
 Calculating analytic gradient of the SCF energy
 Gradient of SCF Energy
            1           2           3           4           5           6
    1   0.0017813   0.0053744  -0.0002037  -0.0099043  -0.0001159   0.0000104
    2  -0.0006110   0.0069599  -0.0011123  -0.0039713  -0.0005492   0.0001217
    3  -0.0005979   0.0003702  -0.0002002  -0.0020671   0.0001962   0.0000285
            7           8           9          10          11          12
    1  -0.0000594   0.0026470  -0.0001310  -0.0000148   0.0000087  -0.0004371
    2   0.0001266  -0.0012513  -0.0000061   0.0000505   0.0000358   0.0001535
    3   0.0000774   0.0023671  -0.0000676  -0.0000421   0.0000441   0.0000673
           13
    1   0.0010444
    2   0.0000531
    3  -0.0001760
 Max gradient component =       9.904E-03
 RMS gradient           =       2.358E-03
 Gradient time:  CPU 11.37 s  wall 1.00 s
 Geometry Optimization Parameters
   NAtoms,    NIC,     NZ,  NCons,   NDum,   NFix, NCnnct, MaxDiis
       13      77       0       1       0       0       0       0

 Cartesian Hessian Update
 Hessian Updated using BFGS Update


** CONSTRAINED OPTIMIZATION IN DELOCALIZED INTERNAL COORDINATES **
   Searching for a Minimum

   Optimization Cycle:   3

                       Coordinates (Angstroms)
     ATOM                X               Y               Z
      1  S         0.2851006540   -1.3611095687   -0.3470028005
      2  S        -2.4745838569   -0.7166661230    0.4126868792
      3  C         0.6688458877    0.5265683567   -0.3480275779
      4  C        -0.3739822136    1.2820338964    0.3604763224
      5  C         2.0825214534    0.7354597998    0.1965593233
      6  H         0.6370750126    0.7301527002   -1.4224197363
      7  H        -0.3310611205    1.3808912853    1.4404836533
      8  H        -1.2331893107    1.6753960590   -0.1538436283
      9  H         2.3672142021    1.7866422822    0.0805363070
     10  H         2.1310006398    0.4929516518    1.2633895497
     11  H         2.8116762206    0.1164723608   -0.3321194992
     12  H         0.4641397728   -1.5421784506    0.9763804622
     13  H        -2.7950553412   -1.9816162498    0.0618977451
   Point Group: c1    Number of degrees of freedom:    33


   Energy is   -915.418527965

              Constraints and their Current Values
                                        Value     Constraint
   Distance(Angs):        2   4             2.900009     2.900000
 Hessian Updated using BFGS Update

   Using Lagrange Multiplier Algorithm


 29 Hessian modes will be used to form the next step
  Hessian Eigenvalues:
    -0.970916    0.044784    0.044896    0.045003    0.045147    0.072718
     0.080743    0.082518    0.084232    0.098688    0.114225    0.159599
     0.159858    0.160014    0.165292    0.182733    0.205592    0.255325
     0.257993    0.294915    0.332927    0.342155    0.342313    0.343560
     0.344863    0.351592    0.353518    0.529009    1.070170

 Minimum Search - Taking P-RFO Step
 Searching for Lamda that Maximizes Along the Constraint modes Only
 Value Taken    Lamda =   0.00000018
 Searching for Lamda that Minimizes Along All other modes
 Value Taken    Lamda =  -0.00015728
 Step Taken.  Stepsize is  0.039713

                             Maximum     Tolerance    Cnvgd?
         Gradient            0.002712       0.000300      NO
         Displacement        0.018596       0.001200      NO
         Energy change     -0.000939       0.000001      NO


 New Cartesian Coordinates Obtained by Inverse Iteration

 Displacement from previous Coordinates is:  0.090444
 ----------------------------------------------------------------
             Standard Nuclear Orientation (Angstroms)
    I     Atom           X                Y                Z
 ----------------------------------------------------------------
    1      S       0.2781509354    -1.3598346587    -0.3305147155
    2      S      -2.4764035989    -0.7189872688     0.3967314984
    3      C       0.6694258210     0.5257453334    -0.3428053112
    4      C      -0.3723393428     1.2765241553     0.3676202757
    5      C       2.0865696209     0.7388222068     0.1922881391
    6      H       0.6309476878     0.7260592962    -1.4176019753
    7      H      -0.3283821586     1.3759224697     1.4473767109
    8      H      -1.2349859566     1.6709703971    -0.1513705252
    9      H       2.3701277097     1.7898119282     0.0713523909
   10      H       2.1419810365     0.4998024470     1.2596642838
   11      H       2.8130001825     0.1187022774    -0.3388810344
   12      H       0.4760316031    -1.5389941213     0.9904455287
   13      H      -2.8144215401    -1.9795464623     0.0446917340
 ----------------------------------------------------------------
 Nuclear Repulsion Energy =   275.1261299135 hartrees
 There are       30 alpha and       28 beta electrons

                       Distance Matrix (Angstroms)
             S (  1)   S (  2)   C (  3)   C (  4)   C (  5)   H (  6)
   S (  2)  2.920127
   C (  3)  1.925788  3.463021
   C (  4)  2.803733  2.900000  1.467531
   C (  5)  2.819231  4.794552  1.529713  2.523113
   H (  6)  2.378482  3.877576  1.093981  2.120522  2.170425
   H (  7)  3.318606  3.179072  2.218823  1.085213  2.795199  3.090427
   H (  8)  3.392264  2.748351  2.230465  1.081249  3.466949  2.444976
   H (  9)  3.802386  5.467066  2.159115  2.805773  1.095267  2.524540
   H ( 10)  3.075838  4.853821  2.176465  2.778641  1.095214  3.082559
   H ( 11)  2.934553  5.405612  2.181882  3.462092  1.092882  2.508760
   H ( 12)  1.347661  3.121183  2.465382  3.005792  2.901609  3.309556
   H ( 13)  3.176291  1.351739  4.308577  4.082897  5.606338  4.618352
             H (  7)   H (  8)   H (  9)   H ( 10)   H ( 11)   H ( 12)
   H (  8)  1.861445
   H (  9)  3.057238  3.613942
   H ( 10)  2.627835  3.842728  1.768689
   H ( 11)  3.826173  4.339457  1.776805  1.775064
   H ( 12)  3.058203  3.812505  3.938690  2.646612  3.158558
   H ( 13)  4.405348  3.982377  6.410018  5.673558  6.018110  3.451901

 
 Applying Cartesian multipole field
    Component          Value
    ---------          -----
     (2,0,0)        1.00000E-11
     (0,2,0)        2.00000E-11
     (0,0,2)       -3.00000E-10
 Nucleus-field energy     =    -0.0000000033 hartrees
 Requested basis set is 6-31G(d,p)
 There are 46 shells and 123 basis functions
 A cutoff of  1.0D-14 yielded   1006 shell pairs
 There are      7397 function pairs
 Smallest overlap matrix eigenvalue = 5.68E-03
 Guess from superposition of atomic densities
 Warning:  Energy on first SCF cycle will be non-variational
 SAD guess density has 58.000000 electrons

 -----------------------------------------------------------------------
  General SCF calculation program by
  Eric Jon Sundstrom, Paul Horn, Yuezhi Mao, Dmitri Zuev, Alec White,
  David Stuck, Shaama M.S., Shane Yost, Joonho Lee, David Small,
  Daniel Levine, Susi Lehtola, Hugh Burton, Evgeny Epifanovsky
 -----------------------------------------------------------------------
 Exchange:     0.2000 Hartree-Fock + 0.0800 Slater + 0.7200 B88
 Correlation:  0.1900 VWN1RPA + 0.8100 LYP
 Using SG-1 standard quadrature grid
 using 12 threads for integral computing
 -------------------------------------------------------
 OpenMP Integral computing Module                
 Release: version 1.0, May 2013, Q-Chem Inc. Pittsburgh 
 -------------------------------------------------------
 -------------------------------------------------------
 OpenMP BLAS3 based DFT computing Module                
 Release: version 1.0, May 2013, Q-Chem Inc. Pittsburgh 
 -------------------------------------------------------
 A unrestricted SCF calculation will be
 performed using DIIS
 SCF converges when DIIS error is below 1.0e-06
 Alpha HF Exchange    Energy =  -6.82913785553647
 Beta HF Exchange     Energy =  -6.82913785553647
 DFT Correlation      Energy =  -2.70247439437350
 DFT Exchange         Energy = -53.81894789964753
 One-Electron (alpha) Energy = -901.08345735860303
 One-Electron (beta)  Energy = -901.08345735860303
 Total Coulomb        Energy = 681.38926688208505
 ---------------------------------------
  Cycle       Energy         DIIS error
 ---------------------------------------
    1    -915.8312159300      2.62e-02  
 Alpha HF Exchange    Energy =  -6.95717565612405
 Beta HF Exchange     Energy =  -6.75445154413339
 DFT Correlation      Energy =  -2.72352955645833
 DFT Exchange         Energy = -54.42084691046187
 One-Electron (alpha) Energy = -920.31428882681894
 One-Electron (beta)  Energy = -888.90618725625450
 Total Coulomb        Energy = 689.63798495182300
    2    -915.3123648883      3.22e-03  
 Alpha HF Exchange    Energy =  -6.90148114797541
 Beta HF Exchange     Energy =  -6.71844901596878
 DFT Correlation      Energy =  -2.69687303659509
 DFT Exchange         Energy = -54.01170992242028
 One-Electron (alpha) Energy = -917.06360616716825
 One-Electron (beta)  Energy = -886.29603092381171
 Total Coulomb        Energy = 683.32133637923471
    3    -915.2406839245      4.27e-03  
 Alpha HF Exchange    Energy =  -6.92706769539226
 Beta HF Exchange     Energy =  -6.72868433456664
 DFT Correlation      Energy =  -2.70804426759624
 DFT Exchange         Energy = -54.16980900887654
 One-Electron (alpha) Energy = -918.36932214264959
 One-Electron (beta)  Energy = -887.09705245495820
 Total Coulomb        Energy = 685.45896284771356
    4    -915.4148871462      5.66e-04  
 Alpha HF Exchange    Energy =  -6.93285562370805
 Beta HF Exchange     Energy =  -6.73521314533213
 DFT Correlation      Energy =  -2.70923363699091
 DFT Exchange         Energy = -54.21516452632319
 One-Electron (alpha) Energy = -918.81060562000766
 One-Electron (beta)  Energy = -887.54105824991370
 Total Coulomb        Energy = 686.40038055141883
    5    -915.4176203407      3.01e-04  
 Alpha HF Exchange    Energy =  -6.93253294839578
 Beta HF Exchange     Energy =  -6.73397501322521
 DFT Correlation      Energy =  -2.70869289990109
 DFT Exchange         Energy = -54.20823993027363
 One-Electron (alpha) Energy = -918.72946900857517
 One-Electron (beta)  Energy = -887.42029928063948
 Total Coulomb        Energy = 686.18852272364745
    6    -915.4185564472      6.98e-05  
 Alpha HF Exchange    Energy =  -6.93238542518970
 Beta HF Exchange     Energy =  -6.73399651732619
 DFT Correlation      Energy =  -2.70854098959786
 DFT Exchange         Energy = -54.20699904426845
 One-Electron (alpha) Energy = -918.70968825891555
 One-Electron (beta)  Energy = -887.40776151168666
 Total Coulomb        Energy = 686.15462554710405
    7    -915.4186162897      2.87e-05  
 Alpha HF Exchange    Energy =  -6.93260151127079
 Beta HF Exchange     Energy =  -6.73409728110198
 DFT Correlation      Energy =  -2.70851624186415
 DFT Exchange         Energy = -54.20799461956398
 One-Electron (alpha) Energy = -918.72175718137078
 One-Electron (beta)  Energy = -887.41504535880870
 Total Coulomb        Energy = 686.17525517954095
    8    -915.4186271043      1.10e-05  
 Alpha HF Exchange    Energy =  -6.93260976493897
 Beta HF Exchange     Energy =  -6.73413925117271
 DFT Correlation      Energy =  -2.70850593761807
 DFT Exchange         Energy = -54.20813616249164
 One-Electron (alpha) Energy = -918.72095443431692
 One-Electron (beta)  Energy = -887.41561539403244
 Total Coulomb        Energy = 686.17520257662704
    9    -915.4186284578      4.67e-06  
 Alpha HF Exchange    Energy =  -6.93259585289429
 Beta HF Exchange     Energy =  -6.73411866060983
 DFT Correlation      Energy =  -2.70849412725682
 DFT Exchange         Energy = -54.20798552714292
 One-Electron (alpha) Energy = -918.71851046359723
 One-Electron (beta)  Energy = -887.41337594827735
 Total Coulomb        Energy = 686.17032196869923
   10    -915.4186287009      1.62e-06  
 Alpha HF Exchange    Energy =  -6.93260447107254
 Beta HF Exchange     Energy =  -6.73412637169229
 DFT Correlation      Energy =  -2.70849740678692
 DFT Exchange         Energy = -54.20805387123956
 One-Electron (alpha) Energy = -918.71956810982510
 One-Electron (beta)  Energy = -887.41443187219204
 Total Coulomb        Energy = 686.17252343814494
   11    -915.4186287545      5.56e-07  Convergence criterion met
 ---------------------------------------
 SCF time:   CPU 34.36s  wall 3.00s 
<S^2> =          2.008511338
 Alpha HF Exchange    Energy =  -6.93260447107254
 Beta HF Exchange     Energy =  -6.73412637169229
 DFT Correlation      Energy =  -2.70849740678692
 DFT Exchange         Energy = -54.20805387123956
 One-Electron (alpha) Energy = -918.71956810982510
 One-Electron (beta)  Energy = -887.41443187219204
 Total Coulomb        Energy = 686.17252343814494
 Nuclear repulsion Energy = 275.12612991016744
 SCF   energy in the final basis set =     -915.4186287545
 Total energy in the final basis set =     -915.4186287545
 
 --------------------------------------------------------------
 
                    Orbital Energies (a.u.)
 --------------------------------------------------------------
 
 Alpha MOs
 -- Occupied --
-88.908 -88.855 -10.249 -10.208 -10.202  -7.969  -7.916  -5.933
 -5.930  -5.927  -5.884  -5.878  -5.870  -0.835  -0.733  -0.704
 -0.684  -0.592  -0.486  -0.453  -0.434  -0.417  -0.391  -0.379
 -0.366  -0.346  -0.312  -0.229  -0.224  -0.211
 -- Virtual --
  0.005   0.046   0.075   0.096   0.119   0.131   0.154   0.162
  0.186   0.222   0.249   0.297   0.324   0.336   0.369   0.393
  0.415   0.451   0.480   0.482   0.522   0.542   0.561   0.577
  0.613   0.655   0.683   0.712   0.736   0.746   0.767   0.782
  0.792   0.814   0.827   0.833   0.868   0.874   0.893   0.912
  0.926   0.941   0.953   1.052   1.115   1.121   1.170   1.193
  1.362   1.430   1.464   1.559   1.668   1.754   1.834   1.866
  1.920   1.966   2.012   2.032   2.072   2.085   2.091   2.098
  2.109   2.119   2.133   2.274   2.310   2.344   2.397   2.495
  2.549   2.582   2.625   2.690   2.724   2.735   2.748   2.820
  2.858   2.908   3.174   3.262   3.382   3.407   3.455   3.507
  3.952   3.986   4.248   4.390   4.586
 
 Beta MOs
 -- Occupied --
-88.905 -88.850 -10.250 -10.201 -10.195  -7.966  -7.911  -5.930
 -5.926  -5.921  -5.876  -5.869  -5.867  -0.826  -0.720  -0.682
 -0.654  -0.582  -0.481  -0.448  -0.428  -0.412  -0.385  -0.367
 -0.360  -0.335  -0.271  -0.217
 -- Virtual --
 -0.118  -0.076   0.015   0.056   0.088   0.098   0.121   0.141
  0.155   0.164   0.192   0.227   0.257   0.306   0.334   0.347
  0.381   0.402   0.424   0.472   0.486   0.492   0.533   0.556
  0.576   0.607   0.625   0.668   0.708   0.721   0.745   0.758
  0.774   0.790   0.818   0.826   0.841   0.850   0.876   0.878
  0.906   0.920   0.935   0.965   0.970   1.068   1.122   1.127
  1.183   1.202   1.380   1.431   1.498   1.566   1.675   1.755
  1.835   1.875   1.939   1.990   2.017   2.033   2.076   2.086
  2.097   2.099   2.110   2.125   2.142   2.280   2.311   2.348
  2.405   2.509   2.563   2.595   2.630   2.692   2.726   2.737
  2.752   2.822   2.859   2.911   3.175   3.265   3.386   3.409
  3.456   3.513   3.960   4.000   4.264   4.402   4.591
 --------------------------------------------------------------
 
          Ground-State Mulliken Net Atomic Charges

     Atom                 Charge (a.u.)    Spin (a.u.)
  --------------------------------------------------------
      1 S                     0.028343       0.388928
      2 S                    -0.249833       0.793559
      3 C                    -0.220723      -0.087003
      4 C                    -0.188513       0.980750
      5 C                    -0.308527       0.011448
      6 H                     0.153353       0.006166
      7 H                     0.122502      -0.043538
      8 H                     0.147539      -0.042801
      9 H                     0.126467       0.000781
     10 H                     0.115662      -0.001151
     11 H                     0.126731       0.004766
     12 H                     0.094065      -0.010855
     13 H                     0.052935      -0.001050
  --------------------------------------------------------
  Sum of atomic charges =    -0.000000
  Sum of spin   charges =     2.000000

 -----------------------------------------------------------------
                    Cartesian Multipole Moments
 -----------------------------------------------------------------
    Charge (ESU x 10^10)
                -0.0000
    Dipole Moment (Debye)
         X       2.9322      Y       0.7526      Z       0.0727
       Tot       3.0281
    Quadrupole Moments (Debye-Ang)
        XX     -51.7208     XY       0.8648     YY     -45.2155
        XZ       1.8676     YZ      -1.0671     ZZ     -46.8520
    Octopole Moments (Debye-Ang^2)
       XXX      57.3717    XXY      11.3501    XYY       7.5940
       YYY      30.9738    XXZ      -6.1886    XYZ      -3.5458
       YYZ      -1.2174    XZZ      20.2921    YZZ      14.4580
       ZZZ     -12.8178
    Hexadecapole Moments (Debye-Ang^3)
      XXXX    -852.6369   XXXY     -80.4471   XXYY    -183.5788
      XYYY     -82.0882   YYYY    -371.4417   XXXZ      42.1559
      XXYZ      -0.8410   XYYZ      17.5580   YYYZ     -19.3698
      XXZZ    -170.0824   XYZZ     -37.6470   YYZZ     -82.9830
      XZZZ      46.1740   YZZZ     -10.1984   ZZZZ    -112.7988
 -----------------------------------------------------------------
 Calculating analytic gradient of the SCF energy
 Gradient of SCF Energy
            1           2           3           4           5           6
    1   0.0006164   0.0058928  -0.0005879  -0.0062684   0.0000962  -0.0000356
    2   0.0001269   0.0067577  -0.0006658  -0.0065758  -0.0000420   0.0002319
    3  -0.0000813   0.0002325   0.0002376  -0.0004729   0.0000086   0.0000361
            7           8           9          10          11          12
    1   0.0001086  -0.0003092   0.0000624  -0.0000172   0.0000074  -0.0002689
    2   0.0000619   0.0000096   0.0000405   0.0000305   0.0000454   0.0000310
    3   0.0000054   0.0001127   0.0000224   0.0000187   0.0000366   0.0000021
           13
    1   0.0007035
    2  -0.0000517
    3  -0.0001586
 Max gradient component =       6.758E-03
 RMS gradient           =       2.058E-03
 Gradient time:  CPU 11.33 s  wall 1.01 s
 Geometry Optimization Parameters
   NAtoms,    NIC,     NZ,  NCons,   NDum,   NFix, NCnnct, MaxDiis
       13      77       0       1       0       0       0       0

 Cartesian Hessian Update
 Hessian Updated using BFGS Update


** CONSTRAINED OPTIMIZATION IN DELOCALIZED INTERNAL COORDINATES **
   Searching for a Minimum

   Optimization Cycle:   4

                       Coordinates (Angstroms)
     ATOM                X               Y               Z
      1  S         0.2781509354   -1.3598346587   -0.3305147155
      2  S        -2.4764035989   -0.7189872688    0.3967314984
      3  C         0.6694258210    0.5257453334   -0.3428053112
      4  C        -0.3723393428    1.2765241553    0.3676202757
      5  C         2.0865696209    0.7388222068    0.1922881391
      6  H         0.6309476878    0.7260592962   -1.4176019753
      7  H        -0.3283821586    1.3759224697    1.4473767109
      8  H        -1.2349859566    1.6709703971   -0.1513705252
      9  H         2.3701277097    1.7898119282    0.0713523909
     10  H         2.1419810365    0.4998024470    1.2596642838
     11  H         2.8130001825    0.1187022774   -0.3388810344
     12  H         0.4760316031   -1.5389941213    0.9904455287
     13  H        -2.8144215401   -1.9795464623    0.0446917340
   Point Group: c1    Number of degrees of freedom:    33


   Energy is   -915.418628754

              Constraints and their Current Values
                                        Value     Constraint
   Distance(Angs):        2   4             2.900000     2.900000
 Hessian Updated using BFGS Update

 29 Hessian modes will be used to form the next step
  Hessian Eigenvalues:
     0.030507    0.044964    0.045000    0.045109    0.045346    0.071834
     0.080950    0.082547    0.084231    0.098032    0.112811    0.143814
     0.159674    0.159994    0.160813    0.165759    0.183453    0.205491
     0.255235    0.258032    0.295153    0.330702    0.342163    0.342315
     0.343560    0.344856    0.353500    0.416315    0.544525

 Minimum Search - Taking Simple RFO Step
 Searching for Lamda that Minimizes Along All modes
 Value Taken    Lamda =  -0.00005023
 Step Taken.  Stepsize is  0.036490

                             Maximum     Tolerance    Cnvgd?
         Gradient           0.000725      0.000300      NO
         Displacement       0.014550      0.001200      NO
         Energy change     -0.000101      0.000001      NO


 New Cartesian Coordinates Obtained by Inverse Iteration

 Displacement from previous Coordinates is:  0.069682
 ----------------------------------------------------------------
             Standard Nuclear Orientation (Angstroms)
    I     Atom           X                Y                Z
 ----------------------------------------------------------------
    1      S       0.2759788950    -1.3602680372    -0.3198064328
    2      S      -2.4761432007    -0.7214968931     0.3843792617
    3      C       0.6700207309     0.5254983899    -0.3394999054
    4      C      -0.3719402902     1.2740473638     0.3728496744
    5      C       2.0886796919     0.7408732223     0.1895877382
    6      H       0.6275633487     0.7223388045    -1.4147717041
    7      H      -0.3291290155     1.3734928749     1.4525463232
    8      H      -1.2335996042     1.6686626170    -0.1484045867
    9      H       2.3704188599     1.7917799690     0.0645468970
   10      H       2.1485462598     0.5046831080     1.2573604985
   11      H       2.8133795035     0.1197852397    -0.3429427160
   12      H       0.4903050062    -1.5370405775     0.9990659540
   13      H      -2.8343781851    -1.9773580813     0.0340859981
 ----------------------------------------------------------------
 Nuclear Repulsion Energy =   275.2244291714 hartrees
 There are       30 alpha and       28 beta electrons

                       Distance Matrix (Angstroms)
             S (  1)   S (  2)   C (  3)   C (  4)   C (  5)   H (  6)
   S (  2)  2.911715
   C (  3)  1.926596  3.460830
   C (  4)  2.799855  2.900000  1.467464
   C (  5)  2.821376  4.797299  1.529351  2.524383
   H (  6)  2.379036  3.867118  1.093964  2.121080  2.170063
   H (  7)  3.313735  3.184279  2.220096  1.085112  2.800191  3.092050
   H (  8)  3.388602  2.746022  2.228702  1.081612  3.465916  2.441955
   H (  9)  3.803921  5.468822  2.158258  2.807781  1.095179  2.523813
   H ( 10)  3.077663  4.863473  2.176335  2.779772  1.095221  3.082378
   H ( 11)  2.937600  5.405165  2.181422  3.462794  1.092945  2.507924
   H ( 12)  1.347816  3.137318  2.465385  3.006298  2.898094  3.309116
   H ( 13)  3.190668  1.352119  4.322577  4.092676  5.625785  4.623050
             H (  7)   H (  8)   H (  9)   H ( 10)   H ( 11)   H ( 12)
   H (  8)  1.862320
   H (  9)  3.064158  3.612403
   H ( 10)  2.632832  3.843167  1.768799
   H ( 11)  3.830264  4.337615  1.777028  1.775139
   H ( 12)  3.057503  3.816421  3.935632  2.642937  3.153210
   H ( 13)  4.417749  3.986134  6.426293  5.699690  6.036334  3.489783

 
 Applying Cartesian multipole field
    Component          Value
    ---------          -----
     (2,0,0)        1.00000E-11
     (0,2,0)        2.00000E-11
     (0,0,2)       -3.00000E-10
 Nucleus-field energy     =    -0.0000000030 hartrees
 Requested basis set is 6-31G(d,p)
 There are 46 shells and 123 basis functions
 A cutoff of  1.0D-14 yielded   1006 shell pairs
 There are      7397 function pairs
 Smallest overlap matrix eigenvalue = 5.69E-03
 Guess from superposition of atomic densities
 Warning:  Energy on first SCF cycle will be non-variational
[...]
 ----------------------------------------------------------------
 Nuclear Repulsion Energy =   275.0836109447 hartrees
 There are       30 alpha and       28 beta electrons

                       Distance Matrix (Angstroms)
             S (  1)   S (  2)   C (  3)   C (  4)   C (  5)   H (  6)
   S (  2)  2.913941
   C (  3)  1.928778  3.459725
   C (  4)  2.807340  2.900000  1.468023
   C (  5)  2.820187  4.790014  1.529333  2.523740
   H (  6)  2.379070  3.874480  1.093842  2.121825  2.170337
   H (  7)  3.318113  3.170377  2.220359  1.085057  2.800707  3.092948
   H (  8)  3.398473  2.759799  2.229135  1.081138  3.464541  2.442805
   H (  9)  3.803455  5.464151  2.158199  2.806262  1.095208  2.524508
   H ( 10)  3.077269  4.849180  2.176412  2.779106  1.095222  3.082581
   H ( 11)  2.933803  5.399276  2.181501  3.462607  1.092906  2.508011
   H ( 12)  1.347784  3.139538  2.466724  3.019492  2.890010  3.308263
   H ( 13)  3.227237  1.352293  4.350812  4.109666  5.647121  4.663711
             H (  7)   H (  8)   H (  9)   H ( 10)   H ( 11)   H ( 12)
   H (  8)  1.861622
   H (  9)  3.065465  3.609334
   H ( 10)  2.632740  3.841833  1.768671
   H ( 11)  3.830581  4.337006  1.776896  1.775237
   H ( 12)  3.069034  3.833230  3.929805  2.635454  3.138656
   H ( 13)  4.414002  4.011469  6.448469  5.708699  6.063888  3.512721

 
 Applying Cartesian multipole field
    Component          Value
    ---------          -----
     (2,0,0)        1.00000E-11
     (0,2,0)        2.00000E-11
     (0,0,2)       -3.00000E-10
 Nucleus-field energy     =    -0.0000000032 hartrees
 Requested basis set is 6-31G(d,p)
 There are 46 shells and 123 basis functions
 A cutoff of  1.0D-14 yielded   1006 shell pairs
 There are      7397 function pairs
 Smallest overlap matrix eigenvalue = 5.70E-03
 Guess from superposition of atomic densities
 Warning:  Energy on first SCF cycle will be non-variational
 SAD guess density has 58.000000 electrons

 -----------------------------------------------------------------------
  General SCF calculation program by
  Eric Jon Sundstrom, Paul Horn, Yuezhi Mao, Dmitri Zuev, Alec White,
  David Stuck, Shaama M.S., Shane Yost, Joonho Lee, David Small,
  Daniel Levine, Susi Lehtola, Hugh Burton, Evgeny Epifanovsky
 -----------------------------------------------------------------------
 Exchange:     0.2000 Hartree-Fock + 0.0800 Slater + 0.7200 B88
 Correlation:  0.1900 VWN1RPA + 0.8100 LYP
 Using SG-1 standard quadrature grid
 using 12 threads for integral computing
 -------------------------------------------------------
 OpenMP Integral computing Module                
 Release: version 1.0, May 2013, Q-Chem Inc. Pittsburgh 
 -------------------------------------------------------
 -------------------------------------------------------
 OpenMP BLAS3 based DFT computing Module                
 Release: version 1.0, May 2013, Q-Chem Inc. Pittsburgh 
 -------------------------------------------------------
 A unrestricted SCF calculation will be
 performed using DIIS
 SCF converges when DIIS error is below 1.0e-06
 Alpha HF Exchange    Energy =  -6.82887946839372
 Beta HF Exchange     Energy =  -6.82887946839372
 DFT Correlation      Energy =  -2.70238255893900
 DFT Exchange         Energy = -53.81847327904045
 One-Electron (alpha) Energy = -901.04166303435886
 One-Electron (beta)  Energy = -901.04166303435886
 Total Coulomb        Energy = 681.34949686732318
 ---------------------------------------
  Cycle       Energy         DIIS error
 ---------------------------------------
    1    -915.8288330347      2.61e-02  
 Alpha HF Exchange    Energy =  -6.95701765167524
 Beta HF Exchange     Energy =  -6.75441926201099
 DFT Correlation      Energy =  -2.72343026828715
 DFT Exchange         Energy = -54.42008258313866
 One-Electron (alpha) Energy = -920.27784334513717
 One-Electron (beta)  Energy = -888.87586291984735
 Total Coulomb        Energy = 689.61211043446281
    2    -915.3129346542      3.21e-03  
 Alpha HF Exchange    Energy =  -6.90139497136913
 Beta HF Exchange     Energy =  -6.71830343010339
 DFT Correlation      Energy =  -2.69681182260974
 DFT Exchange         Energy = -54.01090173264822
 One-Electron (alpha) Energy = -917.01526159025184
 One-Electron (beta)  Energy = -886.25662357684098
 Total Coulomb        Energy = 683.27284050190246
    3    -915.2428456805      4.25e-03  
 Alpha HF Exchange    Energy =  -6.92696261642771
 Beta HF Exchange     Energy =  -6.72867993155331
 DFT Correlation      Energy =  -2.70797186535963
 DFT Exchange         Energy = -54.16942599696989
 One-Electron (alpha) Energy = -918.33039109547531
 One-Electron (beta)  Energy = -887.06393705161031
 Total Coulomb        Energy = 685.42877319888612
    4    -915.4149844170      5.63e-04  
 Alpha HF Exchange    Energy =  -6.93271625156427
 Beta HF Exchange     Energy =  -6.73512612891878
 DFT Correlation      Energy =  -2.70915020578590
 DFT Exchange         Energy = -54.21435731363641
 One-Electron (alpha) Energy = -918.76909928979512
 One-Electron (beta)  Energy = -887.50422938183408
 Total Coulomb        Energy = 686.36337315915591
    5    -915.4176944709      2.99e-04  
 Alpha HF Exchange    Energy =  -6.93238877378632
 Beta HF Exchange     Energy =  -6.73390658069284
 DFT Correlation      Energy =  -2.70861592495715
 DFT Exchange         Energy = -54.20750607920613
 One-Electron (alpha) Energy = -918.68865209987382
 One-Electron (beta)  Energy = -887.38415336627838
 Total Coulomb        Energy = 686.15299835770907
    6    -915.4186135256      6.89e-05  
 Alpha HF Exchange    Energy =  -6.93224286920701
 Beta HF Exchange     Energy =  -6.73391896414977
 DFT Correlation      Energy =  -2.70846393036172
 DFT Exchange         Energy = -54.20624419662241
 One-Electron (alpha) Energy = -918.66884998856085
 One-Electron (beta)  Energy = -887.37116151323983
 Total Coulomb        Energy = 686.11859900322850
    7    -915.4186715175      2.80e-05  
 Alpha HF Exchange    Energy =  -6.93245999248178
 Beta HF Exchange     Energy =  -6.73402239175138
 DFT Correlation      Energy =  -2.70844221227097
 DFT Exchange         Energy = -54.20726426680597
 One-Electron (alpha) Energy = -918.68151863879325
 One-Electron (beta)  Energy = -887.37891524497411
 Total Coulomb        Energy = 686.14032999980191
    8    -915.4186818058      1.06e-05  
 Alpha HF Exchange    Energy =  -6.93246381667178
 Beta HF Exchange     Energy =  -6.73405954152903
 DFT Correlation      Energy =  -2.70843079041542
 DFT Exchange         Energy = -54.20737130594156
 One-Electron (alpha) Energy = -918.68020713664043
 One-Electron (beta)  Energy = -887.37898896446143
 Total Coulomb        Energy = 686.13922754468319
    9    -915.4186830695      4.49e-06  
 Alpha HF Exchange    Energy =  -6.93245150862312
 Beta HF Exchange     Energy =  -6.73403972286674
 DFT Correlation      Energy =  -2.70841974126578
 DFT Exchange         Energy = -54.20723135619733
 One-Electron (alpha) Energy = -918.67798489007350
 One-Electron (beta)  Energy = -887.37690886648443
 Total Coulomb        Energy = 686.13474185283326
   10    -915.4186832912      1.62e-06  
 Alpha HF Exchange    Energy =  -6.93245999546613
 Beta HF Exchange     Energy =  -6.73404756748787
 DFT Correlation      Energy =  -2.70842308119487
 DFT Exchange         Energy = -54.20729979228022
 One-Electron (alpha) Energy = -918.67904761756392
 One-Electron (beta)  Energy = -887.37796624365308
 Total Coulomb        Energy = 686.13695001681174
   11    -915.4186833394      5.37e-07  Convergence criterion met
 ---------------------------------------
 SCF time:   CPU 33.82s  wall 3.00s 
<S^2> =          2.008573980
 Alpha HF Exchange    Energy =  -6.93245999546613
 Beta HF Exchange     Energy =  -6.73404756748787
 DFT Correlation      Energy =  -2.70842308119487
 DFT Exchange         Energy = -54.20729979228022
 One-Electron (alpha) Energy = -918.67904761756392
 One-Electron (beta)  Energy = -887.37796624365308
 Total Coulomb        Energy = 686.13695001681174
 Nuclear repulsion Energy = 275.08361094146079
 SCF   energy in the final basis set =     -915.4186833394
 Total energy in the final basis set =     -915.4186833394
 
 --------------------------------------------------------------
 
                    Orbital Energies (a.u.)
 --------------------------------------------------------------
 
 Alpha MOs
 -- Occupied --
-88.907 -88.855 -10.249 -10.208 -10.202  -7.969  -7.916  -5.933
 -5.929  -5.927  -5.884  -5.878  -5.869  -0.835  -0.733  -0.704
 -0.684  -0.592  -0.486  -0.453  -0.435  -0.418  -0.391  -0.378
 -0.366  -0.346  -0.311  -0.229  -0.223  -0.212
 -- Virtual --
  0.004   0.045   0.077   0.096   0.119   0.130   0.154   0.162
  0.186   0.222   0.249   0.297   0.324   0.336   0.368   0.395
  0.415   0.452   0.480   0.483   0.522   0.545   0.560   0.575
  0.612   0.657   0.689   0.712   0.737   0.744   0.767   0.783
  0.792   0.814   0.827   0.833   0.868   0.873   0.894   0.912
  0.926   0.942   0.953   1.048   1.114   1.119   1.174   1.193
  1.363   1.430   1.464   1.559   1.667   1.753   1.834   1.865
  1.919   1.965   2.012   2.032   2.071   2.085   2.090   2.099
  2.109   2.120   2.133   2.274   2.311   2.344   2.397   2.494
  2.548   2.582   2.626   2.690   2.724   2.735   2.747   2.820
  2.858   2.908   3.174   3.262   3.383   3.407   3.454   3.507
  3.952   3.986   4.248   4.391   4.586
 
 Beta MOs
 -- Occupied --
-88.905 -88.850 -10.250 -10.202 -10.195  -7.966  -7.911  -5.930
 -5.926  -5.921  -5.875  -5.869  -5.866  -0.826  -0.720  -0.682
 -0.654  -0.582  -0.481  -0.448  -0.428  -0.412  -0.385  -0.367
 -0.360  -0.335  -0.270  -0.216
 -- Virtual --
 -0.116  -0.077   0.015   0.055   0.090   0.099   0.121   0.141
  0.155   0.164   0.192   0.227   0.257   0.305   0.334   0.347
  0.381   0.404   0.424   0.473   0.487   0.493   0.533   0.558
  0.575   0.605   0.624   0.668   0.714   0.721   0.746   0.755
  0.775   0.791   0.817   0.826   0.841   0.851   0.875   0.878
  0.906   0.920   0.935   0.966   0.971   1.063   1.121   1.125
  1.187   1.203   1.380   1.431   1.498   1.566   1.674   1.754
  1.835   1.874   1.938   1.989   2.016   2.033   2.075   2.086
  2.097   2.100   2.110   2.125   2.142   2.279   2.312   2.347
  2.406   2.508   2.562   2.595   2.630   2.692   2.726   2.736
  2.751   2.822   2.859   2.910   3.175   3.264   3.387   3.409
  3.455   3.513   3.960   4.000   4.263   4.403   4.591
 --------------------------------------------------------------
 
          Ground-State Mulliken Net Atomic Charges

     Atom                 Charge (a.u.)    Spin (a.u.)
  --------------------------------------------------------
      1 S                     0.029527       0.390056
      2 S                    -0.250733       0.792759
      3 C                    -0.220399      -0.087732
      4 C                    -0.187966       0.980381
      5 C                    -0.308970       0.011797
      6 H                     0.153445       0.005900
      7 H                     0.123286      -0.043460
      8 H                     0.147360      -0.042888
      9 H                     0.126679       0.000818
     10 H                     0.115824      -0.001170
     11 H                     0.127009       0.004843
     12 H                     0.093001      -0.011044
     13 H                     0.051937      -0.000260
  --------------------------------------------------------
  Sum of atomic charges =     0.000000
  Sum of spin   charges =     2.000000

 -----------------------------------------------------------------
                    Cartesian Multipole Moments
 -----------------------------------------------------------------
    Charge (ESU x 10^10)
                 0.0000
    Dipole Moment (Debye)
         X       2.9285      Y       0.7697      Z       0.0943
       Tot       3.0295
    Quadrupole Moments (Debye-Ang)
        XX     -51.5367     XY       0.8898     YY     -45.1925
        XZ       1.8417     YZ      -1.1361     ZZ     -46.8792
    Octopole Moments (Debye-Ang^2)
       XXX      56.1522    XXY      11.0966    XYY       7.4024
       YYY      31.2161    XXZ      -5.7817    XYZ      -3.4540
       YYZ      -0.9912    XZZ      20.1087    YZZ      14.5736
       ZZZ     -12.2716
    Hexadecapole Moments (Debye-Ang^3)
      XXXX    -847.9313   XXXY     -79.4925   XXYY    -182.9542
      XYYY     -82.5232   YYYY    -372.6962   XXXZ      40.6903
      XXYZ      -1.5060   XYYZ      17.1642   YYYZ     -19.8564
      XXZZ    -169.7773   XYZZ     -37.7383   YYZZ     -83.2456
      XZZZ      45.1228   YZZZ     -10.5439   ZZZZ    -112.3849
 -----------------------------------------------------------------
 Calculating analytic gradient of the SCF energy
 Gradient of SCF Energy
            1           2           3           4           5           6
    1   0.0000840   0.0063582  -0.0000958  -0.0062267   0.0000095   0.0000067
    2  -0.0000501   0.0060245   0.0000350  -0.0059657  -0.0000202  -0.0000151
    3  -0.0000200  -0.0000867   0.0000523  -0.0000014   0.0000076  -0.0000044
            7           8           9          10          11          12
    1  -0.0000144  -0.0000667  -0.0000026  -0.0000148   0.0000040  -0.0000290
    2   0.0000116  -0.0000815   0.0000155   0.0000267   0.0000166   0.0000112
    3  -0.0000063   0.0000025   0.0000049   0.0000144   0.0000222   0.0000200
           13
    1  -0.0000125
    2  -0.0000085
    3  -0.0000051
 Max gradient component =       6.358E-03
 RMS gradient           =       1.969E-03
 Gradient time:  CPU 11.34 s  wall 1.01 s
 Geometry Optimization Parameters
   NAtoms,    NIC,     NZ,  NCons,   NDum,   NFix, NCnnct, MaxDiis
       13      77       0       1       0       0       0       0

 Cartesian Hessian Update
 Hessian Updated using BFGS Update


** CONSTRAINED OPTIMIZATION IN DELOCALIZED INTERNAL COORDINATES **
   Searching for a Minimum

   Optimization Cycle:  10

                       Coordinates (Angstroms)
     ATOM                X               Y               Z
      1  S         0.2826914401   -1.3604574794   -0.3347709998
      2  S        -2.4682939026   -0.7266335381    0.3873072128
      3  C         0.6717828825    0.5286480130   -0.3433643690
      4  C        -0.3727506574    1.2779180789    0.3656041398
      5  C         2.0873102889    0.7409518836    0.1952156096
      6  H         0.6358491182    0.7278924468   -1.4183068426
      7  H        -0.3383700339    1.3693991869    1.4462508094
      8  H        -1.2292157884    1.6781028709   -0.1589700362
      9  H         2.3707011493    1.7920478210    0.0753473313
     10  H         2.1404045656    0.5014858916    1.2626181858
     11  H         2.8148750193    0.1211790900   -0.3348558998
     12  H         0.5038054154   -1.5450580582    0.9818730989
     13  H        -2.8590874970   -1.9804782070    0.0650487598
   Point Group: c1    Number of degrees of freedom:    33


   Energy is   -915.418683339

              Constraints and their Current Values
                                        Value     Constraint
   Distance(Angs):        2   4             2.900000     2.900000
 Hessian Updated using BFGS Update

 32 Hessian modes will be used to form the next step
  Hessian Eigenvalues:
     0.006547    0.016509    0.044998    0.045001    0.045130    0.049304
     0.071929    0.080067    0.082554    0.084241    0.097722    0.111516
     0.117789    0.159928    0.159991    0.160038    0.160467    0.161377
     0.165690    0.177302    0.205628    0.255283    0.258018    0.295711
     0.332388    0.342189    0.342337    0.343668    0.344865    0.353531
     0.418532    0.556514

 Minimum Search - Taking Simple RFO Step
 Searching for Lamda that Minimizes Along All modes
 Value Taken    Lamda =   0.00000000
 Step Taken.  Stepsize is  0.007270

                             Maximum     Tolerance    Cnvgd?
         Gradient           0.000081      0.000300     YES
         Displacement       0.003677      0.001200      NO
         Energy change     -0.000001      0.000001     YES


                       Distance Matrix (Angstroms)
             S (  1)   S (  2)   C (  3)   C (  4)   C (  5)   H (  6)
   S (  2)  2.913941
   C (  3)  1.928778  3.459725
   C (  4)  2.807340  2.900000  1.468023
   C (  5)  2.820187  4.790014  1.529333  2.523740
   H (  6)  2.379070  3.874480  1.093842  2.121825  2.170337
   H (  7)  3.318113  3.170377  2.220359  1.085057  2.800707  3.092948
   H (  8)  3.398473  2.759799  2.229135  1.081138  3.464541  2.442805
   H (  9)  3.803455  5.464151  2.158199  2.806262  1.095208  2.524508
   H ( 10)  3.077269  4.849180  2.176412  2.779106  1.095222  3.082581
   H ( 11)  2.933803  5.399276  2.181501  3.462607  1.092906  2.508011
   H ( 12)  1.347784  3.139538  2.466724  3.019492  2.890010  3.308263
   H ( 13)  3.227237  1.352293  4.350812  4.109666  5.647121  4.663711
             H (  7)   H (  8)   H (  9)   H ( 10)   H ( 11)   H ( 12)
   H (  8)  1.861622
   H (  9)  3.065465  3.609334
   H ( 10)  2.632740  3.841833  1.768671
   H ( 11)  3.830581  4.337006  1.776896  1.775237
   H ( 12)  3.069034  3.833230  3.929805  2.635454  3.138656
   H ( 13)  4.414002  4.011469  6.448469  5.708699  6.063888  3.512721

 
 Final energy is   -915.418683339374     


 ******************************
 **  OPTIMIZATION CONVERGED  **
 ******************************

                       Coordinates (Angstroms)
     ATOM                X               Y               Z
      1  S         0.2826914401   -1.3604574794   -0.3347709998
      2  S        -2.4682939026   -0.7266335381    0.3873072128
      3  C         0.6717828825    0.5286480130   -0.3433643690
      4  C        -0.3727506574    1.2779180789    0.3656041398
      5  C         2.0873102889    0.7409518836    0.1952156096
      6  H         0.6358491182    0.7278924468   -1.4183068426
      7  H        -0.3383700339    1.3693991869    1.4462508094
      8  H        -1.2292157884    1.6781028709   -0.1589700362
      9  H         2.3707011493    1.7920478210    0.0753473313
     10  H         2.1404045656    0.5014858916    1.2626181858
     11  H         2.8148750193    0.1211790900   -0.3348558998
     12  H         0.5038054154   -1.5450580582    0.9818730989
     13  H        -2.8590874970   -1.9804782070    0.0650487598

Z-matrix Print:
$molecule
0 3
S 
H  1 1.347784
C  1 1.928778 2 96.050558
H  3 1.093842 1 100.145919 2 173.098894 0
C  3 1.468023 1 110.744952 2 -69.710113 0
H  5 1.081138 3 121.215516 1 -91.527555 0
H  5 1.085057 3 120.096929 1 83.392977 0
C  3 1.529333 1 108.730343 2 57.160099 0
H  8 1.092906 3 111.509029 1 52.472904 0
H  8 1.095208 3 109.523035 1 172.699372 0
H  8 1.095222 3 110.961417 1 -68.537229 0
S  6 2.759799 5 86.393743 3 90.195928 0
H  12 1.352293 6 152.934470 5 -97.257309 0
$end

PES scan, value:    2.9000 energy: -915.4186833394
------- Summary of potential scan: ------ 
    2.9000      -915.4186833394
----------------------------------------- 
Archival summary:
1\1\hpc0250\JobtypUnspecified\ProcedureUnspecified\6-31G**\238(3)\knomura\ThuMar1401:45:392019ThuMar1401:45:392019\0\\#,JobtypUnspecified,ProcedureUnspecified,6-31G**,\\0,3\S\H,1,1.34778\C,1,1.92878,2,96.0506\H,3,1.09384,1,100.146,2,173.099,0\C,3,1.46802,1,110.745,2,-69.7101,0\H,5,1.08114,3,121.216,1,-91.5276,0\H,5,1.08506,3,120.097,1,83.393,0\C,3,1.52933,1,108.73,2,57.1601,0\H,8,1.09291,3,111.509,1,52.4729,0\H,8,1.09521,3,109.523,1,172.699,0\H,8,1.09522,3,110.961,1,-68.5372,0\S,6,2.7598,5,86.3937,3,90.1959,0\H,12,1.35229,6,152.934,5,-97.2573,0\\\@

 Total job time:  49.66s(wall), 513.18s(cpu) 
 Thu Mar 14 01:45:39 2019

        *************************************************************
        *                                                           *
        *  Thank you very much for using Q-Chem.  Have a nice day.  *
        *                                                           *
        *************************************************************


