
Running Job 1 of 1 thiol/03/C-S.xyz.data/inputs/bond_triplet_3.1.in
qchem thiol/03/C-S.xyz.data/inputs/bond_triplet_3.1.in_29961.0 /staging/scratch/2868767/qchem29961/ 1
/usr/usc/qchem/5.1.1/exe/qcprog.exe_s thiol/03/C-S.xyz.data/inputs/bond_triplet_3.1.in_29961.0 /staging/scratch/2868767/qchem29961/
Check license passed

                  Welcome to Q-Chem
     A Quantum Leap Into The Future Of Chemistry


 Q-Chem 5.1, Q-Chem, Inc., Pleasanton, CA (2018)

 Yihan Shao,  Zhengting Gan,  E. Epifanovsky,  A. T. B. Gilbert,  M. Wormit,  
 J. Kussmann,  A. W. Lange,  A. Behn,  Jia Deng,  Xintian Feng,  D. Ghosh,  
 M. Goldey,  P. R. Horn,  L. D. Jacobson,  I. Kaliman,  T. Kus,  A. Landau,  
 Jie Liu,  E. I. Proynov,  R. M. Richard,  R. P. Steele,  E. J. Sundstrom,  
 H. L. Woodcock III,  P. M. Zimmerman,  D. Zuev,  B. Albrecht,  E. Alguire,  
 S. A. Baeppler,  D. Barton,  Z. Benda,  Y. A. Bernard,  E. J. Berquist,  
 K. B. Bravaya,  H. Burton,  D. Casanova,  Chun-Min Chang,  Yunqing Chen,  
 A. Chien,  K. D. Closser,  M. P. Coons,  S. Coriani,  S. Dasgupta,  
 A. L. Dempwolff,  M. Diedenhofen,  Hainam Do,  R. G. Edgar,  Po-Tung Fang,  
 S. Faraji,  S. Fatehi,  Qingguo Feng,  K. D. Fenk,  J. Fosso-Tande,  
 Qinghui Ge,  A. Ghysels,  G. Gidofalvi,  J. Gomes,  J. Gonthier,  A. Gunina,  
 D. Hait,  M. W. D. Hanson-Heine,  P. H. P. Harbach,  A. W. Hauser,  
 J. E. Herr,  E. G. Hohenstein,  Z. C. Holden,  Kerwin Hui,  B. C. Huynh,  
 T.-C. Jagau,  Hyunjun Ji,  B. Kaduk,  K. Khistyaev,  Jaehoon Kim,  
 P. Klunzinger,  K. Koh,  D. Kosenkov,  L. Koulias,  T. Kowalczyk,  
 C. M. Krauter,  A. Kunitsa,  Ka Un Lao,  A. Laurent,  K. V. Lawler,  
 Joonho Lee,  D. Lefrancois,  S. Lehtola,  D. S. Levine,  Yi-Pei Li,  
 You-Sheng Lin,  Fenglai Liu,  E. Livshits,  A. Luenser,  P. Manohar,  
 E. Mansoor,  S. F. Manzer,  Shan-Ping Mao,  Yuezhi Mao,  N. Mardirossian,  
 A. V. Marenich,  T. Markovich,  L. A. Martinez-Martinez,  S. A. Maurer,  
 N. J. Mayhall,  S. C. McKenzie,  J.-M. Mewes,  A. F. Morrison,  
 J. W. Mullinax,  K. Nanda,  T. S. Nguyen-Beck,  R. Olivares-Amaya,  
 J. A. Parkhill,  T. M. Perrine,  F. Plasser,  P. Pokhilko,  S. Prager,  
 A. Prociuk,  E. Ramos,  D. R. Rehn,  F. Rob,  M. Schneider,  N. Sergueev,  
 S. M. Sharada,  S. Sharma,  D. W. Small,  T. Stauch,  T. Stein,  
 Yu-Chuan Su,  A. J. W. Thom,  A. Tkatchenko,  T. Tsuchimochi,  N. M. Tubman,  
 L. Vogt,  M. L. Vidal,  O. Vydrov,  M. A. Watson,  J. Wenzel,  
 M. de Wergifosse,  T. A. Wesolowski,  A. White,  J. Witte,  A. Yamada,  
 Jun Yang,  K. Yao,  S. Yeganeh,  S. R. Yost,  Zhi-Qiang You,  A. Zech,  
 Igor Ying Zhang,  Xing Zhang,  Yan Zhao,  Ying Zhu,  B. R. Brooks,  
 G. K. L. Chan,  C. J. Cramer,  M. S. Gordon,  W. J. Hehre,  A. Klamt,  
 M. W. Schmidt,  C. D. Sherrill,  D. G. Truhlar,  A. Aspuru-Guzik,  R. Baer,  
 A. T. Bell,  N. A. Besley,  Jeng-Da Chai,  A. E. DePrince, III,  
 R. A. DiStasio Jr.,  A. Dreuw,  B. D. Dunietz,  T. R. Furlani,  
 Chao-Ping Hsu,  Yousung Jung,  Jing Kong,  D. S. Lambrecht,  WanZhen Liang,  
 C. Ochsenfeld,  V. A. Rassolov,  L. V. Slipchenko,  J. E. Subotnik,  
 T. Van Voorhis,  J. M. Herbert,  A. I. Krylov,  P. M. W. Gill,  M. Head-Gordon

 Contributors to earlier versions of Q-Chem not listed above: 
 R. D. Adamson,  B. Austin,  J. Baker,  G. J. O. Beran,  K. Brandhorst,  
 S. T. Brown,  E. F. C. Byrd,  A. K. Chakraborty,  C.-L. Cheng,  
 Siu Hung Chien,  D. M. Chipman,  D. L. Crittenden,  H. Dachsel,  
 R. J. Doerksen,  A. D. Dutoi,  L. Fusti-Molnar,  W. A. Goddard III,  
 A. Golubeva-Zadorozhnaya,  S. R. Gwaltney,  G. Hawkins,  A. Heyden,  
 S. Hirata,  G. Kedziora,  F. J. Keil,  C. Kelley,  Jihan Kim,  R. A. King,  
 R. Z. Khaliullin,  P. P. Korambath,  W. Kurlancheek,  A. M. Lee,  M. S. Lee,  
 S. V. Levchenko,  Ching Yeh Lin,  D. Liotard,  R. C. Lochan,  I. Lotan,  
 P. E. Maslen,  N. Nair,  D. P. O'Neill,  D. Neuhauser,  E. Neuscamman,  
 C. M. Oana,  R. Olson,  B. Peters,  R. Peverati,  P. A. Pieniazek,  
 Y. M. Rhee,  J. Ritchie,  M. A. Rohrdanz,  E. Rosta,  N. J. Russ,  
 H. F. Schaefer III,  N. E. Schultz,  N. Shenvi,  A. C. Simmonett,  A. Sodt,  
 D. Stuck,  K. S. Thanthiriwatte,  V. Vanovschi,  Tao Wang,  A. Warshel,  
 C. F. Williams,  Q. Wu,  X. Xu,  W. Zhang

 Please cite Q-Chem as follows:
 Y. Shao et al., Mol. Phys. 113, 184-215 (2015)
 DOI: 10.1080/00268976.2014.952696

 Q-Chem 5.1.1 for Intel X86 EM64T Linux

 Parts of Q-Chem use Armadillo 8.300.2 (Tropical Shenanigans).
 http://arma.sourceforge.net/

 Q-Chem begins on Thu Mar 14 01:42:32 2019  

Host: 
0

     Scratch files written to /staging/scratch/2868767/qchem29961//
 Aug318 |scratch|qcdevops|jenkins|workspace|build_RNUM 6013   
Processing $rem in /usr/usc/qchem/5.1.1/config/preferences.
 MEM_TOTAL  2000 
Input Ideriv = 2
Curr. Ideriv = -1
Max.  Ideriv = 2

Checking the input file for inconsistencies... 	...done.

--------------------------------------------------------------
User input:
--------------------------------------------------------------

$comment
potential surface scanner
$end

$rem
JOBTYPE  PES_SCAN
UNRESTRICTED TRUE
SYM_IGNORE  TRUE
GEOM_OPT_MAX_CYCLES 400
SCF_MAX_CYCLES 400
METHOD   B3LYP
BASIS   6-31G**
PDB_PRINT 2
SCF_CONVERGENCE 6
THRESH 14
SCF_PRINT 1
$end
$molecule
0 3
S 0.248898 -1.345587 -0.140757
S -2.635309 -0.861547 0.251656
C 0.668431 0.526924 -0.287059
C -0.309016 1.325662 0.462554
C 2.124192 0.747380 0.125979
H 0.545308 0.667319 -1.365210
H -0.159260 1.506694 1.522887
H -1.252578 1.612273 0.018363
H 2.406051 1.787765 -0.069345
H 2.259630 0.560013 1.196056
H 2.801867 0.092853 -0.427335
H 0.377996 -1.416373 1.198558
H -2.836507 -2.078378 -0.297348
$end
$scan
stre 2 4 3.100000 3.101000 0.100000
$end
--------------------------------------------------------------
 ----------------------------------------------------------------
             Standard Nuclear Orientation (Angstroms)
    I     Atom           X                Y                Z
 ----------------------------------------------------------------
    1      S       0.2488980000    -1.3455870000    -0.1407570000
    2      S      -2.6353090000    -0.8615470000     0.2516560000
    3      C       0.6684310000     0.5269240000    -0.2870590000
    4      C      -0.3090160000     1.3256620000     0.4625540000
    5      C       2.1241920000     0.7473800000     0.1259790000
    6      H       0.5453080000     0.6673190000    -1.3652100000
    7      H      -0.1592600000     1.5066940000     1.5228870000
    8      H      -1.2525780000     1.6122730000     0.0183630000
    9      H       2.4060510000     1.7877650000    -0.0693450000
   10      H       2.2596300000     0.5600130000     1.1960560000
   11      H       2.8018670000     0.0928530000    -0.4273350000
   12      H       0.3779960000    -1.4163730000     1.1985580000
   13      H      -2.8365070000    -2.0783780000    -0.2973480000
 ----------------------------------------------------------------
 Nuclear Repulsion Energy =   271.1349227347 hartrees
 There are       30 alpha and       28 beta electrons
 Requested basis set is 6-31G(d,p)
 There are 46 shells and 123 basis functions

 Total QAlloc Memory Limit   2000 MB
 Mega-Array Size       188 MB
 MEM_STATIC part       192 MB
A total of 1 constraints
  
            1
    1   1.0100000
    2   2.0100000
    3   4.0100000
    4   3.1000000
    5   3.1010000
    6   0.1000000
    7   0.0000000
    8   0.0000000
    9   0.0000000
   10   0.0000000

                       Distance Matrix (Angstroms)
             S (  1)   S (  2)   C (  3)   C (  4)   C (  5)   H (  6)
   S (  2)  2.950751
   C (  3)  1.924502  3.623916
   C (  4)  2.794785  3.200000  1.468096
   C (  5)  2.822833  5.025663  1.529196  2.523528
   H (  6)  2.374644  3.881754  1.094203  2.122264  2.173230
   H (  7)  3.327133  3.654506  2.218316  1.086050  2.782456  3.089024
   H (  8)  3.320946  2.843617  2.227452  1.081555  3.487434  2.457561
   H (  9)  3.804774  5.704139  2.157879  2.805003  1.095444  2.529235
   H ( 10)  3.075943  5.183932  2.175463  2.778882  1.094767  3.083910
   H ( 11)  2.944297  5.561905  2.181661  3.462559  1.092614  2.510315
   H ( 12)  1.347383  3.206940  2.463293  2.921035  2.980177  3.307971
   H ( 13)  3.175095  1.350024  4.367184  4.307337  5.724740  4.485070
             H (  7)   H (  8)   H (  9)   H ( 10)   H ( 11)   H ( 12)
   H (  8)  1.862816
   H (  9)  3.032330  3.663885
   H ( 10)  2.618024  3.850950  1.769196
   H ( 11)  3.817144  4.352678  1.776951  1.774164
   H ( 12)  2.989675  3.636527  3.998385  2.728856  3.285794
   H ( 13)  4.830492  4.028574  6.517934  5.929753  6.043377  3.606801

 
 A cutoff of  1.0D-14 yielded   1001 shell pairs
 There are      7337 function pairs
 
 -------------------------------------------------------
 OpenMP Integral Computing Module                       
 Release: version 1.0, May 2013, Q-Chem Inc. Pittsburgh 
 -------------------------------------------------------
 Integral Job Info:
 Integral job number is                      11
 Integral operator is                         1
 short-range coefficients                     0
 long-range coefficients              100000000
 Omega coefficients                           0
 if combine SR and LR in K                    0
 Integral screening is                        0
 Integral computing path is                   2
 max size of driver memory is            800000
 size of driver memory is                593474
 size of scratch memory is             15267112
 max col of scratch BK array               1296
 max len of scratch array in speh3          155
 max len of scratch index in speh4           18
 max int batch size is                      520
 min int batch size is                       52
 fixed nKL is                                52
 max L of basis functions is                  2
 order of int derivative is                   0
 number of shells is                         46
 number of basis is                         123
 number of cartesian basis is               123
 number of contracted shell pairs          1001
 number of primitive shell pairs           3768
 maxK2 (contraction) of shell pair           36
 max number of K2 of shell pair               1
 max number of CS2 of shell pair             82
 max number of PS2 of shell pair            366
 mem total for path MDJ                  519084
 -------------------------------------------------------
 Smallest overlap matrix eigenvalue = 5.83E-03

 Scale SEOQF with 1.000000e-01/1.000000e-01/1.000000e+00

 Standard Electronic Orientation quadrupole field applied
 Guess from superposition of atomic densities
 Warning:  Energy on first SCF cycle will be non-variational
 SAD guess density has 58.000000 electrons

 -----------------------------------------------------------------------
  General SCF calculation program by
  Eric Jon Sundstrom, Paul Horn, Yuezhi Mao, Dmitri Zuev, Alec White,
  David Stuck, Shaama M.S., Shane Yost, Joonho Lee, David Small,
  Daniel Levine, Susi Lehtola, Hugh Burton, Evgeny Epifanovsky
 -----------------------------------------------------------------------
 Exchange:     0.2000 Hartree-Fock + 0.0800 Slater + 0.7200 B88
 Correlation:  0.1900 VWN1RPA + 0.8100 LYP
 Using SG-1 standard quadrature grid
 using 12 threads for integral computing
 -------------------------------------------------------
 OpenMP Integral computing Module                
 Release: version 1.0, May 2013, Q-Chem Inc. Pittsburgh 
 -------------------------------------------------------
 -------------------------------------------------------
 OpenMP BLAS3 based DFT computing Module                
 Release: version 1.0, May 2013, Q-Chem Inc. Pittsburgh 
 -------------------------------------------------------
 A unrestricted SCF calculation will be
 performed using DIIS
 SCF converges when DIIS error is below 1.0e-06
 Alpha HF Exchange    Energy =  -6.82719969254388
 Beta HF Exchange     Energy =  -6.82719969254388
 DFT Correlation      Energy =  -2.70067885148462
 DFT Exchange         Energy = -53.81556981225921
 One-Electron (alpha) Energy = -897.09234399689876
 One-Electron (beta)  Energy = -897.09234399689876
 Total Coulomb        Energy = 677.40351874937028
 ---------------------------------------
  Cycle       Energy         DIIS error
 ---------------------------------------
    1    -915.8168945586      2.61e-02  
 Alpha HF Exchange    Energy =  -6.95672982353412
 Beta HF Exchange     Energy =  -6.75388777085653
 DFT Correlation      Energy =  -2.72184670037960
 DFT Exchange         Energy = -54.41675134500383
 One-Electron (alpha) Energy = -916.07654802322304
 One-Electron (beta)  Energy = -885.02888513224195
 Total Coulomb        Energy = 685.50356160803403
    2    -915.3161644526      3.21e-03  
 Alpha HF Exchange    Energy =  -6.90152270201923
 Beta HF Exchange     Energy =  -6.71856825361110
 DFT Correlation      Energy =  -2.69514675821439
 DFT Exchange         Energy = -54.01062505021498
 One-Electron (alpha) Energy = -912.92775563983457
 One-Electron (beta)  Energy = -882.61807020156778
 Total Coulomb        Energy = 679.48260520442409
    3    -915.2541606664      4.17e-03  
 Alpha HF Exchange    Energy =  -6.92655972842037
 Beta HF Exchange     Energy =  -6.72882097541533
 DFT Correlation      Energy =  -2.70624893140230
 DFT Exchange         Energy = -54.16692031717333
 One-Electron (alpha) Energy = -914.14420380202137
 One-Electron (beta)  Energy = -883.31170363759554
 Total Coulomb        Energy = 681.43075744716054
    4    -915.4187772102      5.38e-04  
 Alpha HF Exchange    Energy =  -6.93239648502828
 Beta HF Exchange     Energy =  -6.73516590998813
 DFT Correlation      Energy =  -2.70742257493611
 DFT Exchange         Energy = -54.21175943701414
 One-Electron (alpha) Energy = -914.59009004222912
 One-Electron (beta)  Energy = -883.76369211197255
 Total Coulomb        Energy = 682.38441407258051
    5    -915.4211897539      2.93e-04  
 Alpha HF Exchange    Energy =  -6.93199169903787
 Beta HF Exchange     Energy =  -6.73394282958714
 DFT Correlation      Energy =  -2.70691828444004
 DFT Exchange         Energy = -54.20474990637459
 One-Electron (alpha) Energy = -914.50647928755939
 One-Electron (beta)  Energy = -883.64264911906878
 Total Coulomb        Energy = 682.16975013473200
    6    -915.4220582567      6.60e-05  
 Alpha HF Exchange    Energy =  -6.93181864533270
 Beta HF Exchange     Energy =  -6.73392151280062
 DFT Correlation      Energy =  -2.70675698407047
 DFT Exchange         Energy = -54.20328629742006
 One-Electron (alpha) Energy = -914.48306772743126
 One-Electron (beta)  Energy = -883.62683014896209
 Total Coulomb        Energy = 682.12865056858755
    7    -915.4221080128      2.63e-05  
 Alpha HF Exchange    Energy =  -6.93204731798735
 Beta HF Exchange     Energy =  -6.73404104661656
 DFT Correlation      Energy =  -2.70675046661193
 DFT Exchange         Energy = -54.20446255725093
 One-Electron (alpha) Energy = -914.49786843415745
 One-Electron (beta)  Energy = -883.63685347404964
 Total Coulomb        Energy = 682.15498386414129
    8    -915.4221166979      8.55e-06  
 Alpha HF Exchange    Energy =  -6.93203750243943
 Beta HF Exchange     Energy =  -6.73406099683743
 DFT Correlation      Energy =  -2.70673465752822
 DFT Exchange         Energy = -54.20445174306485
 One-Electron (alpha) Energy = -914.49522487897866
 One-Electron (beta)  Energy = -883.63558208670281
 Total Coulomb        Energy = 682.15105159911582
    9    -915.4221175318      3.54e-06  
 Alpha HF Exchange    Energy =  -6.93203114353794
 Beta HF Exchange     Energy =  -6.73404375371563
 DFT Correlation      Energy =  -2.70672666616764
 DFT Exchange         Energy = -54.20435185667371
 One-Electron (alpha) Energy = -914.49385938258933
 One-Electron (beta)  Energy = -883.63407606194005
 Total Coulomb        Energy = 682.14804847320102
   10    -915.4221176568      1.55e-06  
 Alpha HF Exchange    Energy =  -6.93203849009200
 Beta HF Exchange     Energy =  -6.73405160020285
 DFT Correlation      Energy =  -2.70672982309844
 DFT Exchange         Energy = -54.20441529758019
 One-Electron (alpha) Energy = -914.49479389289979
 One-Electron (beta)  Energy = -883.63500855754546
 Total Coulomb        Energy = 682.14999724389702
   11    -915.4221176829      4.15e-07  Convergence criterion met
 ---------------------------------------
 SCF time:   CPU 34.95s  wall 3.00s 
<S^2> =          2.008684775
 Alpha HF Exchange    Energy =  -6.93203849009200
 Beta HF Exchange     Energy =  -6.73405160020285
 DFT Correlation      Energy =  -2.70672982309844
 DFT Exchange         Energy = -54.20441529758019
 One-Electron (alpha) Energy = -914.49479389289979
 One-Electron (beta)  Energy = -883.63500855754546
 Total Coulomb        Energy = 682.14999724389702
 Nuclear repulsion Energy = 271.13492273465357
 SCF   energy in the final basis set =     -915.4221176829
 Total energy in the final basis set =     -915.4221176829
 
 --------------------------------------------------------------
 
                    Orbital Energies (a.u.)
 --------------------------------------------------------------
 
 Alpha MOs
 -- Occupied --
-88.907 -88.857 -10.249 -10.209 -10.201  -7.969  -7.918  -5.933
 -5.929  -5.927  -5.887  -5.880  -5.871  -0.836  -0.733  -0.702
 -0.686  -0.593  -0.486  -0.454  -0.435  -0.415  -0.389  -0.376
 -0.367  -0.351  -0.311  -0.230  -0.222  -0.218
 -- Virtual --
  0.004   0.046   0.069   0.098   0.118   0.131   0.153   0.163
  0.185   0.221   0.248   0.295   0.323   0.337   0.364   0.385
  0.412   0.439   0.478   0.489   0.529   0.546   0.561   0.583
  0.608   0.657   0.686   0.711   0.732   0.741   0.768   0.773
  0.795   0.809   0.819   0.825   0.867   0.871   0.889   0.906
  0.917   0.934   0.949   1.036   1.114   1.121   1.151   1.188
  1.351   1.428   1.458   1.548   1.674   1.755   1.831   1.863
  1.909   1.969   2.011   2.031   2.073   2.085   2.092   2.095
  2.108   2.119   2.123   2.270   2.306   2.348   2.392   2.494
  2.552   2.579   2.621   2.689   2.729   2.737   2.749   2.820
  2.858   2.904   3.174   3.268   3.378   3.405   3.455   3.502
  3.951   3.983   4.245   4.376   4.579
 
 Beta MOs
 -- Occupied --
-88.905 -88.852 -10.250 -10.201 -10.196  -7.966  -7.913  -5.930
 -5.926  -5.921  -5.877  -5.871  -5.869  -0.826  -0.720  -0.681
 -0.656  -0.583  -0.481  -0.449  -0.429  -0.410  -0.383  -0.367
 -0.359  -0.338  -0.270  -0.218
 -- Virtual --
 -0.117  -0.078   0.014   0.057   0.080   0.099   0.120   0.141
  0.154   0.165   0.191   0.226   0.256   0.303   0.331   0.350
  0.377   0.393   0.420   0.464   0.484   0.495   0.540   0.562
  0.577   0.613   0.619   0.671   0.701   0.721   0.744   0.758
  0.775   0.783   0.818   0.826   0.833   0.845   0.875   0.877
  0.898   0.920   0.925   0.957   0.961   1.051   1.122   1.128
  1.162   1.195   1.369   1.429   1.490   1.555   1.681   1.756
  1.833   1.872   1.929   1.990   2.019   2.033   2.075   2.090
  2.093   2.100   2.107   2.125   2.128   2.276   2.307   2.351
  2.402   2.508   2.565   2.594   2.624   2.691   2.731   2.738
  2.751   2.822   2.858   2.907   3.175   3.271   3.382   3.406
  3.455   3.508   3.959   3.997   4.262   4.388   4.583
 --------------------------------------------------------------
 
          Ground-State Mulliken Net Atomic Charges

     Atom                 Charge (a.u.)    Spin (a.u.)
  --------------------------------------------------------
      1 S                     0.029121       0.377336
      2 S                    -0.247659       0.809239
      3 C                    -0.223752      -0.092357
      4 C                    -0.185690       0.994802
      5 C                    -0.306034       0.010785
      6 H                     0.155450       0.008995
      7 H                     0.114912      -0.044014
      8 H                     0.146623      -0.043926
      9 H                     0.125844       0.001691
     10 H                     0.114793      -0.001129
     11 H                     0.127038       0.003174
     12 H                     0.091721      -0.010367
     13 H                     0.057635      -0.014230
  --------------------------------------------------------
  Sum of atomic charges =    -0.000000
  Sum of spin   charges =     2.000000

 -----------------------------------------------------------------
                    Cartesian Multipole Moments
 -----------------------------------------------------------------
    Charge (ESU x 10^10)
                 0.0000
    Dipole Moment (Debye)
         X       3.0140      Y       0.8556      Z       0.0981
       Tot       3.1346
    Quadrupole Moments (Debye-Ang)
        XX     -52.5279     XY       0.6498     YY     -45.7940
        XZ       2.0859     YZ      -0.0885     ZZ     -46.0893
    Octopole Moments (Debye-Ang^2)
       XXX      65.9737    XXY      14.3847    XYY       9.5628
       YYY      35.0343    XXZ      -9.2298    XYZ      -5.2877
       YYZ      -3.6568    XZZ      22.2929    YZZ      14.8181
       ZZZ     -13.5738
    Hexadecapole Moments (Debye-Ang^3)
      XXXX    -931.4317   XXXY    -110.3983   XXYY    -199.9327
      XYYY    -104.5328   YYYY    -394.0593   XXXZ      35.0862
      XXYZ       7.8151   XYYZ      16.2700   YYYZ     -11.7126
      XXZZ    -179.8374   XYZZ     -46.1775   YYZZ     -82.7698
      XZZZ      30.4708   YZZZ      -7.1664   ZZZZ     -99.2687
 -----------------------------------------------------------------
 Calculating analytic gradient of the SCF energy
 Gradient of SCF Energy
            1           2           3           4           5           6
    1   0.0000338   0.0029289   0.0001101  -0.0030837  -0.0000343  -0.0000698
    2   0.0000214   0.0027241   0.0000227  -0.0027840  -0.0000155  -0.0000138
    3   0.0000116   0.0002482   0.0000486  -0.0002978  -0.0000535  -0.0000052
            7           8           9          10          11          12
    1   0.0000108   0.0001008  -0.0000030   0.0000103  -0.0000052  -0.0000005
    2   0.0000129   0.0000282   0.0000113   0.0000122   0.0000131  -0.0000045
    3  -0.0000052   0.0000433  -0.0000166  -0.0000135  -0.0000207   0.0000090
           13
    1   0.0000018
    2  -0.0000282
    3   0.0000519
 Max gradient component =       3.084E-03
 RMS gradient           =       9.262E-04
 Gradient time:  CPU 11.20 s  wall 1.00 s
 Geometry Optimization Parameters
   NAtoms,    NIC,     NZ,  NCons,   NDum,   NFix, NCnnct, MaxDiis
       13      90       0       1       0       0       0       0


** CONSTRAINED OPTIMIZATION IN DELOCALIZED INTERNAL COORDINATES **
   Searching for a Minimum

   Optimization Cycle:   1

                       Coordinates (Angstroms)
     ATOM                X               Y               Z
      1  S         0.2488980000   -1.3455870000   -0.1407570000
      2  S        -2.6353090000   -0.8615470000    0.2516560000
      3  C         0.6684310000    0.5269240000   -0.2870590000
      4  C        -0.3090160000    1.3256620000    0.4625540000
      5  C         2.1241920000    0.7473800000    0.1259790000
      6  H         0.5453080000    0.6673190000   -1.3652100000
      7  H        -0.1592600000    1.5066940000    1.5228870000
      8  H        -1.2525780000    1.6122730000    0.0183630000
      9  H         2.4060510000    1.7877650000   -0.0693450000
     10  H         2.2596300000    0.5600130000    1.1960560000
     11  H         2.8018670000    0.0928530000   -0.4273350000
     12  H         0.3779960000   -1.4163730000    1.1985580000
     13  H        -2.8365070000   -2.0783780000   -0.2973480000
   Point Group: c1    Number of degrees of freedom:    33


   Energy is   -915.422117683

              Constraints and their Current Values
                                        Value     Constraint
   Distance(Angs):        2   4             3.200000     3.100000

 Attempting to Generate Delocalized Internal Coordinates

   Using Lagrange Multiplier Algorithm


 34 Hessian modes will be used to form the next step
  Hessian Eigenvalues:
    -0.990687    0.043741    0.045000    0.045164    0.045995    0.046694
     0.052809    0.067874    0.076322    0.080211    0.082537    0.084231
     0.089262    0.095009    0.106904    0.133869    0.158472    0.160000
     0.160000    0.160000    0.166293    0.177041    0.184998    0.256362
     0.258402    0.294978    0.334343    0.341910    0.342675    0.343314
     0.344764    0.345123    0.352731    1.009401

 Minimum Search - Taking P-RFO Step
 Searching for Lamda that Maximizes Along the Constraint modes Only
 Value Taken    Lamda =   0.01862147
 Searching for Lamda that Minimizes Along All other modes
 Value Taken    Lamda =  -0.01650483
 Step Taken.  Stepsize is  0.185707

                             Maximum     Tolerance    Cnvgd?
         Gradient            0.188973       0.000300      NO
         Displacement        0.185702       0.001200      NO
         Energy change     *********       0.000001      NO


 New Cartesian Coordinates Obtained by Inverse Iteration

 Displacement from previous Coordinates is:  0.247524
 ----------------------------------------------------------------
             Standard Nuclear Orientation (Angstroms)
    I     Atom           X                Y                Z
 ----------------------------------------------------------------
    1      S       0.2748788839    -1.3535068470    -0.1523744984
    2      S      -2.5818303711    -0.8189111449     0.2682071041
    3      C       0.6548114177     0.5186581775    -0.2951150558
    4      C      -0.3380860085     1.3151838374     0.4470424365
    5      C       2.1076041637     0.7343209083     0.1309171403
    6      H       0.5385850450     0.6689338343    -1.3726885099
    7      H      -0.1897551538     1.4879314568     1.5089585226
    8      H      -1.2592009220     1.6303333996     0.0158139973
    9      H       2.3922688598     1.7756635261    -0.0549849041
   10      H       2.2343141758     0.5393873524     1.2007087250
   11      H       2.7888186382     0.0827399130    -0.4215293544
   12      H       0.4039938356    -1.4172303587     1.1872885532
   13      H      -2.7866995643    -2.0385060547    -0.2732451566
 ----------------------------------------------------------------
 Nuclear Repulsion Energy =   272.9598907540 hartrees
 There are       30 alpha and       28 beta electrons

                       Distance Matrix (Angstroms)
             S (  1)   S (  2)   C (  3)   C (  4)   C (  5)   H (  6)
   S (  2)  2.936574
   C (  3)  1.915653  3.547150
   C (  4)  2.803023  3.101731  1.473464
   C (  5)  2.792519  4.941880  1.529255  2.533523
   H (  6)  2.376757  3.826645  1.094192  2.120757  2.174150
   H (  7)  3.324106  3.547254  2.215280  1.086052  2.782946  3.083038
   H (  8)  3.359314  2.794969  2.235160  1.064768  3.485895  2.466630
   H (  9)  3.779488  5.619425  2.157889  2.814056  1.095440  2.529296
   H ( 10)  3.041919  5.090165  2.175488  2.790540  1.094764  3.084583
   H ( 11)  2.907773  5.489315  2.181741  3.471436  1.092615  2.512345
   H ( 12)  1.347378  3.180856  2.451141  2.926557  2.940643  3.305099
   H ( 13)  3.139601  1.350020  4.287606  4.214470  5.639692  4.426796
             H (  7)   H (  8)   H (  9)   H ( 10)   H ( 11)   H ( 12)
   H (  8)  1.842138
   H (  9)  3.032418  3.655046
   H ( 10)  2.621234  3.846919  1.769207
   H ( 11)  3.817492  4.355775  1.776963  1.774164
   H ( 12)  2.982612  3.664180  3.961193  2.679292  3.244317
   H ( 13)  4.728227  3.984619  6.435623  5.833408  5.967250  3.563659

 
 Applying Cartesian multipole field
    Component          Value
    ---------          -----
     (2,0,0)        1.00000E-11
     (0,2,0)        2.00000E-11
     (0,0,2)       -3.00000E-10
 Nucleus-field energy     =    -0.0000000004 hartrees
 Requested basis set is 6-31G(d,p)
 There are 46 shells and 123 basis functions
 A cutoff of  1.0D-14 yielded   1004 shell pairs
 There are      7386 function pairs
 Smallest overlap matrix eigenvalue = 5.78E-03
 Guess from superposition of atomic densities
 Warning:  Energy on first SCF cycle will be non-variational
 SAD guess density has 58.000000 electrons

 -----------------------------------------------------------------------
  General SCF calculation program by
  Eric Jon Sundstrom, Paul Horn, Yuezhi Mao, Dmitri Zuev, Alec White,
  David Stuck, Shaama M.S., Shane Yost, Joonho Lee, David Small,
  Daniel Levine, Susi Lehtola, Hugh Burton, Evgeny Epifanovsky
 -----------------------------------------------------------------------
 Exchange:     0.2000 Hartree-Fock + 0.0800 Slater + 0.7200 B88
 Correlation:  0.1900 VWN1RPA + 0.8100 LYP
 Using SG-1 standard quadrature grid
 using 12 threads for integral computing
 -------------------------------------------------------
 OpenMP Integral computing Module                
 Release: version 1.0, May 2013, Q-Chem Inc. Pittsburgh 
 -------------------------------------------------------
 -------------------------------------------------------
 OpenMP BLAS3 based DFT computing Module                
 Release: version 1.0, May 2013, Q-Chem Inc. Pittsburgh 
 -------------------------------------------------------
 A unrestricted SCF calculation will be
 performed using DIIS
 SCF converges when DIIS error is below 1.0e-06
 Alpha HF Exchange    Energy =  -6.82902223871770
 Beta HF Exchange     Energy =  -6.82902223871770
 DFT Correlation      Energy =  -2.70162517303352
 DFT Exchange         Energy = -53.81913388467697
 One-Electron (alpha) Energy = -898.90859352417931
 One-Electron (beta)  Energy = -898.90859352417931
 Total Coulomb        Energy = 679.20657447954409
 ---------------------------------------
  Cycle       Energy         DIIS error
 ---------------------------------------
    1    -915.8295253504      2.62e-02  
 Alpha HF Exchange    Energy =  -6.95772212254568
 Beta HF Exchange     Energy =  -6.75485731005000
 DFT Correlation      Energy =  -2.72273524630644
 DFT Exchange         Energy = -54.42350176777802
 One-Electron (alpha) Energy = -917.96541573297941
 One-Electron (beta)  Energy = -886.80573119926692
 Total Coulomb        Energy = 687.35579753774755
    2    -915.3142750876      3.22e-03  
 Alpha HF Exchange    Energy =  -6.90213371635241
 Beta HF Exchange     Energy =  -6.71940319525092
 DFT Correlation      Energy =  -2.69608596850997
 DFT Exchange         Energy = -54.01609385080988
 One-Electron (alpha) Energy = -914.79447807169493
 One-Electron (beta)  Energy = -884.34889831204623
 Total Coulomb        Energy = 681.26690915272343
    3    -915.2502932084      4.20e-03  
 Alpha HF Exchange    Energy =  -6.92743651843966
 Beta HF Exchange     Energy =  -6.72960828457968
 DFT Correlation      Energy =  -2.70717342085368
 DFT Exchange         Energy = -54.17296007290120
 One-Electron (alpha) Energy = -916.03349119089069
 One-Electron (beta)  Energy = -885.07020867684128
 Total Coulomb        Energy = 683.26357471169877
    4    -915.4174126993      5.43e-04  
 Alpha HF Exchange    Energy =  -6.93323481436531
 Beta HF Exchange     Energy =  -6.73601685613931
 DFT Correlation      Energy =  -2.70835203354167
 DFT Exchange         Energy = -54.21787435406139
 One-Electron (alpha) Energy = -916.47419164819780
 One-Electron (beta)  Energy = -885.51916864712007
 Total Coulomb        Energy = 684.20907712480960
    5    -915.4198704751      2.98e-04  
 Alpha HF Exchange    Energy =  -6.93285398264877
 Beta HF Exchange     Energy =  -6.73477607837569
 DFT Correlation      Energy =  -2.70784028944947
 DFT Exchange         Energy = -54.21086107116452
 One-Electron (alpha) Energy = -916.39188053849853
 One-Electron (beta)  Energy = -885.39827587634989
 Total Coulomb        Energy = 683.99583018507258
    6    -915.4207668979      6.69e-05  
 Alpha HF Exchange    Energy =  -6.93268349011796
 Beta HF Exchange     Energy =  -6.73476834310019
 DFT Correlation      Energy =  -2.70768512524008
 DFT Exchange         Energy = -54.20946093812422
 One-Electron (alpha) Energy = -916.36958281227362
 One-Electron (beta)  Energy = -885.38366471750180
 Total Coulomb        Energy = 683.95713581269126
    7    -915.4208188601      2.70e-05  
 Alpha HF Exchange    Energy =  -6.93290292705258
 Beta HF Exchange     Energy =  -6.73487464850974
 DFT Correlation      Energy =  -2.70767225623685
 DFT Exchange         Energy = -54.21053511953922
 One-Electron (alpha) Energy = -916.38295886320032
 One-Electron (beta)  Energy = -885.39225340095038
 Total Coulomb        Energy = 683.98047848988494
    8    -915.4208279721      9.44e-06  
 Alpha HF Exchange    Energy =  -6.93290192283605
 Beta HF Exchange     Energy =  -6.73490566822608
 DFT Correlation      Energy =  -2.70766050119523
 DFT Exchange         Energy = -54.21060421181159
 One-Electron (alpha) Energy = -916.38143517707124
 One-Electron (beta)  Energy = -885.39206411906082
 Total Coulomb        Energy = 683.97885192874139
    9    -915.4208289179      4.07e-06  
 Alpha HF Exchange    Energy =  -6.93289139805918
 Beta HF Exchange     Energy =  -6.73488596511969
 DFT Correlation      Energy =  -2.70765061611535
 DFT Exchange         Energy = -54.21047501228261
 One-Electron (alpha) Energy = -916.37949953294037
 One-Electron (beta)  Energy = -885.39011517276651
 Total Coulomb        Energy = 683.97479786849090
   10    -915.4208290752      1.49e-06  
 Alpha HF Exchange    Energy =  -6.93289922890685
 Beta HF Exchange     Energy =  -6.73489336729946
 DFT Correlation      Energy =  -2.70765375386432
 DFT Exchange         Energy = -54.21053884409991
 One-Electron (alpha) Energy = -916.38047021410489
 One-Electron (beta)  Energy = -885.39106626041530
 Total Coulomb        Energy = 683.97680181470548
   11    -915.4208291004      3.95e-07  Convergence criterion met
 ---------------------------------------
 SCF time:   CPU 34.64s  wall 3.00s 
<S^2> =          2.008428640
 Alpha HF Exchange    Energy =  -6.93289922890685
 Beta HF Exchange     Energy =  -6.73489336729946
 DFT Correlation      Energy =  -2.70765375386432
 DFT Exchange         Energy = -54.21053884409991
 One-Electron (alpha) Energy = -916.38047021410489
 One-Electron (beta)  Energy = -885.39106626041530
 Total Coulomb        Energy = 683.97680181470548
 Nuclear repulsion Energy = 272.95989075354424
 SCF   energy in the final basis set =     -915.4208291004
 Total energy in the final basis set =     -915.4208291004
 
 --------------------------------------------------------------
 
                    Orbital Energies (a.u.)
 --------------------------------------------------------------
 
 Alpha MOs
 -- Occupied --
-88.908 -88.856 -10.249 -10.208 -10.201  -7.969  -7.917  -5.933
 -5.930  -5.927  -5.886  -5.879  -5.871  -0.836  -0.733  -0.703
 -0.686  -0.593  -0.487  -0.454  -0.434  -0.416  -0.391  -0.377
 -0.366  -0.350  -0.311  -0.230  -0.222  -0.216
 -- Virtual --
  0.005   0.047   0.070   0.099   0.119   0.133   0.153   0.163
  0.185   0.223   0.247   0.296   0.324   0.337   0.369   0.386
  0.412   0.444   0.477   0.487   0.528   0.543   0.561   0.579
  0.609   0.655   0.683   0.712   0.729   0.744   0.769   0.775
  0.794   0.814   0.823   0.827   0.869   0.873   0.892   0.912
  0.921   0.938   0.954   1.038   1.116   1.122   1.155   1.191
  1.352   1.426   1.460   1.549   1.673   1.759   1.832   1.858
  1.918   1.971   2.017   2.033   2.075   2.087   2.094   2.095
  2.108   2.120   2.125   2.271   2.308   2.346   2.397   2.507
  2.551   2.578   2.623   2.691   2.730   2.740   2.749   2.829
  2.860   2.913   3.175   3.274   3.383   3.411   3.456   3.521
  3.952   3.984   4.243   4.381   4.581
 
 Beta MOs
 -- Occupied --
-88.905 -88.852 -10.250 -10.201 -10.195  -7.966  -7.913  -5.930
 -5.927  -5.921  -5.877  -5.871  -5.868  -0.827  -0.720  -0.682
 -0.656  -0.583  -0.482  -0.449  -0.428  -0.410  -0.385  -0.368
 -0.359  -0.338  -0.271  -0.218
 -- Virtual --
 -0.117  -0.077   0.014   0.058   0.081   0.100   0.121   0.143
  0.154   0.165   0.192   0.227   0.255   0.304   0.332   0.349
  0.382   0.394   0.420   0.467   0.482   0.495   0.538   0.558
  0.579   0.609   0.620   0.671   0.701   0.722   0.739   0.758
  0.776   0.785   0.820   0.827   0.836   0.847   0.877   0.878
  0.903   0.923   0.932   0.960   0.969   1.054   1.122   1.129
  1.166   1.198   1.371   1.426   1.494   1.556   1.680   1.760
  1.834   1.866   1.938   1.995   2.021   2.035   2.078   2.090
  2.095   2.101   2.108   2.124   2.131   2.277   2.309   2.349
  2.407   2.519   2.565   2.591   2.627   2.693   2.731   2.741
  2.752   2.831   2.860   2.916   3.176   3.276   3.387   3.413
  3.457   3.527   3.961   3.998   4.259   4.393   4.585
 --------------------------------------------------------------
 
          Ground-State Mulliken Net Atomic Charges

     Atom                 Charge (a.u.)    Spin (a.u.)
  --------------------------------------------------------
      1 S                     0.031637       0.376594
      2 S                    -0.250002       0.803172
      3 C                    -0.225189      -0.090197
      4 C                    -0.185020       0.996525
      5 C                    -0.306399       0.010969
      6 H                     0.155163       0.008193
      7 H                     0.114021      -0.044236
      8 H                     0.148513      -0.043324
      9 H                     0.124730       0.001755
     10 H                     0.114628      -0.001128
     11 H                     0.127727       0.003307
     12 H                     0.092827      -0.010331
     13 H                     0.057364      -0.011297
  --------------------------------------------------------
  Sum of atomic charges =    -0.000000
  Sum of spin   charges =     2.000000

 -----------------------------------------------------------------
                    Cartesian Multipole Moments
 -----------------------------------------------------------------
    Charge (ESU x 10^10)
                -0.0000
    Dipole Moment (Debye)
         X       2.9821      Y       0.8338      Z       0.0748
       Tot       3.0974
    Quadrupole Moments (Debye-Ang)
        XX     -52.4017     XY       0.5525     YY     -45.7400
        XZ       2.0894     YZ      -0.1680     ZZ     -46.1666
    Octopole Moments (Debye-Ang^2)
       XXX      63.0483    XXY      14.0341    XYY       8.9261
       YYY      34.5082    XXZ      -9.0480    XYZ      -5.1491
       YYZ      -3.4890    XZZ      21.5568    YZZ      14.4727
       ZZZ     -13.7870
    Hexadecapole Moments (Debye-Ang^3)
      XXXX    -904.4392   XXXY    -101.0413   XXYY    -195.4395
      XYYY     -96.2249   YYYY    -387.1372   XXXZ      36.0915
      XXYZ       6.9678   XYYZ      16.1913   YYYZ     -12.1893
      XXZZ    -175.4822   XYZZ     -42.8482   YYZZ     -81.8008
      XZZZ      32.1698   YZZZ      -7.2238   ZZZZ    -100.0342
 -----------------------------------------------------------------
 Calculating analytic gradient of the SCF energy
 Gradient of SCF Energy
            1           2           3           4           5           6
    1   0.0025838   0.0034583   0.0016217  -0.0173278   0.0001312  -0.0005061
    2   0.0009931   0.0042261  -0.0014815   0.0008023  -0.0028339   0.0007159
    3  -0.0000970   0.0006113   0.0003860  -0.0074263  -0.0000592   0.0002678
            7           8           9          10          11          12
    1  -0.0000458   0.0096509  -0.0003836   0.0000668   0.0002607  -0.0001534
    2   0.0000812  -0.0026706  -0.0001009  -0.0000329   0.0000028   0.0003045
    3  -0.0004278   0.0070035  -0.0002032  -0.0000202   0.0000494   0.0000576
           13
    1   0.0006432
    2  -0.0000060
    3  -0.0001418
 Max gradient component =       1.733E-02
 RMS gradient           =       3.783E-03
 Gradient time:  CPU 11.21 s  wall 1.00 s
 Geometry Optimization Parameters
   NAtoms,    NIC,     NZ,  NCons,   NDum,   NFix, NCnnct, MaxDiis
       13      90       0       1       0       0       0       0

 Cartesian Hessian Update
 Hessian Updated using BFGS Update


** CONSTRAINED OPTIMIZATION IN DELOCALIZED INTERNAL COORDINATES **
   Searching for a Minimum

   Optimization Cycle:   2

                       Coordinates (Angstroms)
     ATOM                X               Y               Z
      1  S         0.2748788839   -1.3535068470   -0.1523744984
      2  S        -2.5818303711   -0.8189111449    0.2682071041
      3  C         0.6548114177    0.5186581775   -0.2951150558
      4  C        -0.3380860085    1.3151838374    0.4470424365
      5  C         2.1076041637    0.7343209083    0.1309171403
      6  H         0.5385850450    0.6689338343   -1.3726885099
      7  H        -0.1897551538    1.4879314568    1.5089585226
      8  H        -1.2592009220    1.6303333996    0.0158139973
      9  H         2.3922688598    1.7756635261   -0.0549849041
     10  H         2.2343141758    0.5393873524    1.2007087250
     11  H         2.7888186382    0.0827399130   -0.4215293544
     12  H         0.4039938356   -1.4172303587    1.1872885532
     13  H        -2.7866995643   -2.0385060547   -0.2732451566
   Point Group: c1    Number of degrees of freedom:    33


   Energy is   -915.420829100

              Constraints and their Current Values
                                        Value     Constraint
   Distance(Angs):        2   4             3.101731     3.100000
 Hessian Updated using BFGS Update

   Using Lagrange Multiplier Algorithm


 33 Hessian modes will be used to form the next step
  Hessian Eigenvalues:
    -0.985821    0.043742    0.045001    0.045181    0.046027    0.046694
     0.052831    0.068219    0.076513    0.080266    0.082551    0.084231
     0.089924    0.095030    0.111594    0.133871    0.158472    0.160000
     0.160176    0.167833    0.183760    0.193520    0.256363    0.258402
     0.295009    0.341908    0.342675    0.343313    0.344348    0.345122
     0.352704    0.465646    1.020788

 Minimum Search - Taking P-RFO Step
 Searching for Lamda that Maximizes Along the Constraint modes Only
 Value Taken    Lamda =   0.00001465
 Searching for Lamda that Minimizes Along All other modes
 Value Taken    Lamda =  -0.00044273
 Step Taken.  Stepsize is  0.037539

                             Maximum     Tolerance    Cnvgd?
         Gradient            0.006771       0.000300      NO
         Displacement        0.015258       0.001200      NO
         Energy change      0.001289       0.000001      NO


 New Cartesian Coordinates Obtained by Inverse Iteration

 Displacement from previous Coordinates is:  0.059635
 ----------------------------------------------------------------
             Standard Nuclear Orientation (Angstroms)
    I     Atom           X                Y                Z
 ----------------------------------------------------------------
    1      S       0.2683355744    -1.3593133098    -0.1520247423
    2      S      -2.5842007109    -0.8136812972     0.2659674797
    3      C       0.6573290781     0.5143059660    -0.2945393276
    4      C      -0.3313896848     1.3078176160     0.4505974785
    5      C       2.1091595318     0.7411865097     0.1306120118
    6      H       0.5415320724     0.6626217992    -1.3725366086
    7      H      -0.1837226994     1.4811604947     1.5129072580
    8      H      -1.2595616113     1.6249439439     0.0094707655
    9      H       2.3890990549     1.7837531154    -0.0565576951
   10      H       2.2371362392     0.5488261091     1.2007114394
   11      H       2.7932056830     0.0922630175    -0.4212051431
   12      H       0.3981516137    -1.4250142745     1.1874333895
   13      H      -2.7953711411    -2.0338716900    -0.2718373057
 ----------------------------------------------------------------
 Nuclear Repulsion Energy =   272.8592826952 hartrees
 There are       30 alpha and       28 beta electrons

                       Distance Matrix (Angstroms)
             S (  1)   S (  2)   C (  3)   C (  4)   C (  5)   H (  6)
   S (  2)  2.934177
   C (  3)  1.918874  3.547567
   C (  4)  2.799359  3.100001  1.470529
   C (  5)  2.807243  4.946066  1.529719  2.525815
   H (  6)  2.377500  3.825490  1.094296  2.121812  2.173266
   H (  7)  3.323349  3.547316  2.215635  1.086442  2.777699  3.085739
   H (  8)  3.356537  2.786997  2.236159  1.075484  3.484822  2.465755
   H (  9)  3.792838  5.620000  2.160361  2.807985  1.095602  2.530265
   H ( 10)  3.057297  5.096613  2.175490  2.781378  1.094757  3.083769
   H ( 11)  2.924808  5.496312  2.180856  3.464204  1.092485  2.510055
   H ( 12)  1.347337  3.180763  2.454461  2.922931  2.955816  3.306392
   H ( 13)  3.139376  1.350071  4.291254  4.214262  5.649543  4.429169
             H (  7)   H (  8)   H (  9)   H ( 10)   H ( 11)   H ( 12)
   H (  8)  1.854299
   H (  9)  3.028893  3.652712
   H ( 10)  2.612905  3.847594  1.768859
   H ( 11)  3.812077  4.354253  1.776910  1.774338
   H ( 12)  2.981671  3.665768  3.975874  2.697793  3.259775
   H ( 13)  4.728792  3.978037  6.441998  5.845071  5.981216  3.563533

 
 Applying Cartesian multipole field
    Component          Value
    ---------          -----
     (2,0,0)        1.00000E-11
     (0,2,0)        2.00000E-11
     (0,0,2)       -3.00000E-10
 Nucleus-field energy     =    -0.0000000004 hartrees
 Requested basis set is 6-31G(d,p)
 There are 46 shells and 123 basis functions
 A cutoff of  1.0D-14 yielded   1004 shell pairs
 There are      7386 function pairs
 Smallest overlap matrix eigenvalue = 5.77E-03
 Guess from superposition of atomic densities
 Warning:  Energy on first SCF cycle will be non-variational
 SAD guess density has 58.000000 electrons

 -----------------------------------------------------------------------
  General SCF calculation program by
  Eric Jon Sundstrom, Paul Horn, Yuezhi Mao, Dmitri Zuev, Alec White,
  David Stuck, Shaama M.S., Shane Yost, Joonho Lee, David Small,
  Daniel Levine, Susi Lehtola, Hugh Burton, Evgeny Epifanovsky
 -----------------------------------------------------------------------
 Exchange:     0.2000 Hartree-Fock + 0.0800 Slater + 0.7200 B88
 Correlation:  0.1900 VWN1RPA + 0.8100 LYP
 Using SG-1 standard quadrature grid
 using 12 threads for integral computing
 -------------------------------------------------------
 OpenMP Integral computing Module                
 Release: version 1.0, May 2013, Q-Chem Inc. Pittsburgh 
 -------------------------------------------------------
 -------------------------------------------------------
 OpenMP BLAS3 based DFT computing Module                
 Release: version 1.0, May 2013, Q-Chem Inc. Pittsburgh 
 -------------------------------------------------------
 A unrestricted SCF calculation will be
 performed using DIIS
 SCF converges when DIIS error is below 1.0e-06
 Alpha HF Exchange    Energy =  -6.82839517282590
 Beta HF Exchange     Energy =  -6.82839517282590
 DFT Correlation      Energy =  -2.70149029176062
 DFT Exchange         Energy = -53.81775765057228
 One-Electron (alpha) Energy = -898.81369216640599
 One-Electron (beta)  Energy = -898.81369216640599
 Total Coulomb        Energy = 679.11843864880234
 ---------------------------------------
  Cycle       Energy         DIIS error
 ---------------------------------------
    1    -915.8257012772      2.62e-02  
 Alpha HF Exchange    Energy =  -6.95722220101147
 Beta HF Exchange     Energy =  -6.75444299828060
 DFT Correlation      Energy =  -2.72258283051651
 DFT Exchange         Energy = -54.42025207271138
 One-Electron (alpha) Energy = -917.87614803332337
 One-Electron (beta)  Energy = -886.70802988034791
 Total Coulomb        Energy = 687.26444415096853
    2    -915.3149511704      3.21e-03  
 Alpha HF Exchange    Energy =  -6.90175605419776
 Beta HF Exchange     Energy =  -6.71887783583595
 DFT Correlation      Energy =  -2.69591389820002
 DFT Exchange         Energy = -54.01289733647957
 One-Electron (alpha) Energy = -914.69852657792217
 One-Electron (beta)  Energy = -884.23604010154099
 Total Coulomb        Energy = 681.15401646859368
    3    -915.2507126408      4.20e-03  
 Alpha HF Exchange    Energy =  -6.92703970706214
 Beta HF Exchange     Energy =  -6.72918468142849
 DFT Correlation      Energy =  -2.70703250011410
 DFT Exchange         Energy = -54.17012231156245
 One-Electron (alpha) Energy = -915.94415747266191
 One-Electron (beta)  Energy = -884.96660171233691
 Total Coulomb        Energy = 683.16716555334199
    4    -915.4176901370      5.43e-04  
 Alpha HF Exchange    Energy =  -6.93282663268478
 Beta HF Exchange     Energy =  -6.73555507957355
 DFT Correlation      Energy =  -2.70820461740322
 DFT Exchange         Energy = -54.21487263186121
 One-Electron (alpha) Energy = -916.38478856451388
 One-Electron (beta)  Energy = -885.41305935212904
 Total Coulomb        Energy = 684.10986598323620
    5    -915.4201582001      2.96e-04  
 Alpha HF Exchange    Energy =  -6.93245076036082
 Beta HF Exchange     Energy =  -6.73432546707174
 DFT Correlation      Energy =  -2.70769327904243
 DFT Exchange         Energy = -54.20790729887198
 One-Electron (alpha) Energy = -916.30296184475696
 One-Electron (beta)  Energy = -885.29285569637523
 Total Coulomb        Energy = 683.89786764016867
    6    -915.4210440115      6.68e-05  
 Alpha HF Exchange    Energy =  -6.93228191899195
 Beta HF Exchange     Energy =  -6.73431579115003
 DFT Correlation      Energy =  -2.70753685094368
 DFT Exchange         Energy = -54.20650495780869
 One-Electron (alpha) Energy = -916.28064149867760
 One-Electron (beta)  Energy = -885.27795715980210
 Total Coulomb        Energy = 683.85885954651781
    7    -915.4210959361      2.69e-05  
 Alpha HF Exchange    Energy =  -6.93250428565515
 Beta HF Exchange     Energy =  -6.73442437844309
 DFT Correlation      Energy =  -2.70752456786619
 DFT Exchange         Energy = -54.20759958264281
 One-Electron (alpha) Energy = -916.29435792745915
 One-Electron (beta)  Energy = -885.28676170968208
 Total Coulomb        Energy = 683.88278470830551
    8    -915.4211050487      9.32e-06  
 Alpha HF Exchange    Energy =  -6.93250190040783
 Beta HF Exchange     Energy =  -6.73445334830194
 DFT Correlation      Energy =  -2.70751186641030
 DFT Exchange         Energy = -54.20765406778905
 One-Electron (alpha) Energy = -916.29262619747283
 One-Electron (beta)  Energy = -885.28634103978300
 Total Coulomb        Energy = 683.88069973836753
    9    -915.4211059870      4.00e-06  
 Alpha HF Exchange    Energy =  -6.93249214356300
 Beta HF Exchange     Energy =  -6.73443401622044
 DFT Correlation      Energy =  -2.70750224766057
 DFT Exchange         Energy = -54.20752975690282
 One-Electron (alpha) Energy = -916.29078682105569
 One-Electron (beta)  Energy = -885.28445779879507
 Total Coulomb        Energy = 683.87681394817173
   10    -915.4211061412      1.51e-06  
 Alpha HF Exchange    Energy =  -6.93250001248955
 Beta HF Exchange     Energy =  -6.73444152098827
 DFT Correlation      Energy =  -2.70750541153418
 DFT Exchange         Energy = -54.20759416445730
 One-Electron (alpha) Energy = -916.29176668665571
 One-Electron (beta)  Energy = -885.28541380166121
 Total Coulomb        Energy = 683.87883273577290
   11    -915.4211061672      4.03e-07  Convergence criterion met
 ---------------------------------------
 SCF time:   CPU 33.85s  wall 3.00s 
<S^2> =          2.008508354
 Alpha HF Exchange    Energy =  -6.93250001248955
 Beta HF Exchange     Energy =  -6.73444152098827
 DFT Correlation      Energy =  -2.70750541153418
 DFT Exchange         Energy = -54.20759416445730
 One-Electron (alpha) Energy = -916.29176668665571
 One-Electron (beta)  Energy = -885.28541380166121
 Total Coulomb        Energy = 683.87883273577290
 Nuclear repulsion Energy = 272.85928269479251
 SCF   energy in the final basis set =     -915.4211061672
 Total energy in the final basis set =     -915.4211061672
 
 --------------------------------------------------------------
 
                    Orbital Energies (a.u.)
 --------------------------------------------------------------
 
 Alpha MOs
 -- Occupied --
-88.908 -88.856 -10.249 -10.209 -10.201  -7.969  -7.917  -5.933
 -5.930  -5.927  -5.886  -5.879  -5.871  -0.836  -0.733  -0.702
 -0.686  -0.593  -0.487  -0.454  -0.434  -0.416  -0.390  -0.377
 -0.366  -0.350  -0.312  -0.230  -0.222  -0.216
 -- Virtual --
  0.004   0.047   0.070   0.098   0.118   0.132   0.153   0.163
  0.185   0.223   0.247   0.296   0.323   0.337   0.368   0.386
  0.413   0.444   0.478   0.487   0.528   0.543   0.561   0.581
  0.610   0.656   0.684   0.712   0.730   0.743   0.769   0.775
  0.794   0.813   0.823   0.826   0.869   0.872   0.892   0.910
  0.920   0.937   0.952   1.038   1.116   1.122   1.155   1.190
  1.353   1.428   1.461   1.550   1.672   1.757   1.832   1.861
  1.914   1.969   2.014   2.032   2.075   2.086   2.093   2.095
  2.108   2.120   2.124   2.272   2.307   2.347   2.394   2.501
  2.550   2.578   2.622   2.690   2.728   2.737   2.749   2.824
  2.858   2.908   3.175   3.268   3.380   3.407   3.456   3.510
  3.952   3.984   4.244   4.380   4.581
 
 Beta MOs
 -- Occupied --
-88.905 -88.852 -10.250 -10.201 -10.195  -7.966  -7.912  -5.930
 -5.927  -5.921  -5.877  -5.871  -5.868  -0.827  -0.720  -0.681
 -0.656  -0.583  -0.481  -0.449  -0.428  -0.410  -0.384  -0.368
 -0.359  -0.338  -0.271  -0.218
 -- Virtual --
 -0.117  -0.077   0.014   0.058   0.081   0.100   0.120   0.142
  0.154   0.165   0.191   0.227   0.256   0.304   0.332   0.349
  0.381   0.394   0.421   0.467   0.484   0.494   0.538   0.558
  0.579   0.610   0.621   0.670   0.701   0.721   0.740   0.758
  0.776   0.785   0.819   0.827   0.836   0.847   0.877   0.878
  0.903   0.922   0.929   0.960   0.966   1.054   1.122   1.129
  1.166   1.196   1.371   1.428   1.494   1.557   1.680   1.758
  1.833   1.870   1.934   1.993   2.019   2.034   2.077   2.090
  2.094   2.100   2.108   2.125   2.131   2.277   2.308   2.350
  2.404   2.514   2.564   2.592   2.625   2.692   2.730   2.739
  2.752   2.826   2.859   2.911   3.175   3.270   3.384   3.409
  3.457   3.516   3.960   3.998   4.261   4.392   4.585
 --------------------------------------------------------------
 
          Ground-State Mulliken Net Atomic Charges

     Atom                 Charge (a.u.)    Spin (a.u.)
  --------------------------------------------------------
      1 S                     0.030807       0.378810
      2 S                    -0.249809       0.803140
      3 C                    -0.223888      -0.090588
      4 C                    -0.185800       0.994998
      5 C                    -0.306349       0.010937
      6 H                     0.155196       0.008245
      7 H                     0.114581      -0.044236
      8 H                     0.148199      -0.043619
      9 H                     0.125311       0.001576
     10 H                     0.114615      -0.001131
     11 H                     0.127135       0.003562
     12 H                     0.092849      -0.010398
     13 H                     0.057153      -0.011296
  --------------------------------------------------------
  Sum of atomic charges =     0.000000
  Sum of spin   charges =     2.000000

 -----------------------------------------------------------------
                    Cartesian Multipole Moments
 -----------------------------------------------------------------
    Charge (ESU x 10^10)
                 0.0000
    Dipole Moment (Debye)
         X       2.9863      Y       0.8299      Z       0.0823
       Tot       3.1006
    Quadrupole Moments (Debye-Ang)
        XX     -52.4172     XY       0.6203     YY     -45.7441
        XZ       2.0856     YZ      -0.1860     ZZ     -46.1610
    Octopole Moments (Debye-Ang^2)
       XXX      63.2537    XXY      14.0203    XYY       9.0100
       YYY      34.5973    XXZ      -9.0505    XYZ      -5.0934
       YYZ      -3.4187    XZZ      21.6408    YZZ      14.4818
       ZZZ     -13.7218
    Hexadecapole Moments (Debye-Ang^3)
      XXXX    -905.6251   XXXY    -100.9759   XXYY    -195.5520
      XYYY     -96.3509   YYYY    -387.4409   XXXZ      35.8598
      XXYZ       6.8448   XYYZ      16.0676   YYYZ     -12.5253
      XXZZ    -175.7561   XYZZ     -42.9041   YYZZ     -81.7765
      XZZZ      31.8799   YZZZ      -7.3755   ZZZZ     -99.9939
 -----------------------------------------------------------------
 Calculating analytic gradient of the SCF energy
 Gradient of SCF Energy
            1           2           3           4           5           6
    1   0.0013407   0.0036443   0.0004447  -0.0088949   0.0000576  -0.0001572
    2   0.0003911   0.0042034  -0.0014855  -0.0024108  -0.0011737   0.0005453
    3  -0.0000904   0.0005987   0.0003515  -0.0036781  -0.0000076   0.0000570
            7           8           9          10          11          12
    1   0.0001453   0.0029810   0.0000408   0.0000035  -0.0000651  -0.0001420
    2   0.0001318  -0.0006482   0.0000682   0.0000397   0.0000686   0.0002665
    3  -0.0000061   0.0029335  -0.0000182  -0.0000244  -0.0000044   0.0000300
           13
    1   0.0006012
    2   0.0000035
    3  -0.0001417
 Max gradient component =       8.895E-03
 RMS gradient           =       1.990E-03
 Gradient time:  CPU 11.22 s  wall 1.00 s
 Geometry Optimization Parameters
   NAtoms,    NIC,     NZ,  NCons,   NDum,   NFix, NCnnct, MaxDiis
       13      90       0       1       0       0       0       0

 Cartesian Hessian Update
 Hessian Updated using BFGS Update


** CONSTRAINED OPTIMIZATION IN DELOCALIZED INTERNAL COORDINATES **
   Searching for a Minimum

   Optimization Cycle:   3

                       Coordinates (Angstroms)
     ATOM                X               Y               Z
      1  S         0.2683355744   -1.3593133098   -0.1520247423
      2  S        -2.5842007109   -0.8136812972    0.2659674797
      3  C         0.6573290781    0.5143059660   -0.2945393276
      4  C        -0.3313896848    1.3078176160    0.4505974785
      5  C         2.1091595318    0.7411865097    0.1306120118
      6  H         0.5415320724    0.6626217992   -1.3725366086
      7  H        -0.1837226994    1.4811604947    1.5129072580
      8  H        -1.2595616113    1.6249439439    0.0094707655
      9  H         2.3890990549    1.7837531154   -0.0565576951
     10  H         2.2371362392    0.5488261091    1.2007114394
     11  H         2.7932056830    0.0922630175   -0.4212051431
     12  H         0.3981516137   -1.4250142745    1.1874333895
     13  H        -2.7953711411   -2.0338716900   -0.2718373057
   Point Group: c1    Number of degrees of freedom:    33


   Energy is   -915.421106167

              Constraints and their Current Values
                                        Value     Constraint
   Distance(Angs):        2   4             3.100001     3.100000
 Hessian Updated using BFGS Update

   Using Lagrange Multiplier Algorithm


 34 Hessian modes will be used to form the next step
  Hessian Eigenvalues:
    -0.981998    0.043707    0.044942    0.045003    0.045918    0.046679
     0.052672    0.066843    0.074803    0.080016    0.082580    0.084231
     0.087027    0.094928    0.100551    0.133907    0.158320    0.159491
     0.160000    0.160003    0.164728    0.177364    0.184424    0.256356
     0.258403    0.295011    0.341531    0.342669    0.343189    0.344069
     0.344929    0.351948    0.385538    1.025544

 Minimum Search - Taking P-RFO Step
 Searching for Lamda that Maximizes Along the Constraint modes Only
 Value Taken    Lamda =   0.00000005
 Searching for Lamda that Minimizes Along All other modes
 Value Taken    Lamda =  -0.00014635
 Step Taken.  Stepsize is  0.037116

                             Maximum     Tolerance    Cnvgd?
         Gradient            0.002171       0.000300      NO
         Displacement        0.017140       0.001200      NO
         Energy change     -0.000277       0.000001      NO


 New Cartesian Coordinates Obtained by Inverse Iteration

 Displacement from previous Coordinates is:  0.059642
 ----------------------------------------------------------------
             Standard Nuclear Orientation (Angstroms)
    I     Atom           X                Y                Z
 ----------------------------------------------------------------
    1      S       0.2621533592    -1.3633836211    -0.1520662430
    2      S      -2.5868330850    -0.8098725396     0.2629970383
    3      C       0.6605183794     0.5123380860    -0.2932398378
    4      C      -0.3256891535     1.3021176776     0.4546377088
    5      C       2.1117632422     0.7472251020     0.1302380372
    6      H       0.5442804975     0.6578620652    -1.3714458305
    7      H      -0.1827087088     1.4757677332     1.5173230984
    8      H      -1.2555572499     1.6182284938     0.0021183897
    9      H       2.3847252746     1.7909683991    -0.0593198413
   10      H       2.2417069059     0.5574038396     1.2005987451
   11      H       2.7995792059     0.1011841950    -0.4207510934
   12      H       0.3941112540    -1.4339131420     1.1869339572
   13      H      -2.8083469215    -2.0309282890    -0.2690251286
 ----------------------------------------------------------------
 Nuclear Repulsion Energy =   272.7323193976 hartrees
 There are       30 alpha and       28 beta electrons

                       Distance Matrix (Angstroms)
             S (  1)   S (  2)   C (  3)   C (  4)   C (  5)   H (  6)
   S (  2)  2.931787
   C (  3)  1.922747  3.550061
   C (  4)  2.796166  3.100000  1.468223
   C (  5)  2.820536  4.951665  1.529908  2.520777
   H (  6)  2.377376  3.824856  1.094174  2.122850  2.172566
   H (  7)  3.323484  3.546449  2.217514  1.086231  2.778377  3.089089
   H (  8)  3.349213  2.781372  2.231944  1.081367  3.480504  2.459349
   H (  9)  3.803137  5.620023  2.159283  2.801691  1.095372  2.528407
   H ( 10)  3.072094  5.105227  2.175716  2.775352  1.094801  3.083304
   H ( 11)  2.942054  5.505540  2.181946  3.460614  1.092725  2.509997
   H ( 12)  1.347334  3.182627  2.459630  2.922368  2.970572  3.308078
   H ( 13)  3.144403  1.350220  4.301374  4.218587  5.664365  4.436782
             H (  7)   H (  8)   H (  9)   H ( 10)   H ( 11)   H ( 12)
   H (  8)  1.862027
   H (  9)  3.029335  3.644897
   H ( 10)  2.611800  3.846110  1.769048
   H ( 11)  3.813090  4.350215  1.777106  1.774298
   H ( 12)  2.984648  3.666165  3.989430  2.716457  3.275279
   H ( 13)  4.730955  3.975050  6.451269  5.861937  6.001480  3.568190

 
 Applying Cartesian multipole field
    Component          Value
    ---------          -----
     (2,0,0)        1.00000E-11
     (0,2,0)        2.00000E-11
     (0,0,2)       -3.00000E-10
 Nucleus-field energy     =    -0.0000000004 hartrees
 Requested basis set is 6-31G(d,p)
 There are 46 shells and 123 basis functions
 A cutoff of  1.0D-14 yielded   1004 shell pairs
 There are      7386 function pairs
 Smallest overlap matrix eigenvalue = 5.77E-03
 Guess from superposition of atomic densities
 Warning:  Energy on first SCF cycle will be non-variational
 SAD guess density has 58.000000 electrons

 -----------------------------------------------------------------------
  General SCF calculation program by
  Eric Jon Sundstrom, Paul Horn, Yuezhi Mao, Dmitri Zuev, Alec White,
  David Stuck, Shaama M.S., Shane Yost, Joonho Lee, David Small,
  Daniel Levine, Susi Lehtola, Hugh Burton, Evgeny Epifanovsky
 -----------------------------------------------------------------------
 Exchange:     0.2000 Hartree-Fock + 0.0800 Slater + 0.7200 B88
 Correlation:  0.1900 VWN1RPA + 0.8100 LYP
 Using SG-1 standard quadrature grid
 using 12 threads for integral computing
 -------------------------------------------------------
 OpenMP Integral computing Module                
 Release: version 1.0, May 2013, Q-Chem Inc. Pittsburgh 
 -------------------------------------------------------
 -------------------------------------------------------
 OpenMP BLAS3 based DFT computing Module                
 Release: version 1.0, May 2013, Q-Chem Inc. Pittsburgh 
 -------------------------------------------------------
 A unrestricted SCF calculation will be
 performed using DIIS
 SCF converges when DIIS error is below 1.0e-06
 Alpha HF Exchange    Energy =  -6.82798665701276
 Beta HF Exchange     Energy =  -6.82798665701276
 DFT Correlation      Energy =  -2.70137675875657
 DFT Exchange         Energy = -53.81690685975330
 One-Electron (alpha) Energy = -898.68955073197696
 One-Electron (beta)  Energy = -898.68955073197696
 Total Coulomb        Energy = 678.99811104039475
 ---------------------------------------
  Cycle       Energy         DIIS error
 ---------------------------------------
    1    -915.8229279589      2.61e-02  
 Alpha HF Exchange    Energy =  -6.95695526774536
 Beta HF Exchange     Energy =  -6.75421060191534
 DFT Correlation      Energy =  -2.72248481704926
 DFT Exchange         Energy = -54.41855750723511
 One-Electron (alpha) Energy = -917.75897334667297
 One-Electron (beta)  Energy = -886.58325975229729
 Total Coulomb        Energy = 687.14687269888111
    2    -915.3152491968      3.21e-03  
 Alpha HF Exchange    Energy =  -6.90155501408499
 Beta HF Exchange     Energy =  -6.71854771797807
 DFT Correlation      Energy =  -2.69580135867883
 DFT Exchange         Energy = -54.01108538443704
 One-Electron (alpha) Energy = -914.57752002707525
 One-Electron (beta)  Energy = -884.10185271367470
 Total Coulomb        Energy = 681.02327386582317
    3    -915.2507689529      4.20e-03  
 Alpha HF Exchange    Energy =  -6.92680708106063
 Beta HF Exchange     Energy =  -6.72891452251932
 DFT Correlation      Energy =  -2.70693549970057
 DFT Exchange         Energy = -54.16845049567039
 One-Electron (alpha) Energy = -915.82520353502707
 One-Electron (beta)  Energy = -884.83595241865999
 Total Coulomb        Energy = 683.04218900213266
    4    -915.4177551533      5.45e-04  
 Alpha HF Exchange    Energy =  -6.93259916426165
 Beta HF Exchange     Energy =  -6.73526749086653
 DFT Correlation      Energy =  -2.70810655611985
 DFT Exchange         Energy = -54.21317211121892
 One-Electron (alpha) Energy = -916.26711111293389
 One-Electron (beta)  Energy = -885.28203318970429
 Total Coulomb        Energy = 683.98572262937535
    5    -915.4202475985      2.95e-04  
 Alpha HF Exchange    Energy =  -6.93222430977167
 Beta HF Exchange     Energy =  -6.73404610263658
 DFT Correlation      Energy =  -2.70759466437869
 DFT Exchange         Energy = -54.20623240205362
 One-Electron (alpha) Energy = -916.18540062873876
 One-Electron (beta)  Energy = -885.16211918906913
 Total Coulomb        Energy = 683.77417067601607
    6    -915.4211272234      6.68e-05  
 Alpha HF Exchange    Energy =  -6.93205589687022
 Beta HF Exchange     Energy =  -6.73403281211359
 DFT Correlation      Energy =  -2.70743673381846
 DFT Exchange         Energy = -54.20481671402709
 One-Electron (alpha) Energy = -916.16291995745814
 One-Electron (beta)  Energy = -885.14685886323480
 Total Coulomb        Energy = 683.73462244267421
    7    -915.4211791377      2.67e-05  
 Alpha HF Exchange    Energy =  -6.93228105786089
 Beta HF Exchange     Energy =  -6.73414426707162
 DFT Correlation      Energy =  -2.70742525649579
 DFT Exchange         Energy = -54.20593370871492
 One-Electron (alpha) Energy = -916.17699558658933
 One-Electron (beta)  Energy = -885.15595778870340
 Total Coulomb        Energy = 683.75923004971924
    8    -915.4211882185      9.20e-06  
 Alpha HF Exchange    Energy =  -6.93227675620528
 Beta HF Exchange     Energy =  -6.73417075865831
 DFT Correlation      Energy =  -2.70741147963876
 DFT Exchange         Energy = -54.20597000629666
 One-Electron (alpha) Energy = -916.17499064794538
 One-Electron (beta)  Energy = -885.15526023561324
 Total Coulomb        Energy = 683.75657133852985
    9    -915.4211891486      3.92e-06  
 Alpha HF Exchange    Energy =  -6.93226787323027
 Beta HF Exchange     Energy =  -6.73415199173870
 DFT Correlation      Energy =  -2.70740221216761
 DFT Exchange         Energy = -54.20585180012761
 One-Electron (alpha) Energy = -916.17326588896833
 One-Electron (beta)  Energy = -885.15346930342105
 Total Coulomb        Energy = 683.75290037494619
   10    -915.4211892975      1.53e-06  
 Alpha HF Exchange    Energy =  -6.93227570736336
 Beta HF Exchange     Energy =  -6.73415961295036
 DFT Correlation      Energy =  -2.70740540042138
 DFT Exchange         Energy = -54.20591655110935
 One-Electron (alpha) Energy = -916.17424803878225
 One-Electron (beta)  Energy = -885.15442886569531
 Total Coulomb        Energy = 683.75492545513794
   11    -915.4211893240      4.11e-07  Convergence criterion met
 ---------------------------------------
 SCF time:   CPU 34.08s  wall 3.00s 
<S^2> =          2.008592951
 Alpha HF Exchange    Energy =  -6.93227570736336
 Beta HF Exchange     Energy =  -6.73415961295036
 DFT Correlation      Energy =  -2.70740540042138
 DFT Exchange         Energy = -54.20591655110935
 One-Electron (alpha) Energy = -916.17424803878225
 One-Electron (beta)  Energy = -885.15442886569531
 Total Coulomb        Energy = 683.75492545513794
 Nuclear repulsion Energy = 272.73231939718454
 SCF   energy in the final basis set =     -915.4211893240
 Total energy in the final basis set =     -915.4211893240
 
 --------------------------------------------------------------
 
                    Orbital Energies (a.u.)
 --------------------------------------------------------------
 
 Alpha MOs
 -- Occupied --
-88.908 -88.856 -10.249 -10.209 -10.201  -7.969  -7.917  -5.933
 -5.930  -5.927  -5.886  -5.879  -5.871  -0.836  -0.733  -0.702
 -0.686  -0.593  -0.486  -0.454  -0.435  -0.416  -0.390  -0.377
 -0.366  -0.350  -0.312  -0.230  -0.222  -0.216
 -- Virtual --
  0.004   0.046   0.070   0.098   0.118   0.131   0.154   0.163
  0.185   0.222   0.248   0.296   0.323   0.337   0.367   0.386
  0.413   0.444   0.478   0.487   0.528   0.544   0.561   0.582
  0.610   0.656   0.685   0.711   0.731   0.742   0.768   0.775
  0.794   0.812   0.823   0.826   0.868   0.872   0.892   0.909
  0.920   0.936   0.950   1.039   1.116   1.122   1.155   1.188
  1.353   1.429   1.461   1.551   1.671   1.756   1.832   1.863
  1.912   1.968   2.011   2.031   2.074   2.086   2.092   2.095
  2.108   2.121   2.125   2.271   2.307   2.347   2.392   2.497
  2.550   2.580   2.622   2.689   2.727   2.736   2.749   2.820
  2.858   2.906   3.174   3.265   3.378   3.406   3.455   3.505
  3.952   3.984   4.246   4.379   4.581
 
 Beta MOs
 -- Occupied --
-88.905 -88.851 -10.250 -10.201 -10.196  -7.966  -7.912  -5.930
 -5.927  -5.921  -5.877  -5.870  -5.868  -0.826  -0.721  -0.681
 -0.655  -0.583  -0.481  -0.449  -0.428  -0.410  -0.384  -0.367
 -0.359  -0.337  -0.271  -0.218
 -- Virtual --
 -0.117  -0.077   0.014   0.057   0.081   0.099   0.120   0.141
  0.155   0.164   0.191   0.226   0.256   0.304   0.332   0.349
  0.379   0.393   0.421   0.467   0.484   0.494   0.539   0.558
  0.578   0.611   0.621   0.670   0.702   0.720   0.741   0.757
  0.775   0.785   0.818   0.826   0.835   0.847   0.876   0.877
  0.903   0.921   0.928   0.959   0.965   1.055   1.122   1.129
  1.166   1.195   1.371   1.430   1.495   1.558   1.679   1.757
  1.834   1.872   1.932   1.991   2.018   2.033   2.076   2.090
  2.094   2.099   2.108   2.125   2.131   2.277   2.308   2.351
  2.402   2.510   2.563   2.593   2.625   2.691   2.729   2.737
  2.752   2.822   2.858   2.908   3.175   3.268   3.383   3.407
  3.456   3.510   3.960   3.998   4.262   4.391   4.585
 --------------------------------------------------------------
 
          Ground-State Mulliken Net Atomic Charges

     Atom                 Charge (a.u.)    Spin (a.u.)
  --------------------------------------------------------
      1 S                     0.029759       0.381587
      2 S                    -0.249939       0.802894
      3 C                    -0.222742      -0.091146
      4 C                    -0.186224       0.993240
      5 C                    -0.306235       0.010920
      6 H                     0.155293       0.008238
      7 H                     0.115333      -0.044182
      8 H                     0.147888      -0.043798
      9 H                     0.125847       0.001445
     10 H                     0.114684      -0.001134
     11 H                     0.126677       0.003760
     12 H                     0.092769      -0.010496
     13 H                     0.056890      -0.011328
  --------------------------------------------------------
  Sum of atomic charges =    -0.000000
  Sum of spin   charges =     2.000000

 -----------------------------------------------------------------
                    Cartesian Multipole Moments
 -----------------------------------------------------------------
    Charge (ESU x 10^10)
                 0.0000
    Dipole Moment (Debye)
         X       2.9944      Y       0.8299      Z       0.0925
       Tot       3.1086
    Quadrupole Moments (Debye-Ang)
        XX     -52.4245     XY       0.6828     YY     -45.7402
        XZ       2.0785     YZ      -0.2129     ZZ     -46.1532
    Octopole Moments (Debye-Ang^2)
       XXX      63.4539    XXY      13.9256    XYY       9.0664
       YYY      34.6388    XXZ      -9.0314    XYZ      -5.0469
       YYZ      -3.3319    XZZ      21.7175    YZZ      14.5003
       ZZZ     -13.6132
    Hexadecapole Moments (Debye-Ang^3)
      XXXX    -907.0695   XXXY    -101.0098   XXYY    -195.7093
      XYYY     -96.6227   YYYY    -387.6886   XXXZ      35.5728
      XXYZ       6.6796   XYYZ      15.9106   YYYZ     -12.8935
      XXZZ    -176.1051   XYZZ     -43.0400   YYZZ     -81.7423
      XZZZ      31.5368   YZZZ      -7.5364   ZZZZ     -99.9004
 -----------------------------------------------------------------
 Calculating analytic gradient of the SCF energy
 Gradient of SCF Energy
            1           2           3           4           5           6
    1   0.0002480   0.0038460  -0.0004804  -0.0039294   0.0000100   0.0001234
    2  -0.0000501   0.0041168  -0.0008553  -0.0042297   0.0002486   0.0002483
    3  -0.0000193   0.0005631  -0.0000539  -0.0007277   0.0000279  -0.0000322
            7           8           9          10          11          12
    1   0.0001096  -0.0002830   0.0000498  -0.0000042  -0.0000327  -0.0001302
    2   0.0001942   0.0001801   0.0000116   0.0000050   0.0000049   0.0001453
    3   0.0000659   0.0003146   0.0000294  -0.0000040  -0.0000358   0.0000099
           13
    1   0.0004731
    2  -0.0000197
    3  -0.0001378
 Max gradient component =       4.230E-03
 RMS gradient           =       1.317E-03
 Gradient time:  CPU 11.20 s  wall 0.99 s
 Geometry Optimization Parameters
   NAtoms,    NIC,     NZ,  NCons,   NDum,   NFix, NCnnct, MaxDiis
       13      90       0       1       0       0       0       0

 Cartesian Hessian Update
 Hessian Updated using BFGS Update


** CONSTRAINED OPTIMIZATION IN DELOCALIZED INTERNAL COORDINATES **
   Searching for a Minimum

   Optimization Cycle:   4

                       Coordinates (Angstroms)
     ATOM                X               Y               Z
      1  S         0.2621533592   -1.3633836211   -0.1520662430
      2  S        -2.5868330850   -0.8098725396    0.2629970383
      3  C         0.6605183794    0.5123380860   -0.2932398378
      4  C        -0.3256891535    1.3021176776    0.4546377088
      5  C         2.1117632422    0.7472251020    0.1302380372
      6  H         0.5442804975    0.6578620652   -1.3714458305
      7  H        -0.1827087088    1.4757677332    1.5173230984
      8  H        -1.2555572499    1.6182284938    0.0021183897
      9  H         2.3847252746    1.7909683991   -0.0593198413
     10  H         2.2417069059    0.5574038396    1.2005987451
     11  H         2.7995792059    0.1011841950   -0.4207510934
     12  H         0.3941112540   -1.4339131420    1.1869339572
     13  H        -2.8083469215   -2.0309282890   -0.2690251286
   Point Group: c1    Number of degrees of freedom:    33


   Energy is   -915.421189324

              Constraints and their Current Values
                                        Value     Constraint
   Distance(Angs):        2   4             3.100000     3.100000
 Hessian Updated using BFGS Update

 32 Hessian modes will be used to form the next step
  Hessian Eigenvalues:
     0.040212    0.044100    0.045003    0.045793    0.046361    0.052125
     0.061749    0.071141    0.079993    0.082522    0.084208    0.084711
     0.094623    0.099398    0.132790    0.158427    0.159405    0.160000
     0.160008    0.164341    0.184145    0.188176    0.256351    0.258403
     0.295061    0.341867    0.342680    0.343173    0.344445    0.345104
     0.351967    0.427272

 Minimum Search - Taking Simple RFO Step
 Searching for Lamda that Minimizes Along All modes
 Value Taken    Lamda =  -0.00001544
 Step Taken.  Stepsize is  0.017147

                             Maximum     Tolerance    Cnvgd?
         Gradient           0.000525      0.000300      NO
         Displacement       0.007772      0.001200      NO
         Energy change     -0.000083      0.000001      NO


 New Cartesian Coordinates Obtained by Inverse Iteration

 Displacement from previous Coordinates is:  0.021553
 ----------------------------------------------------------------
             Standard Nuclear Orientation (Angstroms)
    I     Atom           X                Y                Z
 ----------------------------------------------------------------
    1      S       0.2615409974    -1.3631869394    -0.1529497570
    2      S      -2.5874451783    -0.8094070721     0.2622307900
    3      C       0.6620618644     0.5135517384    -0.2926335280
    4      C      -0.3253346035     1.3014341570     0.4551187262
    5      C       2.1132483015     0.7483756308     0.1305305116
    6      H       0.5451751564     0.6580703548    -1.3708079127
    7      H      -0.1858544142     1.4737771588     1.5182846215
    8      H      -1.2543122968     1.6160924854    -0.0015957736
    9      H       2.3851327671     1.7923062225    -0.0594001257
   10      H       2.2436065221     0.5587346309     1.2008586146
   11      H       2.8014782998     0.1027797151    -0.4205056193
   12      H       0.3957294588    -1.4364635471     1.1857067737
   13      H      -2.8153238748    -2.0310665350    -0.2658383212
 ----------------------------------------------------------------
 Nuclear Repulsion Energy =   272.6747569500 hartrees
 There are       30 alpha and       28 beta electrons

                       Distance Matrix (Angstroms)
             S (  1)   S (  2)   C (  3)   C (  4)   C (  5)   H (  6)
   S (  2)  2.931854
   C (  3)  1.924078  3.552097
   C (  4)  2.795421  3.100000  1.467939
   C (  5)  2.822743  4.953842  1.529756  2.521491
   H (  6)  2.376785  3.825391  1.094079  2.122666  2.172792
   H (  7)  3.322883  3.543761  2.218202  1.086038  2.781716  3.089763
   H (  8)  3.346166  2.780269  2.229975  1.081942  3.480065  2.455749
   H (  9)  3.804672  5.621289  2.158375  2.802199  1.095347  2.528186
   H ( 10)  3.074925  5.108023  2.175740  2.776182  1.094787  3.083505
   H ( 11)  2.944813  5.508059  2.182244  3.461279  1.092747  2.510443
   H ( 12)  1.347359  3.185175  2.461500  2.924000  2.972674  3.308349
   H ( 13)  3.150540  1.350273  4.309062  4.222012  5.672145  4.443576
             H (  7)   H (  8)   H (  9)   H ( 10)   H ( 11)   H ( 12)
   H (  8)  1.863301
   H (  9)  3.033237  3.644167
   H ( 10)  2.615405  3.846991  1.769175
   H ( 11)  3.816110  4.349142  1.777144  1.774243
   H ( 12)  2.986360  3.667482  3.991613  2.719503  3.276708
   H ( 13)  4.730870  3.975972  6.457983  5.869501  6.010465  3.573709

 
 Applying Cartesian multipole field
    Component          Value
    ---------          -----
     (2,0,0)        1.00000E-11
     (0,2,0)        2.00000E-11
     (0,0,2)       -3.00000E-10
 Nucleus-field energy     =    -0.0000000004 hartrees
 Requested basis set is 6-31G(d,p)
 There are 46 shells and 123 basis functions
 A cutoff of  1.0D-14 yielded   1004 shell pairs
 There are      7386 function pairs
 Smallest overlap matrix eigenvalue = 5.78E-03
[...]
 ----------------------------------------------------------------
 Nuclear Repulsion Energy =   272.3141555781 hartrees
 There are       30 alpha and       28 beta electrons

                       Distance Matrix (Angstroms)
             S (  1)   S (  2)   C (  3)   C (  4)   C (  5)   H (  6)
   S (  2)  2.941399
   C (  3)  1.925160  3.578488
   C (  4)  2.797382  3.100000  1.468172
   C (  5)  2.821756  4.954079  1.529160  2.523787
   H (  6)  2.375928  3.899024  1.094093  2.122271  2.171995
   H (  7)  3.318991  3.479340  2.219114  1.085776  2.790724  3.091105
   H (  8)  3.344332  2.815215  2.228006  1.081374  3.480750  2.452442
   H (  9)  3.803752  5.633243  2.157710  2.806443  1.095343  2.526240
   H ( 10)  3.077407  5.071765  2.175588  2.777894  1.094889  3.083218
   H ( 11)  2.940383  5.517948  2.181734  3.462815  1.092717  2.510275
   H ( 12)  1.347697  3.186814  2.463919  2.959198  2.942093  3.309072
   H ( 13)  3.184442  1.350544  4.369520  4.241679  5.704392  4.567219
             H (  7)   H (  8)   H (  9)   H ( 10)   H ( 11)   H ( 12)
   H (  8)  1.862244
   H (  9)  3.049240  3.647705
   H ( 10)  2.622752  3.847802  1.768890
   H ( 11)  3.822772  4.348479  1.776915  1.774666
   H ( 12)  3.015269  3.711475  3.969585  2.688783  3.224735
   H ( 13)  4.677635  4.024984  6.505425  5.851985  6.058709  3.558742

 
 Applying Cartesian multipole field
    Component          Value
    ---------          -----
     (2,0,0)        1.00000E-11
     (0,2,0)        2.00000E-11
     (0,0,2)       -3.00000E-10
 Nucleus-field energy     =    -0.0000000010 hartrees
 Requested basis set is 6-31G(d,p)
 There are 46 shells and 123 basis functions
 A cutoff of  1.0D-14 yielded   1005 shell pairs
 There are      7391 function pairs
 Smallest overlap matrix eigenvalue = 5.79E-03
 Guess from superposition of atomic densities
 Warning:  Energy on first SCF cycle will be non-variational
 SAD guess density has 58.000000 electrons

 -----------------------------------------------------------------------
  General SCF calculation program by
  Eric Jon Sundstrom, Paul Horn, Yuezhi Mao, Dmitri Zuev, Alec White,
  David Stuck, Shaama M.S., Shane Yost, Joonho Lee, David Small,
  Daniel Levine, Susi Lehtola, Hugh Burton, Evgeny Epifanovsky
 -----------------------------------------------------------------------
 Exchange:     0.2000 Hartree-Fock + 0.0800 Slater + 0.7200 B88
 Correlation:  0.1900 VWN1RPA + 0.8100 LYP
 Using SG-1 standard quadrature grid
 using 12 threads for integral computing
 -------------------------------------------------------
 OpenMP Integral computing Module                
 Release: version 1.0, May 2013, Q-Chem Inc. Pittsburgh 
 -------------------------------------------------------
 -------------------------------------------------------
 OpenMP BLAS3 based DFT computing Module                
 Release: version 1.0, May 2013, Q-Chem Inc. Pittsburgh 
 -------------------------------------------------------
 A unrestricted SCF calculation will be
 performed using DIIS
 SCF converges when DIIS error is below 1.0e-06
 Alpha HF Exchange    Energy =  -6.82763889783966
 Beta HF Exchange     Energy =  -6.82763889783966
 DFT Correlation      Energy =  -2.70116119289520
 DFT Exchange         Energy = -53.81630632304236
 One-Electron (alpha) Energy = -898.27170977373612
 One-Electron (beta)  Energy = -898.27170977373612
 Total Coulomb        Energy = 678.58199465099642
 ---------------------------------------
  Cycle       Energy         DIIS error
 ---------------------------------------
    1    -915.8200146309      2.61e-02  
 Alpha HF Exchange    Energy =  -6.95682920158515
 Beta HF Exchange     Energy =  -6.75405394026298
 DFT Correlation      Energy =  -2.72228083522935
 DFT Exchange         Energy = -54.41768757811690
 One-Electron (alpha) Energy = -917.33428087358004
 One-Electron (beta)  Energy = -886.17404424489939
 Total Coulomb        Energy = 686.72986932896220
    2    -915.3151517676      3.21e-03  
 Alpha HF Exchange    Energy =  -6.90146921971721
 Beta HF Exchange     Energy =  -6.71851620731165
 DFT Correlation      Energy =  -2.69559411501363
 DFT Exchange         Energy = -54.01066162820030
 One-Electron (alpha) Energy = -914.15413807737559
 One-Electron (beta)  Energy = -883.70095361106166
 Total Coulomb        Energy = 680.61682200316318
    3    -915.2503552784      4.20e-03  
 Alpha HF Exchange    Energy =  -6.92667928275086
 Beta HF Exchange     Energy =  -6.72878147223111
 DFT Correlation      Energy =  -2.70671446151550
 DFT Exchange         Energy = -54.16753907110065
 One-Electron (alpha) Energy = -915.39752162898651
 One-Electron (beta)  Energy = -884.42754447811319
 Total Coulomb        Energy = 682.62281671676908
    4    -915.4178081008      5.45e-04  
 Alpha HF Exchange    Energy =  -6.93250546430369
 Beta HF Exchange     Energy =  -6.73517220084685
 DFT Correlation      Energy =  -2.70789096800237
 DFT Exchange         Energy = -54.21252411609470
 One-Electron (alpha) Energy = -915.84242991124029
 One-Electron (beta)  Energy = -884.87712326902442
 Total Coulomb        Energy = 683.57318632857732
    5    -915.4203040238      2.95e-04  
 Alpha HF Exchange    Energy =  -6.93211854396955
 Beta HF Exchange     Energy =  -6.73394337695654
 DFT Correlation      Energy =  -2.70737644085074
 DFT Exchange         Energy = -54.20551591747440
 One-Electron (alpha) Energy = -915.75926780453153
 One-Electron (beta)  Energy = -884.75600988287840
 Total Coulomb        Energy = 683.35888826588734
    6    -915.4211881236      6.68e-05  
 Alpha HF Exchange    Energy =  -6.93195402541619
 Beta HF Exchange     Energy =  -6.73393268459714
 DFT Correlation      Energy =  -2.70721760928429
 DFT Exchange         Energy = -54.20411537052755
 One-Electron (alpha) Energy = -915.73691808504577
 One-Electron (beta)  Energy = -884.74106962031260
 Total Coulomb        Energy = 683.31981160940779
    7    -915.4212402086      2.67e-05  
 Alpha HF Exchange    Energy =  -6.93218005621032
 Beta HF Exchange     Energy =  -6.73404788508064
 DFT Correlation      Energy =  -2.70720688305858
 DFT Exchange         Energy = -54.20525131528323
 One-Electron (alpha) Energy = -915.75117622453877
 One-Electron (beta)  Energy = -884.75052495654916
 Total Coulomb        Energy = 683.34498240910875
    8    -915.4212493345      9.11e-06  
 Alpha HF Exchange    Energy =  -6.93217320780663
 Beta HF Exchange     Energy =  -6.73407245958445
 DFT Correlation      Energy =  -2.70719209601199
 DFT Exchange         Energy = -54.20526934528411
 One-Electron (alpha) Energy = -915.74881279369106
 One-Electron (beta)  Energy = -884.74957564416377
 Total Coulomb        Energy = 683.34168969018629
    9    -915.4212502792      3.84e-06  
 Alpha HF Exchange    Energy =  -6.93216520104110
 Beta HF Exchange     Energy =  -6.73405433149795
 DFT Correlation      Energy =  -2.70718321081599
 DFT Exchange         Energy = -54.20515762981010
 One-Electron (alpha) Energy = -915.74720860299453
 One-Electron (beta)  Energy = -884.74791097580476
 Total Coulomb        Energy = 683.33827394149728
   10    -915.4212504333      1.58e-06  
 Alpha HF Exchange    Energy =  -6.93217296756848
 Beta HF Exchange     Energy =  -6.73406225075435
 DFT Correlation      Energy =  -2.70718645684274
 DFT Exchange         Energy = -54.20522322390796
 One-Electron (alpha) Energy = -915.74819047867197
 One-Electron (beta)  Energy = -884.74888967781555
 Total Coulomb        Energy = 683.34031901185085
   11    -915.4212504666      4.61e-07  Convergence criterion met
 ---------------------------------------
 SCF time:   CPU 33.77s  wall 3.00s 
<S^2> =          2.008645906
 Alpha HF Exchange    Energy =  -6.93217296756848
 Beta HF Exchange     Energy =  -6.73406225075435
 DFT Correlation      Energy =  -2.70718645684274
 DFT Exchange         Energy = -54.20522322390796
 One-Electron (alpha) Energy = -915.74819047867197
 One-Electron (beta)  Energy = -884.74888967781555
 Total Coulomb        Energy = 683.34031901185085
 Nuclear repulsion Energy = 272.31415557715565
 SCF   energy in the final basis set =     -915.4212504666
 Total energy in the final basis set =     -915.4212504666
 
 --------------------------------------------------------------
 
                    Orbital Energies (a.u.)
 --------------------------------------------------------------
 
 Alpha MOs
 -- Occupied --
-88.907 -88.856 -10.249 -10.209 -10.202  -7.969  -7.917  -5.933
 -5.929  -5.927  -5.886  -5.879  -5.871  -0.836  -0.733  -0.702
 -0.686  -0.593  -0.486  -0.453  -0.435  -0.416  -0.390  -0.377
 -0.366  -0.349  -0.311  -0.229  -0.222  -0.216
 -- Virtual --
  0.004   0.046   0.071   0.097   0.118   0.131   0.153   0.163
  0.185   0.222   0.248   0.295   0.324   0.336   0.365   0.387
  0.413   0.443   0.479   0.487   0.526   0.545   0.560   0.580
  0.610   0.656   0.687   0.711   0.734   0.742   0.768   0.777
  0.794   0.811   0.824   0.826   0.867   0.872   0.891   0.908
  0.920   0.935   0.950   1.041   1.114   1.121   1.155   1.188
  1.355   1.429   1.461   1.551   1.671   1.754   1.832   1.864
  1.912   1.968   2.012   2.031   2.074   2.085   2.090   2.095
  2.108   2.119   2.125   2.272   2.307   2.346   2.393   2.494
  2.550   2.581   2.622   2.689   2.727   2.736   2.749   2.820
  2.858   2.905   3.174   3.265   3.380   3.405   3.454   3.504
  3.951   3.984   4.246   4.380   4.582
 
 Beta MOs
 -- Occupied --
-88.905 -88.852 -10.250 -10.201 -10.196  -7.966  -7.912  -5.930
 -5.926  -5.921  -5.877  -5.871  -5.868  -0.826  -0.720  -0.681
 -0.655  -0.582  -0.481  -0.448  -0.429  -0.411  -0.384  -0.367
 -0.359  -0.337  -0.271  -0.218
 -- Virtual --
 -0.117  -0.078   0.014   0.056   0.082   0.099   0.120   0.141
  0.154   0.164   0.191   0.226   0.257   0.304   0.332   0.349
  0.378   0.395   0.421   0.467   0.485   0.493   0.537   0.560
  0.577   0.610   0.621   0.669   0.705   0.721   0.745   0.757
  0.775   0.786   0.818   0.826   0.836   0.847   0.875   0.877
  0.902   0.920   0.928   0.960   0.963   1.057   1.121   1.127
  1.166   1.195   1.373   1.429   1.494   1.558   1.679   1.755
  1.834   1.873   1.932   1.990   2.018   2.033   2.077   2.088
  2.094   2.099   2.108   2.124   2.131   2.277   2.308   2.349
  2.403   2.507   2.564   2.595   2.625   2.692   2.729   2.738
  2.751   2.822   2.858   2.908   3.175   3.268   3.384   3.407
  3.455   3.509   3.960   3.998   4.262   4.393   4.585
 --------------------------------------------------------------
 
          Ground-State Mulliken Net Atomic Charges

     Atom                 Charge (a.u.)    Spin (a.u.)
  --------------------------------------------------------
      1 S                     0.029246       0.380793
      2 S                    -0.248553       0.805207
      3 C                    -0.223128      -0.090921
      4 C                    -0.184871       0.991185
      5 C                    -0.307170       0.011130
      6 H                     0.154644       0.007767
      7 H                     0.117175      -0.043868
      8 H                     0.146326      -0.043624
      9 H                     0.126265       0.001385
     10 H                     0.115063      -0.001153
     11 H                     0.127130       0.003708
     12 H                     0.092033      -0.010619
     13 H                     0.055842      -0.010991
  --------------------------------------------------------
  Sum of atomic charges =     0.000000
  Sum of spin   charges =     2.000000

 -----------------------------------------------------------------
                    Cartesian Multipole Moments
 -----------------------------------------------------------------
    Charge (ESU x 10^10)
                -0.0000
    Dipole Moment (Debye)
         X       2.9989      Y       0.8048      Z       0.0972
       Tot       3.1065
    Quadrupole Moments (Debye-Ang)
        XX     -52.2040     XY       0.7798     YY     -45.5061
        XZ       2.0025     YZ      -0.5186     ZZ     -46.4376
    Octopole Moments (Debye-Ang^2)
       XXX      63.1206    XXY      12.9424    XYY       8.6985
       YYY      33.1057    XXZ      -7.9199    XYZ      -4.5749
       YYZ      -2.5520    XZZ      21.8640    YZZ      14.7478
       ZZZ     -13.0977
    Hexadecapole Moments (Debye-Ang^3)
      XXXX    -906.3779   XXXY     -99.0378   XXYY    -193.6225
      XYYY     -96.3911   YYYY    -385.1603   XXXZ      37.6873
      XXYZ       4.1795   XYYZ      16.6144   YYYZ     -14.8094
      XXZZ    -177.4707   XYZZ     -43.5776   YYZZ     -82.8597
      XZZZ      36.7242   YZZZ      -8.0932   ZZZZ    -103.2156
 -----------------------------------------------------------------
 Calculating analytic gradient of the SCF energy
 Gradient of SCF Energy
            1           2           3           4           5           6
    1  -0.0000114   0.0037980   0.0001281  -0.0039550  -0.0000266  -0.0000570
    2   0.0000534   0.0035765  -0.0000152  -0.0035923  -0.0000218  -0.0000128
    3   0.0000188   0.0001356   0.0000455  -0.0002180  -0.0000402  -0.0000069
            7           8           9          10          11          12
    1   0.0000142   0.0000834   0.0000005   0.0000037  -0.0000024   0.0000105
    2   0.0000220   0.0000099   0.0000036   0.0000164   0.0000025  -0.0000141
    3  -0.0000167   0.0000296  -0.0000182  -0.0000064  -0.0000066   0.0000136
           13
    1   0.0000139
    2  -0.0000282
    3   0.0000700
 Max gradient component =       3.955E-03
 RMS gradient           =       1.197E-03
 Gradient time:  CPU 11.27 s  wall 0.99 s
 Geometry Optimization Parameters
   NAtoms,    NIC,     NZ,  NCons,   NDum,   NFix, NCnnct, MaxDiis
       13      90       0       1       0       0       0       0

 Cartesian Hessian Update
 Hessian Updated using BFGS Update


** CONSTRAINED OPTIMIZATION IN DELOCALIZED INTERNAL COORDINATES **
   Searching for a Minimum

   Optimization Cycle:  16

                       Coordinates (Angstroms)
     ATOM                X               Y               Z
      1  S         0.2573249536   -1.3470062795   -0.2182088829
      2  S        -2.5869999109   -0.8116314888    0.3062153266
      3  C         0.6724276314    0.5306113269   -0.3103041465
      4  C        -0.3311069507    1.3113683777    0.4237705316
      5  C         2.1135466895    0.7454541803    0.1537533187
      6  H         0.5850110939    0.6945786434   -1.3885024586
      7  H        -0.2288697651    1.4535464149    1.4953313979
      8  H        -1.2447483261    1.6365457002   -0.0546537248
      9  H         2.3995167290    1.7894951115   -0.0135060115
     10  H         2.2144798501    0.5395215771    1.2243544208
     11  H         2.8101901223    0.1019729328   -0.3890643276
     12  H         0.4257927025   -1.4649505536    1.1137053461
     13  H        -2.8468618193   -2.0545079429   -0.1538917897
   Point Group: c1    Number of degrees of freedom:    33


   Energy is   -915.421250467

              Constraints and their Current Values
                                        Value     Constraint
   Distance(Angs):        2   4             3.100000     3.100000
 Hessian Updated using BFGS Update

 32 Hessian modes will be used to form the next step
  Hessian Eigenvalues:
     0.001473    0.013699    0.014846    0.045008    0.045499    0.048373
     0.051708    0.054631    0.069984    0.080908    0.082554    0.084236
     0.087864    0.094915    0.105781    0.154112    0.158514    0.159972
     0.160081    0.164284    0.170523    0.191048    0.256344    0.258399
     0.295527    0.335059    0.342068    0.342675    0.343650    0.345293
     0.353053    0.449646

 Minimum Search - Taking Simple RFO Step
 Searching for Lamda that Minimizes Along All modes
 Value Taken    Lamda =   0.00000000
 Step Taken.  Stepsize is  0.005779

                             Maximum     Tolerance    Cnvgd?
         Gradient           0.000067      0.000300     YES
         Displacement       0.002526      0.001200      NO
         Energy change     -0.000001      0.000001     YES


                       Distance Matrix (Angstroms)
             S (  1)   S (  2)   C (  3)   C (  4)   C (  5)   H (  6)
   S (  2)  2.941399
   C (  3)  1.925160  3.578488
   C (  4)  2.797382  3.100000  1.468172
   C (  5)  2.821756  4.954079  1.529160  2.523787
   H (  6)  2.375928  3.899024  1.094093  2.122271  2.171995
   H (  7)  3.318991  3.479340  2.219114  1.085776  2.790724  3.091105
   H (  8)  3.344332  2.815215  2.228006  1.081374  3.480750  2.452442
   H (  9)  3.803752  5.633243  2.157710  2.806443  1.095343  2.526240
   H ( 10)  3.077407  5.071765  2.175588  2.777894  1.094889  3.083218
   H ( 11)  2.940383  5.517948  2.181734  3.462815  1.092717  2.510275
   H ( 12)  1.347697  3.186814  2.463919  2.959198  2.942093  3.309072
   H ( 13)  3.184442  1.350544  4.369520  4.241679  5.704392  4.567219
             H (  7)   H (  8)   H (  9)   H ( 10)   H ( 11)   H ( 12)
   H (  8)  1.862244
   H (  9)  3.049240  3.647705
   H ( 10)  2.622752  3.847802  1.768890
   H ( 11)  3.822772  4.348479  1.776915  1.774666
   H ( 12)  3.015269  3.711475  3.969585  2.688783  3.224735
   H ( 13)  4.677635  4.024984  6.505425  5.851985  6.058709  3.558742

 
 Final energy is   -915.421250466555     


 ******************************
 **  OPTIMIZATION CONVERGED  **
 ******************************

                       Coordinates (Angstroms)
     ATOM                X               Y               Z
      1  S         0.2573249536   -1.3470062795   -0.2182088829
      2  S        -2.5869999109   -0.8116314888    0.3062153266
      3  C         0.6724276314    0.5306113269   -0.3103041465
      4  C        -0.3311069507    1.3113683777    0.4237705316
      5  C         2.1135466895    0.7454541803    0.1537533187
      6  H         0.5850110939    0.6945786434   -1.3885024586
      7  H        -0.2288697651    1.4535464149    1.4953313979
      8  H        -1.2447483261    1.6365457002   -0.0546537248
      9  H         2.3995167290    1.7894951115   -0.0135060115
     10  H         2.2144798501    0.5395215771    1.2243544208
     11  H         2.8101901223    0.1019729328   -0.3890643276
     12  H         0.4257927025   -1.4649505536    1.1137053461
     13  H        -2.8468618193   -2.0545079429   -0.1538917897

Z-matrix Print:
$molecule
0 3
S 
H  1 1.347697
C  1 1.925160 2 96.066249
H  3 1.094093 1 100.141520 2 178.288731 0
C  3 1.468172 1 110.325655 2 -64.675686 0
H  5 1.081374 3 121.078308 1 -86.642441 0
H  5 1.085776 3 119.915398 1 84.887468 0
C  3 1.529160 1 109.008951 2 62.105831 0
H  8 1.092717 3 111.551556 1 52.710491 0
H  8 1.094889 3 110.927896 1 -68.288720 0
H  8 1.095343 3 109.488834 1 172.948622 0
S  6 2.815215 5 94.853939 3 82.177624 0
H  12 1.350544 6 148.034248 5 -86.171025 0
$end

PES scan, value:    3.1000 energy: -915.4212504666
------- Summary of potential scan: ------ 
    3.1000      -915.4212504666
----------------------------------------- 
Archival summary:
1\1\hpc0250\JobtypUnspecified\ProcedureUnspecified\6-31G**\238(3)\knomura\ThuMar1401:43:422019ThuMar1401:43:422019\0\\#,JobtypUnspecified,ProcedureUnspecified,6-31G**,\\0,3\S\H,1,1.3477\C,1,1.92516,2,96.0662\H,3,1.09409,1,100.142,2,178.289,0\C,3,1.46817,1,110.326,2,-64.6757,0\H,5,1.08137,3,121.078,1,-86.6424,0\H,5,1.08578,3,119.915,1,84.8875,0\C,3,1.52916,1,109.009,2,62.1058,0\H,8,1.09272,3,111.552,1,52.7105,0\H,8,1.09489,3,110.928,1,-68.2887,0\H,8,1.09534,3,109.489,1,172.949,0\S,6,2.81522,5,94.8539,3,82.1776,0\H,12,1.35054,6,148.034,5,-86.171,0\\\@

 Total job time:  70.09s(wall), 807.09s(cpu) 
 Thu Mar 14 01:43:42 2019

        *************************************************************
        *                                                           *
        *  Thank you very much for using Q-Chem.  Have a nice day.  *
        *                                                           *
        *************************************************************


