
Running Job 1 of 1 selenium/01/Se-H.xyz.data/inputs/bond_singlet_1.9.in
qchem selenium/01/Se-H.xyz.data/inputs/bond_singlet_1.9.in_22761.0 /staging/scratch/2868765/qchem22761/ 1
/usr/usc/qchem/5.1.1/exe/qcprog.exe_s selenium/01/Se-H.xyz.data/inputs/bond_singlet_1.9.in_22761.0 /staging/scratch/2868765/qchem22761/
Check license passed

                  Welcome to Q-Chem
     A Quantum Leap Into The Future Of Chemistry


 Q-Chem 5.1, Q-Chem, Inc., Pleasanton, CA (2018)

 Yihan Shao,  Zhengting Gan,  E. Epifanovsky,  A. T. B. Gilbert,  M. Wormit,  
 J. Kussmann,  A. W. Lange,  A. Behn,  Jia Deng,  Xintian Feng,  D. Ghosh,  
 M. Goldey,  P. R. Horn,  L. D. Jacobson,  I. Kaliman,  T. Kus,  A. Landau,  
 Jie Liu,  E. I. Proynov,  R. M. Richard,  R. P. Steele,  E. J. Sundstrom,  
 H. L. Woodcock III,  P. M. Zimmerman,  D. Zuev,  B. Albrecht,  E. Alguire,  
 S. A. Baeppler,  D. Barton,  Z. Benda,  Y. A. Bernard,  E. J. Berquist,  
 K. B. Bravaya,  H. Burton,  D. Casanova,  Chun-Min Chang,  Yunqing Chen,  
 A. Chien,  K. D. Closser,  M. P. Coons,  S. Coriani,  S. Dasgupta,  
 A. L. Dempwolff,  M. Diedenhofen,  Hainam Do,  R. G. Edgar,  Po-Tung Fang,  
 S. Faraji,  S. Fatehi,  Qingguo Feng,  K. D. Fenk,  J. Fosso-Tande,  
 Qinghui Ge,  A. Ghysels,  G. Gidofalvi,  J. Gomes,  J. Gonthier,  A. Gunina,  
 D. Hait,  M. W. D. Hanson-Heine,  P. H. P. Harbach,  A. W. Hauser,  
 J. E. Herr,  E. G. Hohenstein,  Z. C. Holden,  Kerwin Hui,  B. C. Huynh,  
 T.-C. Jagau,  Hyunjun Ji,  B. Kaduk,  K. Khistyaev,  Jaehoon Kim,  
 P. Klunzinger,  K. Koh,  D. Kosenkov,  L. Koulias,  T. Kowalczyk,  
 C. M. Krauter,  A. Kunitsa,  Ka Un Lao,  A. Laurent,  K. V. Lawler,  
 Joonho Lee,  D. Lefrancois,  S. Lehtola,  D. S. Levine,  Yi-Pei Li,  
 You-Sheng Lin,  Fenglai Liu,  E. Livshits,  A. Luenser,  P. Manohar,  
 E. Mansoor,  S. F. Manzer,  Shan-Ping Mao,  Yuezhi Mao,  N. Mardirossian,  
 A. V. Marenich,  T. Markovich,  L. A. Martinez-Martinez,  S. A. Maurer,  
 N. J. Mayhall,  S. C. McKenzie,  J.-M. Mewes,  A. F. Morrison,  
 J. W. Mullinax,  K. Nanda,  T. S. Nguyen-Beck,  R. Olivares-Amaya,  
 J. A. Parkhill,  T. M. Perrine,  F. Plasser,  P. Pokhilko,  S. Prager,  
 A. Prociuk,  E. Ramos,  D. R. Rehn,  F. Rob,  M. Schneider,  N. Sergueev,  
 S. M. Sharada,  S. Sharma,  D. W. Small,  T. Stauch,  T. Stein,  
 Yu-Chuan Su,  A. J. W. Thom,  A. Tkatchenko,  T. Tsuchimochi,  N. M. Tubman,  
 L. Vogt,  M. L. Vidal,  O. Vydrov,  M. A. Watson,  J. Wenzel,  
 M. de Wergifosse,  T. A. Wesolowski,  A. White,  J. Witte,  A. Yamada,  
 Jun Yang,  K. Yao,  S. Yeganeh,  S. R. Yost,  Zhi-Qiang You,  A. Zech,  
 Igor Ying Zhang,  Xing Zhang,  Yan Zhao,  Ying Zhu,  B. R. Brooks,  
 G. K. L. Chan,  C. J. Cramer,  M. S. Gordon,  W. J. Hehre,  A. Klamt,  
 M. W. Schmidt,  C. D. Sherrill,  D. G. Truhlar,  A. Aspuru-Guzik,  R. Baer,  
 A. T. Bell,  N. A. Besley,  Jeng-Da Chai,  A. E. DePrince, III,  
 R. A. DiStasio Jr.,  A. Dreuw,  B. D. Dunietz,  T. R. Furlani,  
 Chao-Ping Hsu,  Yousung Jung,  Jing Kong,  D. S. Lambrecht,  WanZhen Liang,  
 C. Ochsenfeld,  V. A. Rassolov,  L. V. Slipchenko,  J. E. Subotnik,  
 T. Van Voorhis,  J. M. Herbert,  A. I. Krylov,  P. M. W. Gill,  M. Head-Gordon

 Contributors to earlier versions of Q-Chem not listed above: 
 R. D. Adamson,  B. Austin,  J. Baker,  G. J. O. Beran,  K. Brandhorst,  
 S. T. Brown,  E. F. C. Byrd,  A. K. Chakraborty,  C.-L. Cheng,  
 Siu Hung Chien,  D. M. Chipman,  D. L. Crittenden,  H. Dachsel,  
 R. J. Doerksen,  A. D. Dutoi,  L. Fusti-Molnar,  W. A. Goddard III,  
 A. Golubeva-Zadorozhnaya,  S. R. Gwaltney,  G. Hawkins,  A. Heyden,  
 S. Hirata,  G. Kedziora,  F. J. Keil,  C. Kelley,  Jihan Kim,  R. A. King,  
 R. Z. Khaliullin,  P. P. Korambath,  W. Kurlancheek,  A. M. Lee,  M. S. Lee,  
 S. V. Levchenko,  Ching Yeh Lin,  D. Liotard,  R. C. Lochan,  I. Lotan,  
 P. E. Maslen,  N. Nair,  D. P. O'Neill,  D. Neuhauser,  E. Neuscamman,  
 C. M. Oana,  R. Olson,  B. Peters,  R. Peverati,  P. A. Pieniazek,  
 Y. M. Rhee,  J. Ritchie,  M. A. Rohrdanz,  E. Rosta,  N. J. Russ,  
 H. F. Schaefer III,  N. E. Schultz,  N. Shenvi,  A. C. Simmonett,  A. Sodt,  
 D. Stuck,  K. S. Thanthiriwatte,  V. Vanovschi,  Tao Wang,  A. Warshel,  
 C. F. Williams,  Q. Wu,  X. Xu,  W. Zhang

 Please cite Q-Chem as follows:
 Y. Shao et al., Mol. Phys. 113, 184-215 (2015)
 DOI: 10.1080/00268976.2014.952696

 Q-Chem 5.1.1 for Intel X86 EM64T Linux

 Parts of Q-Chem use Armadillo 8.300.2 (Tropical Shenanigans).
 http://arma.sourceforge.net/

 Q-Chem begins on Wed Mar 13 16:24:30 2019  

Host: 
0

     Scratch files written to /staging/scratch/2868765/qchem22761//
 Aug318 |scratch|qcdevops|jenkins|workspace|build_RNUM 6013   
Processing $rem in /usr/usc/qchem/5.1.1/config/preferences.
 MEM_TOTAL  2000 
Input Ideriv = 2
Curr. Ideriv = -1
Max.  Ideriv = 2

Checking the input file for inconsistencies... 	...done.

--------------------------------------------------------------
User input:
--------------------------------------------------------------

$comment
potential surface scanner
$end

$rem
JOBTYPE  PES_SCAN
UNRESTRICTED TRUE
SYM_IGNORE  TRUE
GEOM_OPT_MAX_CYCLES 400
SCF_MAX_CYCLES 400
METHOD   B3LYP
BASIS   6-31G**
PDB_PRINT 2
SCF_CONVERGENCE 6
THRESH 14
SCF_PRINT 1
$end
$molecule
0 1
C -1.734129 1.272890 0.141152
C -1.086993 0.000000 -0.400936
Se 0.896202 0.000000 -0.141654
H 0.822063 0.000000 1.656818
C -1.734129 -1.272890 0.141152
H -1.276441 2.170622 -0.280431
H -2.804327 1.282616 -0.102016
H -1.639984 1.324051 1.231030
H -1.143305 0.000000 -1.497202
H -2.804327 -1.282616 -0.102016
H -1.276441 -2.170622 -0.280431
H -1.639984 -1.324051 1.231030
$end
$scan
stre 3 4 1.900000 1.901000 0.100000
$end
--------------------------------------------------------------
 ----------------------------------------------------------------
             Standard Nuclear Orientation (Angstroms)
    I     Atom           X                Y                Z
 ----------------------------------------------------------------
    1      C      -1.7341290000     1.2728900000     0.1411520000
    2      C      -1.0869930000     0.0000000000    -0.4009360000
    3      Se      0.8962020000     0.0000000000    -0.1416540000
    4      H       0.8220630000     0.0000000000     1.6568180000
    5      C      -1.7341290000    -1.2728900000     0.1411520000
    6      H      -1.2764410000     2.1706220000    -0.2804310000
    7      H      -2.8043270000     1.2826160000    -0.1020160000
    8      H      -1.6399840000     1.3240510000     1.2310300000
    9      H      -1.1433050000     0.0000000000    -1.4972020000
   10      H      -2.8043270000    -1.2826160000    -0.1020160000
   11      H      -1.2764410000    -2.1706220000    -0.2804310000
   12      H      -1.6399840000    -1.3240510000     1.2310300000
 ----------------------------------------------------------------
 Nuclear Repulsion Energy =   256.4292919681 hartrees
 There are       30 alpha and       30 beta electrons
 Requested basis set is 6-31G(d,p)
 There are 44 shells and 120 basis functions

 Total QAlloc Memory Limit   2000 MB
 Mega-Array Size       188 MB
 MEM_STATIC part       192 MB
A total of 1 constraints
  
            1
    1   1.0100000
    2   3.0100000
    3   4.0100000
    4   1.9000000
    5   1.9010000
    6   0.1000000
    7   0.0000000
    8   0.0000000
    9   0.0000000
   10   0.0000000

                       Distance Matrix (Angstroms)
             C (  1)   C (  2)   Se(  3)   H (  4)   C (  5)   H (  6)
   C (  2)  1.527381
   Se(  3)  2.935791  2.000072
   H (  4)  3.232895  2.806928  1.799999
   C (  5)  2.545780  1.527381  2.935791  3.232895
   H (  6)  1.092306  2.182203  3.074286  3.587235  3.499284
   H (  7)  1.097519  2.164184  3.916707  4.229575  2.781199  1.776182
   H (  8)  1.095132  2.173068  3.173265  2.827734  2.817942  1.770130
   H (  9)  2.157203  1.097711  2.448898  3.716250  2.157203  2.491958
   H ( 10)  2.781199  2.164184  3.916707  4.229575  1.097519  3.780360
   H ( 11)  3.499284  2.182203  3.074286  3.587235  1.092306  4.341244
   H ( 12)  2.817942  2.173068  3.173265  2.827734  1.095132  3.824842
             H (  7)   H (  8)   H (  9)   H ( 10)   H ( 11)
   H (  8)  1.770430
   H (  9)  2.520048  3.072955
   H ( 10)  2.565232  3.150781  2.520048
   H ( 11)  3.780360  3.824842  2.491958  1.776182
   H ( 12)  3.150781  2.648102  3.072955  1.770430  1.770130
 
 A cutoff of  1.0D-14 yielded    958 shell pairs
 There are      7209 function pairs
 
 -------------------------------------------------------
 OpenMP Integral Computing Module                       
 Release: version 1.0, May 2013, Q-Chem Inc. Pittsburgh 
 -------------------------------------------------------
 Integral Job Info:
 Integral job number is                      11
 Integral operator is                         1
 short-range coefficients                     0
 long-range coefficients              100000000
 Omega coefficients                           0
 if combine SR and LR in K                    0
 Integral screening is                        0
 Integral computing path is                   2
 max size of driver memory is            800000
 size of driver memory is                593474
 size of scratch memory is             15267112
 max col of scratch BK array               1296
 max len of scratch array in speh3          155
 max len of scratch index in speh4           18
 max int batch size is                      520
 min int batch size is                       52
 fixed nKL is                                52
 max L of basis functions is                  2
 order of int derivative is                   0
 number of shells is                         44
 number of basis is                         120
 number of cartesian basis is               120
 number of contracted shell pairs           958
 number of primitive shell pairs           3633
 maxK2 (contraction) of shell pair           36
 max number of K2 of shell pair               1
 max number of CS2 of shell pair             86
 max number of PS2 of shell pair            276
 mem total for path MDJ                  519708
 -------------------------------------------------------
 Smallest overlap matrix eigenvalue = 6.74E-04

 Scale SEOQF with 1.000000e-01/1.000000e-01/1.000000e-01

 Standard Electronic Orientation quadrupole field applied
 Nucleus-field energy     =     0.0000000049 hartrees
 Guess from superposition of atomic densities
 Warning:  Energy on first SCF cycle will be non-variational
 SAD guess density has 59.968191 electrons

 -----------------------------------------------------------------------
  General SCF calculation program by
  Eric Jon Sundstrom, Paul Horn, Yuezhi Mao, Dmitri Zuev, Alec White,
  David Stuck, Shaama M.S., Shane Yost, Joonho Lee, David Small,
  Daniel Levine, Susi Lehtola, Hugh Burton, Evgeny Epifanovsky
 -----------------------------------------------------------------------
 Exchange:     0.2000 Hartree-Fock + 0.0800 Slater + 0.7200 B88
 Correlation:  0.1900 VWN1RPA + 0.8100 LYP
 Using SG-1 standard quadrature grid
 using 12 threads for integral computing
 -------------------------------------------------------
 OpenMP Integral computing Module                
 Release: version 1.0, May 2013, Q-Chem Inc. Pittsburgh 
 -------------------------------------------------------
 -------------------------------------------------------
 OpenMP BLAS3 based DFT computing Module                
 Release: version 1.0, May 2013, Q-Chem Inc. Pittsburgh 
 -------------------------------------------------------
 A unrestricted SCF calculation will be
 performed using DIIS
 SCF converges when DIIS error is below 1.0e-06
 Alpha HF Exchange    Energy = -10.35416611701073
 Beta HF Exchange     Energy = -10.35416611701073
 DFT Correlation      Energy =  -3.08752507255815
 DFT Exchange         Energy = -82.00439780692804
 One-Electron (alpha) Energy = -2003.67216388989141
 One-Electron (beta)  Energy = -2003.67216388989141
 Total Coulomb        Energy = 1333.44701048846264
 ---------------------------------------
  Cycle       Energy         DIIS error
 ---------------------------------------
    1   -2523.2682804318      1.38e-01  
 Alpha HF Exchange    Energy = -10.41545760044942
 Beta HF Exchange     Energy = -10.41545760044943
 DFT Correlation      Energy =  -3.13036910893922
 DFT Exchange         Energy = -82.89209029249463
 One-Electron (alpha) Energy = -2011.07882636320937
 One-Electron (beta)  Energy = -2011.07882636320937
 Total Coulomb        Energy = 1352.29374011261098
    2   -2520.2879952432      8.94e-03  
 Alpha HF Exchange    Energy = -10.31228344482936
 Beta HF Exchange     Energy = -10.31228344482937
 DFT Correlation      Energy =  -3.08977843026552
 DFT Exchange         Energy = -82.05188718382729
 One-Electron (alpha) Energy = -1999.94811973600213
 One-Electron (beta)  Energy = -1999.94811973600349
 Total Coulomb        Energy = 1328.98199951253855
    3   -2520.2511804902      4.87e-03  
 Alpha HF Exchange    Energy = -10.39666341793368
 Beta HF Exchange     Energy = -10.39666341793368
 DFT Correlation      Energy =  -3.12343449146885
 DFT Exchange         Energy = -82.73406151699994
 One-Electron (alpha) Energy = -2009.36975313559924
 One-Electron (beta)  Energy = -2009.36975313559947
 Total Coulomb        Energy = 1348.59998022019181
    4   -2520.3610569224      2.87e-03  
 Alpha HF Exchange    Energy = -10.36662546920753
 Beta HF Exchange     Energy = -10.36662546920753
 DFT Correlation      Energy =  -3.11136641668968
 DFT Exchange         Energy = -82.49200708096689
 One-Electron (alpha) Energy = -2006.09562199848983
 One-Electron (beta)  Energy = -2006.09562199849006
 Total Coulomb        Energy = 1341.68017978777152
    5   -2520.4183966723      5.37e-04  
 Alpha HF Exchange    Energy = -10.36597305663956
 Beta HF Exchange     Energy = -10.36597305663956
 DFT Correlation      Energy =  -3.11150255693126
 DFT Exchange         Energy = -82.48773909795209
 One-Electron (alpha) Energy = -2006.03466859796686
 One-Electron (beta)  Energy = -2006.03466859796731
 Total Coulomb        Energy = 1341.55063629272308
    6   -2520.4205966984      9.79e-05  
 Alpha HF Exchange    Energy = -10.36583469081201
 Beta HF Exchange     Energy = -10.36583469081200
 DFT Correlation      Energy =  -3.11129040176545
 DFT Exchange         Energy = -82.48614136417594
 One-Electron (alpha) Energy = -2006.04016976874186
 One-Electron (beta)  Energy = -2006.04016976874232
 Total Coulomb        Energy = 1341.55949590326691
    7   -2520.4206528088      3.39e-05  
 Alpha HF Exchange    Energy = -10.36579090200687
 Beta HF Exchange     Energy = -10.36579090200687
 DFT Correlation      Energy =  -3.11131221807650
 DFT Exchange         Energy = -82.48593270506662
 One-Electron (alpha) Energy = -2006.01900605428909
 One-Electron (beta)  Energy = -2006.01900605428909
 Total Coulomb        Energy = 1341.51688635089204
    8   -2520.4206605119      9.02e-06  
 Alpha HF Exchange    Energy = -10.36583421377968
 Beta HF Exchange     Energy = -10.36583421377967
 DFT Correlation      Energy =  -3.11132462517711
 DFT Exchange         Energy = -82.48625677424465
 One-Electron (alpha) Energy = -2006.02962015912840
 One-Electron (beta)  Energy = -2006.02962015912840
 Total Coulomb        Energy = 1341.53853688548838
    9   -2520.4206612868      1.52e-06  
 Alpha HF Exchange    Energy = -10.36583221682887
 Beta HF Exchange     Energy = -10.36583221682886
 DFT Correlation      Energy =  -3.11132518492850
 DFT Exchange         Energy = -82.48624244307030
 One-Electron (alpha) Energy = -2006.02837770694987
 One-Electron (beta)  Energy = -2006.02837770695010
 Total Coulomb        Energy = 1341.53603419673254
   10   -2520.4206613058      4.55e-07  Convergence criterion met
 ---------------------------------------
 SCF time:   CPU 32.65s  wall 3.00s 
<S^2> =          0.000000000
 Alpha HF Exchange    Energy = -10.36583221682887
 Beta HF Exchange     Energy = -10.36583221682886
 DFT Correlation      Energy =  -3.11132518492850
 DFT Exchange         Energy = -82.48624244307030
 One-Electron (alpha) Energy = -2006.02837770694987
 One-Electron (beta)  Energy = -2006.02837770695010
 Total Coulomb        Energy = 1341.53603419673254
 Nuclear repulsion Energy = 256.42929197298372
 SCF   energy in the final basis set =    -2520.4206613058
 Total energy in the final basis set =    -2520.4206613058
 
 --------------------------------------------------------------
 
                    Orbital Energies (a.u.)
 --------------------------------------------------------------
 
 Alpha MOs
 -- Occupied --
******* -58.092 -52.150 -52.149 -52.146 -10.230 -10.186 -10.186
 -7.824  -5.770  -5.766  -5.756  -2.103  -2.103  -2.095  -2.091
 -2.089  -0.805  -0.693  -0.672  -0.570  -0.462  -0.437  -0.415
 -0.392  -0.364  -0.354  -0.333  -0.301  -0.223
 -- Virtual --
 -0.041   0.023   0.090   0.130   0.147   0.152   0.168   0.180
  0.186   0.203   0.231   0.241   0.303   0.326   0.328   0.460
  0.465   0.502   0.505   0.566   0.585   0.642   0.678   0.682
  0.698   0.749   0.758   0.789   0.826   0.866   0.867   0.885
  0.906   0.917   0.933   0.955   0.956   1.082   1.314   1.384
  1.386   1.473   1.546   1.662   1.734   1.781   1.834   1.858
  1.890   2.039   2.040   2.040   2.045   2.066   2.071   2.098
  2.106   2.114   2.265   2.310   2.347   2.364   2.379   2.515
  2.562   2.626   2.662   2.704   2.721   2.863   2.865   2.897
  2.902   3.167   3.217   3.310   3.415   3.448   3.458   3.497
  4.231   4.259   4.339   4.356   4.379   4.488   4.506   4.630
  5.479  89.805
 
 Beta MOs
 -- Occupied --
******* -58.092 -52.150 -52.149 -52.146 -10.230 -10.186 -10.186
 -7.824  -5.770  -5.766  -5.756  -2.103  -2.103  -2.095  -2.091
 -2.089  -0.805  -0.693  -0.672  -0.570  -0.462  -0.437  -0.415
 -0.392  -0.364  -0.354  -0.333  -0.301  -0.223
 -- Virtual --
 -0.041   0.023   0.090   0.130   0.147   0.152   0.168   0.180
  0.186   0.203   0.231   0.241   0.303   0.326   0.328   0.460
  0.465   0.502   0.505   0.566   0.585   0.642   0.678   0.682
  0.698   0.749   0.758   0.789   0.826   0.866   0.867   0.885
  0.906   0.917   0.933   0.955   0.956   1.082   1.314   1.384
  1.386   1.473   1.546   1.662   1.734   1.781   1.834   1.858
  1.890   2.039   2.040   2.040   2.045   2.066   2.071   2.098
  2.106   2.114   2.265   2.310   2.347   2.364   2.379   2.515
  2.562   2.626   2.662   2.704   2.721   2.863   2.865   2.897
  2.902   3.167   3.217   3.310   3.415   3.448   3.458   3.497
  4.231   4.259   4.339   4.356   4.379   4.488   4.506   4.630
  5.479  89.805
 --------------------------------------------------------------
 
          Ground-State Mulliken Net Atomic Charges

     Atom                 Charge (a.u.)    Spin (a.u.)
  --------------------------------------------------------
      1 C                    -0.299760       0.000000
      2 C                    -0.148840      -0.000000
      3 Se                   -0.076549       0.000000
      4 H                     0.019741       0.000000
      5 C                    -0.299760       0.000000
      6 H                     0.123833      -0.000000
      7 H                     0.103985      -0.000000
      8 H                     0.112107      -0.000000
      9 H                     0.125317       0.000000
     10 H                     0.103985      -0.000000
     11 H                     0.123833      -0.000000
     12 H                     0.112107      -0.000000
  --------------------------------------------------------
  Sum of atomic charges =     0.000000
  Sum of spin   charges =     0.000000

 -----------------------------------------------------------------
                    Cartesian Multipole Moments
 -----------------------------------------------------------------
    Charge (ESU x 10^10)
                 0.0000
    Dipole Moment (Debye)
         X      -1.7678      Y       0.0000      Z       0.0398
       Tot       1.7683
    Quadrupole Moments (Debye-Ang)
        XX     -39.0171     XY       0.0000     YY     -41.2271
        XZ       0.9716     YZ      -0.0000     ZZ     -37.3219
    Octopole Moments (Debye-Ang^2)
       XXX      44.1110    XXY       0.0000    XYY      12.4237
       YYY       0.0000    XXZ       1.1674    XYZ      -0.0000
       YYZ       0.7233    XZZ      15.8682    YZZ      -0.0000
       ZZZ       4.2097
    Hexadecapole Moments (Debye-Ang^3)
      XXXX    -462.2951   XXXY      -0.0000   XXYY    -120.6978
      XYYY      -0.0000   YYYY    -221.1379   XXXZ      10.8667
      XXYZ       0.0000   XYYZ       2.9572   YYYZ      -0.0000
      XXZZ     -94.2753   XYZZ       0.0000   YYZZ     -53.3468
      XZZZ       6.8862   YZZZ      -0.0000   ZZZZ     -84.7641
 -----------------------------------------------------------------
 Calculating analytic gradient of the SCF energy
 Gradient of SCF Energy
            1           2           3           4           5           6
    1   0.0000244  -0.0000257   0.0025362  -0.0025492   0.0000244  -0.0000152
    2   0.0000023  -0.0000000  -0.0000000  -0.0000000  -0.0000023   0.0000011
    3   0.0000254  -0.0000083  -0.0612039   0.0612402   0.0000254  -0.0000138
            7           8           9          10          11          12
    1  -0.0000094   0.0000125   0.0000141  -0.0000094  -0.0000152   0.0000125
    2  -0.0000006  -0.0000077   0.0000000   0.0000006  -0.0000011   0.0000077
    3  -0.0000012  -0.0000127  -0.0000236  -0.0000012  -0.0000138  -0.0000127
 Max gradient component =       6.124E-02
 RMS gradient           =       1.444E-02
 Gradient time:  CPU 11.84 s  wall 1.00 s
 Geometry Optimization Parameters
   NAtoms,    NIC,     NZ,  NCons,   NDum,   NFix, NCnnct, MaxDiis
       12      75       0       1       0       0       0       0


** CONSTRAINED OPTIMIZATION IN DELOCALIZED INTERNAL COORDINATES **
   Searching for a Minimum

   Optimization Cycle:   1

                       Coordinates (Angstroms)
     ATOM                X               Y               Z
      1  C        -1.7341290000    1.2728900000    0.1411520000
      2  C        -1.0869930000    0.0000000000   -0.4009360000
      3  Se        0.8962020000    0.0000000000   -0.1416540000
      4  H         0.8220630000    0.0000000000    1.6568180000
      5  C        -1.7341290000   -1.2728900000    0.1411520000
      6  H        -1.2764410000    2.1706220000   -0.2804310000
      7  H        -2.8043270000    1.2826160000   -0.1020160000
      8  H        -1.6399840000    1.3240510000    1.2310300000
      9  H        -1.1433050000    0.0000000000   -1.4972020000
     10  H        -2.8043270000   -1.2826160000   -0.1020160000
     11  H        -1.2764410000   -2.1706220000   -0.2804310000
     12  H        -1.6399840000   -1.3240510000    1.2310300000
   Point Group: c1    Number of degrees of freedom:    30


   Energy is  -2520.420661306

              Constraints and their Current Values
                                        Value     Constraint
   Distance(Angs):        3   4             1.799999     1.900000

 Attempting to Generate Delocalized Internal Coordinates

   Using Lagrange Multiplier Algorithm


 22 Hessian modes will be used to form the next step
  Hessian Eigenvalues:
    -0.958807    0.045000    0.071089    0.076531    0.082421    0.083813
     0.150700    0.160000    0.160000    0.160000    0.160000    0.160000
     0.160000    0.160000    0.208959    0.296666    0.339365    0.339579
     0.339579    0.342262    0.345475    1.042963

 Minimum Search - Taking P-RFO Step
 Searching for Lamda that Maximizes Along the Constraint modes Only
 Value Taken    Lamda =   0.03226463
 Searching for Lamda that Minimizes Along All other modes
 Value Taken    Lamda =  -0.00713327
 Step Taken.  Stepsize is  0.184368

                             Maximum     Tolerance    Cnvgd?
         Gradient            0.188974       0.000300      NO
         Displacement        0.184365       0.001200      NO
         Energy change     *********       0.000001      NO


 New Cartesian Coordinates Obtained by Inverse Iteration

 Displacement from previous Coordinates is:  0.155342
 ----------------------------------------------------------------
             Standard Nuclear Orientation (Angstroms)
    I     Atom           X                Y                Z
 ----------------------------------------------------------------
    1      C      -1.7338946565     1.2729104195     0.1371799338
    2      C      -1.0916859921     0.0000000000    -0.4107288249
    3      Se      0.8938668951     0.0000000000    -0.1700000201
    4      H       0.8342238778     0.0000000000     1.7266234539
    5      C      -1.7338946565    -1.2729104195     0.1371799338
    6      H      -1.2799796332     2.1706077479    -0.2885385532
    7      H      -2.8062290862     1.2826230501    -0.0963218296
    8      H      -1.6299713940     1.3241965198     1.2261792713
    9      H      -1.1580502409     0.0000000000    -1.5063962535
   10      H      -2.8062290862    -1.2826230501    -0.0963218296
   11      H      -1.2799796332    -2.1706077479    -0.2885385532
   12      H      -1.6299713940    -1.3241965198     1.2261792713
 ----------------------------------------------------------------
 Nuclear Repulsion Energy =   255.8434042578 hartrees
 There are       30 alpha and       30 beta electrons

                       Distance Matrix (Angstroms)
             C (  1)   C (  2)   Se(  3)   H (  4)   C (  5)   H (  6)
   C (  2)  1.527395
   Se(  3)  2.935948  2.000093
   H (  4)  3.277478  2.877048  1.897561
   C (  5)  2.545821  1.527395  2.935948  3.277478
   H (  6)  1.092307  2.182183  3.074280  3.638993  3.499299
   H (  7)  1.097506  2.164170  3.916792  4.268624  2.781218  1.776204
   H (  8)  1.095148  2.173181  3.173732  2.841865  2.818099  1.770106
   H (  9)  2.157137  1.097675  2.448738  3.797575  2.157137  2.491903
   H ( 10)  2.781218  2.164170  3.916792  4.268624  1.097506  3.780369
   H ( 11)  3.499299  2.182183  3.074280  3.638993  1.092307  4.341215
   H ( 12)  2.818099  2.173181  3.173732  2.841865  1.095148  3.824986
             H (  7)   H (  8)   H (  9)   H ( 10)   H ( 11)
   H (  8)  1.770401
   H (  9)  2.519906  3.072975
   H ( 10)  2.565246  3.150889  2.519906
   H ( 11)  3.780369  3.824986  2.491903  1.776204
   H ( 12)  3.150889  2.648393  3.072975  1.770401  1.770106
 
 Applying Cartesian multipole field
    Component          Value
    ---------          -----
     (2,0,0)        1.00000E-11
     (0,2,0)        2.00000E-11
     (0,0,2)       -3.00000E-11
 Nucleus-field energy     =     0.0000000049 hartrees
 Requested basis set is 6-31G(d,p)
 There are 44 shells and 120 basis functions
 A cutoff of  1.0D-14 yielded    958 shell pairs
 There are      7209 function pairs
 Smallest overlap matrix eigenvalue = 6.74E-04
 Guess from superposition of atomic densities
 Warning:  Energy on first SCF cycle will be non-variational
 SAD guess density has 59.968191 electrons

 -----------------------------------------------------------------------
  General SCF calculation program by
  Eric Jon Sundstrom, Paul Horn, Yuezhi Mao, Dmitri Zuev, Alec White,
  David Stuck, Shaama M.S., Shane Yost, Joonho Lee, David Small,
  Daniel Levine, Susi Lehtola, Hugh Burton, Evgeny Epifanovsky
 -----------------------------------------------------------------------
 Exchange:     0.2000 Hartree-Fock + 0.0800 Slater + 0.7200 B88
 Correlation:  0.1900 VWN1RPA + 0.8100 LYP
 Using SG-1 standard quadrature grid
 using 12 threads for integral computing
 -------------------------------------------------------
 OpenMP Integral computing Module                
 Release: version 1.0, May 2013, Q-Chem Inc. Pittsburgh 
 -------------------------------------------------------
 -------------------------------------------------------
 OpenMP BLAS3 based DFT computing Module                
 Release: version 1.0, May 2013, Q-Chem Inc. Pittsburgh 
 -------------------------------------------------------
 A unrestricted SCF calculation will be
 performed using DIIS
 SCF converges when DIIS error is below 1.0e-06
 Alpha HF Exchange    Energy = -10.35172675237317
 Beta HF Exchange     Energy = -10.35172675237317
 DFT Correlation      Energy =  -3.08659282144377
 DFT Exchange         Energy = -81.99863442250918
 One-Electron (alpha) Energy = -2003.09584999105687
 One-Electron (beta)  Energy = -2003.09584999105687
 Total Coulomb        Energy = 1332.89363310587783
 ---------------------------------------
  Cycle       Energy         DIIS error
 ---------------------------------------
    1   -2523.2433433623      1.38e-01  
 Alpha HF Exchange    Energy = -10.41408612043617
 Beta HF Exchange     Energy = -10.41408612043616
 DFT Correlation      Energy =  -3.12976204569205
 DFT Exchange         Energy = -82.88427460075341
 One-Electron (alpha) Energy = -2010.62682536779971
 One-Electron (beta)  Energy = -2010.62682536779903
 Total Coulomb        Energy = 1351.98259472788322
    2   -2520.2698606324      8.97e-03  
 Alpha HF Exchange    Energy = -10.30916486531864
 Beta HF Exchange     Energy = -10.30916486531865
 DFT Correlation      Energy =  -3.08767960844822
 DFT Exchange         Energy = -82.02979541494594
 One-Electron (alpha) Energy = -1998.81450414782876
 One-Electron (beta)  Energy = -1998.81450414782944
 Total Coulomb        Energy = 1327.30558016159557
    3   -2520.2158286254      5.07e-03  
 Alpha HF Exchange    Energy = -10.39669211614176
 Beta HF Exchange     Energy = -10.39669211614175
 DFT Correlation      Energy =  -3.12336662119590
 DFT Exchange         Energy = -82.73637750099121
 One-Electron (alpha) Energy = -2009.25605220814441
 One-Electron (beta)  Energy = -2009.25605220814441
 Total Coulomb        Energy = 1348.98543464414161
    4   -2520.3363938640      3.03e-03  
 Alpha HF Exchange    Energy = -10.36420406458019
 Beta HF Exchange     Energy = -10.36420406458020
 DFT Correlation      Energy =  -3.11021202679889
 DFT Exchange         Energy = -82.47739546463512
 One-Electron (alpha) Energy = -2005.28754555742194
 One-Electron (beta)  Energy = -2005.28754555742307
 Total Coulomb        Energy = 1340.64150845068548
    5   -2520.4061940221      5.59e-04  
 Alpha HF Exchange    Energy = -10.36403570772708
 Beta HF Exchange     Energy = -10.36403570772707
 DFT Correlation      Energy =  -3.11037888530707
 DFT Exchange         Energy = -82.47618403709509
 One-Electron (alpha) Energy = -2005.43093588553188
 One-Electron (beta)  Energy = -2005.43093588553052
 Total Coulomb        Energy = 1340.92441548591705
    6   -2520.4086863603      9.66e-05  
 Alpha HF Exchange    Energy = -10.36387661330521
 Beta HF Exchange     Energy = -10.36387661330521
 DFT Correlation      Energy =  -3.11019596984968
 DFT Exchange         Energy = -82.47455636143748
 One-Electron (alpha) Energy = -2005.41009097738970
 One-Electron (beta)  Energy = -2005.41009097739038
 Total Coulomb        Energy = 1340.88053930981368
    7   -2520.4087439402      3.72e-05  
 Alpha HF Exchange    Energy = -10.36388033929410
 Beta HF Exchange     Energy = -10.36388033929409
 DFT Correlation      Energy =  -3.11023905961355
 DFT Exchange         Energy = -82.47475501648002
 One-Electron (alpha) Energy = -2005.39445104144420
 One-Electron (beta)  Energy = -2005.39445104144352
 Total Coulomb        Energy = 1340.84949965141186
    8   -2520.4087529235      1.08e-05  
 Alpha HF Exchange    Energy = -10.36392283262560
 Beta HF Exchange     Energy = -10.36392283262558
 DFT Correlation      Energy =  -3.11024891226516
 DFT Exchange         Energy = -82.47505872764754
 One-Electron (alpha) Energy = -2005.40607391976550
 One-Electron (beta)  Energy = -2005.40607391976391
 Total Coulomb        Energy = 1340.87314285841103
    9   -2520.4087540236      2.13e-06  
 Alpha HF Exchange    Energy = -10.36391881167680
 Beta HF Exchange     Energy = -10.36391881167681
 DFT Correlation      Energy =  -3.11024959718469
 DFT Exchange         Energy = -82.47502957972038
 One-Electron (alpha) Energy = -2005.40427088684010
 One-Electron (beta)  Energy = -2005.40427088684055
 Total Coulomb        Energy = 1340.86950024982389
   10   -2520.4087540615      6.05e-07  Convergence criterion met
 ---------------------------------------
 SCF time:   CPU 32.00s  wall 2.00s 
<S^2> =         -0.000000000
 Alpha HF Exchange    Energy = -10.36391881167680
 Beta HF Exchange     Energy = -10.36391881167681
 DFT Correlation      Energy =  -3.11024959718469
 DFT Exchange         Energy = -82.47502957972038
 One-Electron (alpha) Energy = -2005.40427088684010
 One-Electron (beta)  Energy = -2005.40427088684055
 Total Coulomb        Energy = 1340.86950024982389
 Nuclear repulsion Energy = 255.84340426265808
 SCF   energy in the final basis set =    -2520.4087540615
 Total energy in the final basis set =    -2520.4087540615
 
 --------------------------------------------------------------
 
                    Orbital Energies (a.u.)
 --------------------------------------------------------------
 
 Alpha MOs
 -- Occupied --
******* -58.095 -52.153 -52.151 -52.148 -10.230 -10.186 -10.186
 -7.827  -5.773  -5.768  -5.758  -2.106  -2.106  -2.097  -2.093
 -2.092  -0.806  -0.693  -0.671  -0.570  -0.462  -0.437  -0.416
 -0.392  -0.362  -0.355  -0.328  -0.301  -0.223
 -- Virtual --
 -0.060   0.021   0.089   0.130   0.147   0.152   0.168   0.180
  0.186   0.202   0.231   0.240   0.307   0.327   0.330   0.459
  0.466   0.501   0.505   0.565   0.586   0.634   0.678   0.682
  0.697   0.750   0.757   0.789   0.826   0.866   0.866   0.874
  0.906   0.913   0.932   0.954   0.955   1.082   1.314   1.384
  1.385   1.469   1.546   1.658   1.731   1.781   1.834   1.858
  1.890   2.033   2.039   2.040   2.042   2.061   2.071   2.098
  2.106   2.112   2.261   2.306   2.309   2.346   2.376   2.514
  2.561   2.625   2.661   2.704   2.721   2.863   2.865   2.896
  2.902   3.167   3.217   3.309   3.415   3.448   3.458   3.497
  4.230   4.252   4.338   4.344   4.368   4.477   4.505   4.625
  5.478  89.794
 
 Beta MOs
 -- Occupied --
******* -58.095 -52.153 -52.151 -52.148 -10.230 -10.186 -10.186
 -7.827  -5.773  -5.768  -5.758  -2.106  -2.106  -2.097  -2.093
 -2.092  -0.806  -0.693  -0.671  -0.570  -0.462  -0.437  -0.416
 -0.392  -0.362  -0.355  -0.328  -0.301  -0.223
 -- Virtual --
 -0.060   0.021   0.089   0.130   0.147   0.152   0.168   0.180
  0.186   0.202   0.231   0.240   0.307   0.327   0.330   0.459
  0.466   0.501   0.505   0.565   0.586   0.634   0.678   0.682
  0.697   0.750   0.757   0.789   0.826   0.866   0.866   0.874
  0.906   0.913   0.932   0.954   0.955   1.082   1.314   1.384
  1.385   1.469   1.546   1.658   1.731   1.781   1.834   1.858
  1.890   2.033   2.039   2.040   2.042   2.061   2.071   2.098
  2.106   2.112   2.261   2.306   2.309   2.346   2.376   2.514
  2.561   2.625   2.661   2.704   2.721   2.863   2.865   2.896
  2.902   3.167   3.217   3.309   3.415   3.448   3.458   3.497
  4.230   4.252   4.338   4.344   4.368   4.477   4.505   4.625
  5.478  89.794
 --------------------------------------------------------------
 
          Ground-State Mulliken Net Atomic Charges

     Atom                 Charge (a.u.)    Spin (a.u.)
  --------------------------------------------------------
      1 C                    -0.299435      -0.000000
      2 C                    -0.149915       0.000000
      3 Se                   -0.072253      -0.000000
      4 H                     0.013160       0.000000
      5 C                    -0.299435       0.000000
      6 H                     0.123648       0.000000
      7 H                     0.104017       0.000000
      8 H                     0.113286      -0.000000
      9 H                     0.125976       0.000000
     10 H                     0.104017      -0.000000
     11 H                     0.123648       0.000000
     12 H                     0.113286      -0.000000
  --------------------------------------------------------
  Sum of atomic charges =     0.000000
  Sum of spin   charges =     0.000000

 -----------------------------------------------------------------
                    Cartesian Multipole Moments
 -----------------------------------------------------------------
    Charge (ESU x 10^10)
                -0.0000
    Dipole Moment (Debye)
         X      -1.7845      Y      -0.0000      Z      -0.0455
       Tot       1.7851
    Quadrupole Moments (Debye-Ang)
        XX     -39.0123     XY       0.0000     YY     -41.2689
        XZ       0.8944     YZ       0.0000     ZZ     -37.3990
    Octopole Moments (Debye-Ang^2)
       XXX      44.1011    XXY      -0.0000    XYY      12.4034
       YYY      -0.0000    XXZ       1.4824    XYZ      -0.0000
       YYZ       1.2050    XZZ      15.7911    YZZ      -0.0000
       ZZZ       5.5229
    Hexadecapole Moments (Debye-Ang^3)
      XXXX    -462.1662   XXXY       0.0000   XXYY    -120.6524
      XYYY       0.0000   YYYY    -221.1268   XXXZ      10.7841
      XXYZ      -0.0000   XYYZ       3.0522   YYYZ       0.0000
      XXZZ     -94.9897   XYZZ       0.0000   YYZZ     -53.9959
      XZZZ       7.3031   YZZZ       0.0000   ZZZZ     -87.8069
 -----------------------------------------------------------------
 Calculating analytic gradient of the SCF energy
 Gradient of SCF Energy
            1           2           3           4           5           6
    1   0.0000891  -0.0002664   0.0026416  -0.0020926   0.0000891  -0.0000028
    2  -0.0000794   0.0000000   0.0000000  -0.0000000   0.0000794  -0.0000137
    3   0.0000548  -0.0009616  -0.0666396   0.0669521   0.0000548  -0.0000155
            7           8           9          10          11          12
    1  -0.0000126  -0.0000946  -0.0002408  -0.0000126  -0.0000028  -0.0000946
    2   0.0000126   0.0001060  -0.0000000  -0.0000126   0.0000137  -0.0001060
    3   0.0000589   0.0000732   0.0003062   0.0000589  -0.0000155   0.0000732
 Max gradient component =       6.695E-02
 RMS gradient           =       1.576E-02
 Gradient time:  CPU 11.67 s  wall 0.98 s
 Geometry Optimization Parameters
   NAtoms,    NIC,     NZ,  NCons,   NDum,   NFix, NCnnct, MaxDiis
       12      75       0       1       0       0       0       0

 Cartesian Hessian Update
 Hessian Updated using BFGS Update


** CONSTRAINED OPTIMIZATION IN DELOCALIZED INTERNAL COORDINATES **
   Searching for a Minimum

   Optimization Cycle:   2

                       Coordinates (Angstroms)
     ATOM                X               Y               Z
      1  C        -1.7338946565    1.2729104195    0.1371799338
      2  C        -1.0916859921    0.0000000000   -0.4107288249
      3  Se        0.8938668951    0.0000000000   -0.1700000201
      4  H         0.8342238778    0.0000000000    1.7266234539
      5  C        -1.7338946565   -1.2729104195    0.1371799338
      6  H        -1.2799796332    2.1706077479   -0.2885385532
      7  H        -2.8062290862    1.2826230501   -0.0963218296
      8  H        -1.6299713940    1.3241965198    1.2261792713
      9  H        -1.1580502409    0.0000000000   -1.5063962535
     10  H        -2.8062290862   -1.2826230501   -0.0963218296
     11  H        -1.2799796332   -2.1706077479   -0.2885385532
     12  H        -1.6299713940   -1.3241965198    1.2261792713
   Point Group: c1    Number of degrees of freedom:    30


   Energy is  -2520.408754061

              Constraints and their Current Values
                                        Value     Constraint
   Distance(Angs):        3   4             1.897561     1.900000
 Hessian Updated using BFGS Update

   Using Lagrange Multiplier Algorithm


 16 Hessian modes will be used to form the next step
  Hessian Eigenvalues:
    -0.984688    0.045000    0.071096    0.076609    0.082425    0.083813
     0.151026    0.159999    0.160155    0.208965    0.296685    0.339457
     0.339579    0.342275    0.345475    1.015572

 Minimum Search - Taking P-RFO Step
 Searching for Lamda that Maximizes Along the Constraint modes Only
 Value Taken    Lamda =   0.00000119
 Searching for Lamda that Minimizes Along All other modes
 Value Taken    Lamda =  -0.00006304
 Step Taken.  Stepsize is  0.008045

                             Maximum     Tolerance    Cnvgd?
         Gradient            0.006218       0.000300      NO
         Displacement        0.006102       0.001200      NO
         Energy change      0.011907       0.000001      NO


 New Cartesian Coordinates Obtained by Inverse Iteration

 Displacement from previous Coordinates is:  0.006452
 ----------------------------------------------------------------
             Standard Nuclear Orientation (Angstroms)
    I     Atom           X                Y                Z
 ----------------------------------------------------------------
    1      C      -1.7338952860     1.2729324855     0.1372562079
    2      C      -1.0916850418     0.0000000000    -0.4101272540
    3      Se      0.8920438005     0.0000000000    -0.1717508197
    4      H       0.8336215653     0.0000000000     1.7273505914
    5      C      -1.7338952860    -1.2729324855     0.1372562079
    6      H      -1.2798598442     2.1707370303    -0.2881349776
    7      H      -2.8061552474     1.2825610750    -0.0965927717
    8      H      -1.6295103874     1.3232561676     1.2261455313
    9      H      -1.1569337943     0.0000000000    -1.5063244975
   10      H      -2.8061552474    -1.2825610750    -0.0965927717
   11      H      -1.2798598442    -2.1707370303    -0.2881349776
   12      H      -1.6295103874    -1.3232561675     1.2261455313
 ----------------------------------------------------------------
 Nuclear Repulsion Energy =   255.9528625758 hartrees
 There are       30 alpha and       30 beta electrons

                       Distance Matrix (Angstroms)
             C (  1)   C (  2)   Se(  3)   H (  4)   C (  5)   H (  6)
   C (  2)  1.527226
   Se(  3)  2.934518  1.998000
   H (  4)  3.277331  2.876737  1.900000
   C (  5)  2.545865  1.527226  2.934518  3.277331
   H (  6)  1.092318  2.182290  3.072916  3.638830  3.499424
   H (  7)  1.097506  2.163949  3.915008  4.268455  2.781182  1.776266
   H (  8)  1.095038  2.172016  3.172279  2.840639  2.817228  1.770176
   H (  9)  2.157452  1.098137  2.445280  3.797231  2.157452  2.492227
   H ( 10)  2.781182  2.163949  3.915008  4.268455  1.097506  3.780415
   H ( 11)  3.499424  2.182290  3.072916  3.638830  1.092318  4.341474
   H ( 12)  2.817228  2.172016  3.172279  2.840639  1.095038  3.824041
             H (  7)   H (  8)   H (  9)   H ( 10)   H ( 11)
   H (  8)  1.770815
   H (  9)  2.520365  3.072577
   H ( 10)  2.565122  3.150304  2.520365
   H ( 11)  3.780415  3.824041  2.492227  1.776266
   H ( 12)  3.150304  2.646512  3.072577  1.770815  1.770176
 
 Applying Cartesian multipole field
    Component          Value
    ---------          -----
     (2,0,0)        1.00000E-11
     (0,2,0)        2.00000E-11
     (0,0,2)       -3.00000E-11
 Nucleus-field energy     =     0.0000000049 hartrees
 Requested basis set is 6-31G(d,p)
 There are 44 shells and 120 basis functions
 A cutoff of  1.0D-14 yielded    958 shell pairs
 There are      7209 function pairs
 Smallest overlap matrix eigenvalue = 6.74E-04
 Guess from superposition of atomic densities
 Warning:  Energy on first SCF cycle will be non-variational
 SAD guess density has 59.968191 electrons

 -----------------------------------------------------------------------
  General SCF calculation program by
  Eric Jon Sundstrom, Paul Horn, Yuezhi Mao, Dmitri Zuev, Alec White,
  David Stuck, Shaama M.S., Shane Yost, Joonho Lee, David Small,
  Daniel Levine, Susi Lehtola, Hugh Burton, Evgeny Epifanovsky
 -----------------------------------------------------------------------
 Exchange:     0.2000 Hartree-Fock + 0.0800 Slater + 0.7200 B88
 Correlation:  0.1900 VWN1RPA + 0.8100 LYP
 Using SG-1 standard quadrature grid
 using 12 threads for integral computing
 -------------------------------------------------------
 OpenMP Integral computing Module                
 Release: version 1.0, May 2013, Q-Chem Inc. Pittsburgh 
 -------------------------------------------------------
 -------------------------------------------------------
 OpenMP BLAS3 based DFT computing Module                
 Release: version 1.0, May 2013, Q-Chem Inc. Pittsburgh 
 -------------------------------------------------------
 A unrestricted SCF calculation will be
 performed using DIIS
 SCF converges when DIIS error is below 1.0e-06
 Alpha HF Exchange    Energy = -10.35187376756869
 Beta HF Exchange     Energy = -10.35187376756869
 DFT Correlation      Energy =  -3.08663313274572
 DFT Exchange         Energy = -81.99890073988146
 One-Electron (alpha) Energy = -2003.20486801350512
 One-Electron (beta)  Energy = -2003.20486801350512
 Total Coulomb        Energy = 1333.00116552785926
 ---------------------------------------
  Cycle       Energy         DIIS error
 ---------------------------------------
    1   -2523.2449893262      1.38e-01  
 Alpha HF Exchange    Energy = -10.41413370354139
 Beta HF Exchange     Energy = -10.41413370354140
 DFT Correlation      Energy =  -3.12981395806387
 DFT Exchange         Energy = -82.88465327891105
 One-Electron (alpha) Energy = -2010.74012918445510
 One-Electron (beta)  Energy = -2010.74012918445578
 Total Coulomb        Energy = 1352.10078579636343
    2   -2520.2693446359      8.97e-03  
 Alpha HF Exchange    Energy = -10.30913681440385
 Beta HF Exchange     Energy = -10.30913681440384
 DFT Correlation      Energy =  -3.08767596871815
 DFT Exchange         Energy = -82.02954546491726
 One-Electron (alpha) Energy = -1998.90757641484765
 One-Electron (beta)  Energy = -1998.90757641484765
 Total Coulomb        Energy = 1327.38307828281290
    3   -2520.2147070286      5.08e-03  
 Alpha HF Exchange    Energy = -10.39677422382465
 Beta HF Exchange     Energy = -10.39677422382466
 DFT Correlation      Energy =  -3.12343501085622
 DFT Exchange         Energy = -82.73700321661545
 One-Electron (alpha) Energy = -2009.37743435670859
 One-Electron (beta)  Energy = -2009.37743435671041
 Total Coulomb        Energy = 1349.12038825176887
    4   -2520.3356045561      3.04e-03  
 Alpha HF Exchange    Energy = -10.36422139621927
 Beta HF Exchange     Energy = -10.36422139621925
 DFT Correlation      Energy =  -3.11024484579542
 DFT Exchange         Energy = -82.47756881581107
 One-Electron (alpha) Energy = -2005.39116467527424
 One-Electron (beta)  Energy = -2005.39116467527265
 Total Coulomb        Energy = 1340.73986189694119
    5   -2520.4058613270      5.62e-04  
 Alpha HF Exchange    Energy = -10.36405719685923
 Beta HF Exchange     Energy = -10.36405719685924
 DFT Correlation      Energy =  -3.11041137547654
 DFT Exchange         Energy = -82.47636892868698
 One-Electron (alpha) Energy = -2005.53949630163947
 One-Electron (beta)  Energy = -2005.53949630163993
 Total Coulomb        Energy = 1341.03264391233597
    6   -2520.4083808081      9.63e-05  
 Alpha HF Exchange    Energy = -10.36389776695546
 Beta HF Exchange     Energy = -10.36389776695545
 DFT Correlation      Energy =  -3.11023018174164
 DFT Exchange         Energy = -82.47474734503480
 One-Electron (alpha) Energy = -2005.51728095371163
 One-Electron (beta)  Energy = -2005.51728095371118
 Total Coulomb        Energy = 1340.98603386536456
    7   -2520.4084385221      3.67e-05  
 Alpha HF Exchange    Energy = -10.36390408832241
 Beta HF Exchange     Energy = -10.36390408832240
 DFT Correlation      Energy =  -3.11027358928179
 DFT Exchange         Energy = -82.47496422281293
 One-Electron (alpha) Energy = -2005.50240687117457
 One-Electron (beta)  Energy = -2005.50240687117343
 Total Coulomb        Energy = 1340.95654991302717
    8   -2520.4084472374      1.08e-05  
 Alpha HF Exchange    Energy = -10.36394607908479
 Beta HF Exchange     Energy = -10.36394607908480
 DFT Correlation      Energy =  -3.11028324997336
 DFT Exchange         Energy = -82.47526361839138
 One-Electron (alpha) Energy = -2005.51395568461658
 One-Electron (beta)  Energy = -2005.51395568461771
 Total Coulomb        Energy = 1340.98003948542328
    9   -2520.4084483297      2.16e-06  
 Alpha HF Exchange    Energy = -10.36394193623079
 Beta HF Exchange     Energy = -10.36394193623079
 DFT Correlation      Energy =  -3.11028391698178
 DFT Exchange         Energy = -82.47523362627547
 One-Electron (alpha) Energy = -2005.51211282946747
 One-Electron (beta)  Energy = -2005.51211282946770
 Total Coulomb        Energy = 1340.97631612514897
   10   -2520.4084483688      6.10e-07  Convergence criterion met
 ---------------------------------------
 SCF time:   CPU 31.94s  wall 2.00s 
<S^2> =         -0.000000000
 Alpha HF Exchange    Energy = -10.36394193623079
 Beta HF Exchange     Energy = -10.36394193623079
 DFT Correlation      Energy =  -3.11028391698178
 DFT Exchange         Energy = -82.47523362627547
 One-Electron (alpha) Energy = -2005.51211282946747
 One-Electron (beta)  Energy = -2005.51211282946770
 Total Coulomb        Energy = 1340.97631612514897
 Nuclear repulsion Energy = 255.95286258069515
 SCF   energy in the final basis set =    -2520.4084483688
 Total energy in the final basis set =    -2520.4084483688
 
 --------------------------------------------------------------
 
                    Orbital Energies (a.u.)
 --------------------------------------------------------------
 
 Alpha MOs
 -- Occupied --
******* -58.095 -52.153 -52.152 -52.149 -10.230 -10.186 -10.186
 -7.827  -5.773  -5.768  -5.758  -2.106  -2.106  -2.097  -2.094
 -2.092  -0.806  -0.694  -0.671  -0.570  -0.462  -0.437  -0.416
 -0.392  -0.362  -0.355  -0.327  -0.301  -0.223
 -- Virtual --
 -0.060   0.021   0.089   0.130   0.147   0.152   0.168   0.180
  0.186   0.202   0.231   0.240   0.307   0.327   0.330   0.459
  0.466   0.500   0.505   0.565   0.586   0.633   0.677   0.682
  0.697   0.750   0.758   0.789   0.826   0.866   0.866   0.874
  0.906   0.913   0.932   0.954   0.955   1.082   1.314   1.384
  1.386   1.469   1.546   1.659   1.731   1.781   1.834   1.858
  1.890   2.033   2.039   2.039   2.042   2.061   2.071   2.098
  2.106   2.112   2.261   2.304   2.309   2.346   2.376   2.514
  2.561   2.625   2.661   2.704   2.721   2.863   2.865   2.897
  2.902   3.167   3.217   3.308   3.415   3.448   3.458   3.497
  4.230   4.252   4.338   4.344   4.368   4.477   4.505   4.625
  5.478  89.794
 
 Beta MOs
 -- Occupied --
******* -58.095 -52.153 -52.152 -52.149 -10.230 -10.186 -10.186
 -7.827  -5.773  -5.768  -5.758  -2.106  -2.106  -2.097  -2.094
 -2.092  -0.806  -0.694  -0.671  -0.570  -0.462  -0.437  -0.416
 -0.392  -0.362  -0.355  -0.327  -0.301  -0.223
 -- Virtual --
 -0.060   0.021   0.089   0.130   0.147   0.152   0.168   0.180
  0.186   0.202   0.231   0.240   0.307   0.327   0.330   0.459
  0.466   0.500   0.505   0.565   0.586   0.633   0.677   0.682
  0.697   0.750   0.758   0.789   0.826   0.866   0.866   0.874
  0.906   0.913   0.932   0.954   0.955   1.082   1.314   1.384
  1.386   1.469   1.546   1.659   1.731   1.781   1.834   1.858
  1.890   2.033   2.039   2.039   2.042   2.061   2.071   2.098
  2.106   2.112   2.261   2.304   2.309   2.346   2.376   2.514
  2.561   2.625   2.661   2.704   2.721   2.863   2.865   2.897
  2.902   3.167   3.217   3.308   3.415   3.448   3.458   3.497
  4.230   4.252   4.338   4.344   4.368   4.477   4.505   4.625
  5.478  89.794
 --------------------------------------------------------------
 
          Ground-State Mulliken Net Atomic Charges

     Atom                 Charge (a.u.)    Spin (a.u.)
  --------------------------------------------------------
      1 C                    -0.299338       0.000000
      2 C                    -0.149951       0.000000
      3 Se                   -0.071995       0.000000
      4 H                     0.012853      -0.000000
      5 C                    -0.299338      -0.000000
      6 H                     0.123670      -0.000000
      7 H                     0.104018      -0.000000
      8 H                     0.113292      -0.000000
      9 H                     0.125809      -0.000000
     10 H                     0.104018      -0.000000
     11 H                     0.123670      -0.000000
     12 H                     0.113292       0.000000
  --------------------------------------------------------
  Sum of atomic charges =    -0.000000
  Sum of spin   charges =     0.000000

 -----------------------------------------------------------------
                    Cartesian Multipole Moments
 -----------------------------------------------------------------
    Charge (ESU x 10^10)
                -0.0000
    Dipole Moment (Debye)
         X      -1.7832      Y       0.0000      Z      -0.0483
       Tot       1.7838
    Quadrupole Moments (Debye-Ang)
        XX     -39.0140     XY      -0.0000     YY     -41.2668
        XZ       0.8920     YZ       0.0000     ZZ     -37.4067
    Octopole Moments (Debye-Ang^2)
       XXX      44.2055    XXY       0.0000    XYY      12.4392
       YYY      -0.0000    XXZ       1.4968    XYZ      -0.0000
       YYZ       1.2263    XZZ      15.8199    YZZ      -0.0000
       ZZZ       5.5879
    Hexadecapole Moments (Debye-Ang^3)
      XXXX    -461.7764   XXXY       0.0000   XXYY    -120.5795
      XYYY       0.0000   YYYY    -221.0831   XXXZ      10.8658
      XXYZ       0.0000   XYYZ       3.0949   YYYZ       0.0000
      XXZZ     -94.9676   XYZZ       0.0000   YYZZ     -54.0192
      XZZZ       7.3688   YZZZ       0.0000   ZZZZ     -87.9132
 -----------------------------------------------------------------
 Calculating analytic gradient of the SCF energy
 Gradient of SCF Energy
            1           2           3           4           5           6
    1   0.0001334  -0.0001516   0.0021409  -0.0020968   0.0001334  -0.0000148
    2  -0.0000253  -0.0000000  -0.0000000   0.0000000   0.0000253   0.0000153
    3   0.0000705  -0.0002647  -0.0668776   0.0669854   0.0000705  -0.0000184
            7           8           9          10          11          12
    1  -0.0000145  -0.0000194  -0.0000618  -0.0000145  -0.0000148  -0.0000194
    2  -0.0000106   0.0000102   0.0000000   0.0000106  -0.0000153  -0.0000102
    3  -0.0000027  -0.0000110   0.0000798  -0.0000027  -0.0000184  -0.0000110
 Max gradient component =       6.699E-02
 RMS gradient           =       1.578E-02
 Gradient time:  CPU 11.69 s  wall 0.98 s
 Geometry Optimization Parameters
   NAtoms,    NIC,     NZ,  NCons,   NDum,   NFix, NCnnct, MaxDiis
       12      75       0       1       0       0       0       0

 Cartesian Hessian Update
 Hessian Updated using BFGS Update


** CONSTRAINED OPTIMIZATION IN DELOCALIZED INTERNAL COORDINATES **
   Searching for a Minimum

   Optimization Cycle:   3

                       Coordinates (Angstroms)
     ATOM                X               Y               Z
      1  C        -1.7338952860    1.2729324855    0.1372562079
      2  C        -1.0916850418    0.0000000000   -0.4101272540
      3  Se        0.8920438005    0.0000000000   -0.1717508197
      4  H         0.8336215653    0.0000000000    1.7273505914
      5  C        -1.7338952860   -1.2729324855    0.1372562079
      6  H        -1.2798598442    2.1707370303   -0.2881349776
      7  H        -2.8061552474    1.2825610750   -0.0965927717
      8  H        -1.6295103874    1.3232561676    1.2261455313
      9  H        -1.1569337943    0.0000000000   -1.5063244975
     10  H        -2.8061552474   -1.2825610750   -0.0965927717
     11  H        -1.2798598442   -2.1707370303   -0.2881349776
     12  H        -1.6295103874   -1.3232561675    1.2261455313
   Point Group: c1    Number of degrees of freedom:    30


   Energy is  -2520.408448369

              Constraints and their Current Values
                                        Value     Constraint
   Distance(Angs):        3   4             1.900000     1.900000
 Hessian Updated using BFGS Update

 15 Hessian modes will be used to form the next step
  Hessian Eigenvalues:
     0.044567    0.058562    0.074682    0.082194    0.083826    0.144578
     0.158131    0.160001    0.179350    0.213279    0.301603    0.335969
     0.339844    0.344035    0.346398

 Minimum Search - Taking Simple RFO Step
 Searching for Lamda that Minimizes Along All modes
 Value Taken    Lamda =   0.00000000
 Step Taken.  Stepsize is  0.003479

                             Maximum     Tolerance    Cnvgd?
         Gradient           0.000151      0.000300     YES
         Displacement       0.001711      0.001200      NO
         Energy change      0.000306      0.000001      NO


 New Cartesian Coordinates Obtained by Inverse Iteration

 Displacement from previous Coordinates is:  0.005948
 ----------------------------------------------------------------
             Standard Nuclear Orientation (Angstroms)
    I     Atom           X                Y                Z
 ----------------------------------------------------------------
    1      C      -1.7343224275     1.2729297168     0.1372834578
    2      C      -1.0915123611     0.0000000000    -0.4095340048
    3      Se      0.8918969394     0.0000000000    -0.1721191221
    4      H       0.8359269851     0.0000000000     1.7270561440
    5      C      -1.7343224275    -1.2729297168     0.1372834578
    6      H      -1.2799896483     2.1706880307    -0.2878275354
    7      H      -2.8064257587     1.2825368117    -0.0971559417
    8      H      -1.6303511870     1.3231524116     1.2262282502
    9      H      -1.1559285204     0.0000000000    -1.5059634789
   10      H      -2.8064257587    -1.2825368117    -0.0971559417
   11      H      -1.2799896483    -2.1706880307    -0.2878275354
   12      H      -1.6303511870    -1.3231524115     1.2262282502
 ----------------------------------------------------------------
 Nuclear Repulsion Energy =   255.9557877982 hartrees
 There are       30 alpha and       30 beta electrons

                       Distance Matrix (Angstroms)
             C (  1)   C (  2)   Se(  3)   H (  4)   C (  5)   H (  6)
   C (  2)  1.527273
   Se(  3)  2.934810  1.997568
   H (  4)  3.279315  2.877506  1.900000
   C (  5)  2.545859  1.527273  2.934810  3.279315
   H (  6)  1.092295  2.182252  3.072843  3.639883  3.499377
   H (  7)  1.097479  2.164118  3.915113  4.270759  2.781147  1.776281
   H (  8)  1.095049  2.171819  3.172986  2.843253  2.817136  1.770151
   H (  9)  2.157580  1.098320  2.443917  3.797355  2.157580  2.492214
   H ( 10)  2.781147  2.164118  3.915113  4.270759  1.097479  3.780360
   H ( 11)  3.499377  2.182252  3.072843  3.639883  1.092295  4.341376
   H ( 12)  2.817136  2.171819  3.172986  2.843253  1.095049  3.823878
             H (  7)   H (  8)   H (  9)   H ( 10)   H ( 11)
   H (  8)  1.770917
   H (  9)  2.520671  3.072569
   H ( 10)  2.565074  3.150256  2.520671
   H ( 11)  3.780360  3.823878  2.492214  1.776281
   H ( 12)  3.150256  2.646305  3.072569  1.770917  1.770151
 
 Applying Cartesian multipole field
    Component          Value
    ---------          -----
     (2,0,0)        1.00000E-11
     (0,2,0)        2.00000E-11
     (0,0,2)       -3.00000E-11
 Nucleus-field energy     =     0.0000000049 hartrees
 Requested basis set is 6-31G(d,p)
 There are 44 shells and 120 basis functions
 A cutoff of  1.0D-14 yielded    958 shell pairs
 There are      7209 function pairs
 Smallest overlap matrix eigenvalue = 6.74E-04
 Guess from superposition of atomic densities
 Warning:  Energy on first SCF cycle will be non-variational
 SAD guess density has 59.968191 electrons

 -----------------------------------------------------------------------
  General SCF calculation program by
  Eric Jon Sundstrom, Paul Horn, Yuezhi Mao, Dmitri Zuev, Alec White,
  David Stuck, Shaama M.S., Shane Yost, Joonho Lee, David Small,
  Daniel Levine, Susi Lehtola, Hugh Burton, Evgeny Epifanovsky
 -----------------------------------------------------------------------
 Exchange:     0.2000 Hartree-Fock + 0.0800 Slater + 0.7200 B88
 Correlation:  0.1900 VWN1RPA + 0.8100 LYP
 Using SG-1 standard quadrature grid
 using 12 threads for integral computing
 -------------------------------------------------------
 OpenMP Integral computing Module                
 Release: version 1.0, May 2013, Q-Chem Inc. Pittsburgh 
 -------------------------------------------------------
 -------------------------------------------------------
 OpenMP BLAS3 based DFT computing Module                
 Release: version 1.0, May 2013, Q-Chem Inc. Pittsburgh 
 -------------------------------------------------------
 A unrestricted SCF calculation will be
 performed using DIIS
 SCF converges when DIIS error is below 1.0e-06
 Alpha HF Exchange    Energy = -10.35188698018519
 Beta HF Exchange     Energy = -10.35188698018519
 DFT Correlation      Energy =  -3.08663432902390
 DFT Exchange         Energy = -81.99893496898960
 One-Electron (alpha) Energy = -2003.20776167711074
 One-Electron (beta)  Energy = -2003.20776167711074
 Total Coulomb        Energy = 1333.00389918016845
 ---------------------------------------
  Cycle       Energy         DIIS error
 ---------------------------------------
    1   -2523.2451796294      1.38e-01  
 Alpha HF Exchange    Energy = -10.41413460704534
 Beta HF Exchange     Energy = -10.41413460704533
 DFT Correlation      Energy =  -3.12981507997824
 DFT Exchange         Energy = -82.88466074258909
 One-Electron (alpha) Energy = -2010.74242568837076
 One-Electron (beta)  Energy = -2010.74242568836962
 Total Coulomb        Energy = 1352.10244685865200
    2   -2520.2693617517      8.97e-03  
 Alpha HF Exchange    Energy = -10.30913986902373
 Beta HF Exchange     Energy = -10.30913986902373
 DFT Correlation      Energy =  -3.08767652570851
 DFT Exchange         Energy = -82.02957117235540
 One-Electron (alpha) Energy = -1998.91109028293022
 One-Electron (beta)  Energy = -1998.91109028292999
 Total Coulomb        Energy = 1327.38719166597116
    3   -2520.2147285330      5.08e-03  
 Alpha HF Exchange    Energy = -10.39677701034597
 Beta HF Exchange     Energy = -10.39677701034597
 DFT Correlation      Energy =  -3.12343778491051
 DFT Exchange         Energy = -82.73702672404043
 One-Electron (alpha) Energy = -2009.37964775518503
 One-Electron (beta)  Energy = -2009.37964775518549
 Total Coulomb        Energy = 1349.12193895339919
    4   -2520.3355872836      3.04e-03  
 Alpha HF Exchange    Energy = -10.36422541959032
 Beta HF Exchange     Energy = -10.36422541959034
 DFT Correlation      Energy =  -3.11024554750823
 DFT Exchange         Energy = -82.47759831615670
 One-Electron (alpha) Energy = -2005.39413143655293
 One-Electron (beta)  Energy = -2005.39413143655452
 Total Coulomb        Energy = 1340.74291159931181
    5   -2520.4058581736      5.62e-04  
 Alpha HF Exchange    Energy = -10.36405922137413
 Beta HF Exchange     Energy = -10.36405922137416
 DFT Correlation      Energy =  -3.11041244702335
 DFT Exchange         Energy = -82.47638448391544
 One-Electron (alpha) Energy = -2005.54206397842722
 One-Electron (beta)  Energy = -2005.54206397842950
 Total Coulomb        Energy = 1341.03487419282965
    6   -2520.4083813347      9.64e-05  
 Alpha HF Exchange    Energy = -10.36390026248941
 Beta HF Exchange     Energy = -10.36390026248939
 DFT Correlation      Energy =  -3.11023125096337
 DFT Exchange         Energy = -82.47476591779969
 One-Electron (alpha) Energy = -2005.51998472671721
 One-Electron (beta)  Energy = -2005.51998472671653
 Total Coulomb        Energy = 1340.98854031588530
    7   -2520.4084390283      3.67e-05  
 Alpha HF Exchange    Energy = -10.36390638105144
 Beta HF Exchange     Energy = -10.36390638105143
 DFT Correlation      Energy =  -3.11027457560947
 DFT Exchange         Energy = -82.47498128318287
 One-Electron (alpha) Energy = -2005.50505612104439
 One-Electron (beta)  Energy = -2005.50505612104325
 Total Coulomb        Energy = 1340.95894529420343
    8   -2520.4084477658      1.08e-05  
 Alpha HF Exchange    Energy = -10.36394842345079
 Beta HF Exchange     Energy = -10.36394842345079
 DFT Correlation      Energy =  -3.11028426931485
 DFT Exchange         Energy = -82.47528113083359
 One-Electron (alpha) Energy = -2005.51661381272993
 One-Electron (beta)  Energy = -2005.51661381273107
 Total Coulomb        Energy = 1340.98245321159857
    9   -2520.4084488579      2.16e-06  
 Alpha HF Exchange    Energy = -10.36394427519711
 Beta HF Exchange     Energy = -10.36394427519712
 DFT Correlation      Energy =  -3.11028493601055
 DFT Exchange         Energy = -82.47525108952338
 One-Electron (alpha) Energy = -2005.51477097659222
 One-Electron (beta)  Energy = -2005.51477097659335
 Total Coulomb        Energy = 1340.97872982908621
   10   -2520.4084488970      6.10e-07  Convergence criterion met
 ---------------------------------------
 SCF time:   CPU 32.35s  wall 2.00s 
<S^2> =         -0.000000000
 Alpha HF Exchange    Energy = -10.36394427519711
 Beta HF Exchange     Energy = -10.36394427519712
 DFT Correlation      Energy =  -3.11028493601055
 DFT Exchange         Energy = -82.47525108952338
 One-Electron (alpha) Energy = -2005.51477097659222
 One-Electron (beta)  Energy = -2005.51477097659335
 Total Coulomb        Energy = 1340.97872982908621
 Nuclear repulsion Energy = 255.95578780300949
 SCF   energy in the final basis set =    -2520.4084488970
 Total energy in the final basis set =    -2520.4084488970
 
 --------------------------------------------------------------
 
                    Orbital Energies (a.u.)
 --------------------------------------------------------------
 
 Alpha MOs
 -- Occupied --
******* -58.095 -52.153 -52.152 -52.149 -10.230 -10.186 -10.186
 -7.827  -5.773  -5.768  -5.758  -2.106  -2.106  -2.097  -2.094
 -2.092  -0.806  -0.694  -0.671  -0.569  -0.462  -0.437  -0.416
 -0.392  -0.362  -0.355  -0.327  -0.301  -0.223
 -- Virtual --
 -0.060   0.021   0.089   0.130   0.147   0.152   0.168   0.180
  0.186   0.202   0.231   0.240   0.307   0.327   0.330   0.459
  0.466   0.500   0.505   0.565   0.586   0.633   0.677   0.682
  0.697   0.750   0.758   0.789   0.826   0.866   0.866   0.874
  0.906   0.913   0.932   0.954   0.955   1.081   1.314   1.384
  1.386   1.469   1.546   1.659   1.731   1.782   1.834   1.858
  1.891   2.033   2.039   2.039   2.042   2.061   2.071   2.098
  2.106   2.112   2.261   2.304   2.309   2.347   2.376   2.514
  2.561   2.625   2.661   2.704   2.720   2.863   2.865   2.897
  2.902   3.167   3.217   3.308   3.415   3.448   3.458   3.497
  4.230   4.252   4.338   4.344   4.368   4.477   4.505   4.625
  5.478  89.794
 
 Beta MOs
 -- Occupied --
******* -58.095 -52.153 -52.152 -52.149 -10.230 -10.186 -10.186
 -7.827  -5.773  -5.768  -5.758  -2.106  -2.106  -2.097  -2.094
 -2.092  -0.806  -0.694  -0.671  -0.569  -0.462  -0.437  -0.416
 -0.392  -0.362  -0.355  -0.327  -0.301  -0.223
 -- Virtual --
 -0.060   0.021   0.089   0.130   0.147   0.152   0.168   0.180
  0.186   0.202   0.231   0.240   0.307   0.327   0.330   0.459
  0.466   0.500   0.505   0.565   0.586   0.633   0.677   0.682
  0.697   0.750   0.758   0.789   0.826   0.866   0.866   0.874
  0.906   0.913   0.932   0.954   0.955   1.081   1.314   1.384
  1.386   1.469   1.546   1.659   1.731   1.782   1.834   1.858
  1.891   2.033   2.039   2.039   2.042   2.061   2.071   2.098
  2.106   2.112   2.261   2.304   2.309   2.347   2.376   2.514
  2.561   2.625   2.661   2.704   2.720   2.863   2.865   2.897
  2.902   3.167   3.217   3.308   3.415   3.448   3.458   3.497
  4.230   4.252   4.338   4.344   4.368   4.477   4.505   4.625
  5.478  89.794
 --------------------------------------------------------------
 
          Ground-State Mulliken Net Atomic Charges

     Atom                 Charge (a.u.)    Spin (a.u.)
  --------------------------------------------------------
      1 C                    -0.299355      -0.000000
      2 C                    -0.149932       0.000000
      3 Se                   -0.071977       0.000000
      4 H                     0.012837       0.000000
      5 C                    -0.299355       0.000000
      6 H                     0.123669       0.000000
      7 H                     0.104053      -0.000000
      8 H                     0.113296       0.000000
      9 H                     0.125745       0.000000
     10 H                     0.104053       0.000000
     11 H                     0.123669      -0.000000
     12 H                     0.113296      -0.000000
  --------------------------------------------------------
  Sum of atomic charges =    -0.000000
  Sum of spin   charges =     0.000000

 -----------------------------------------------------------------
                    Cartesian Multipole Moments
 -----------------------------------------------------------------
    Charge (ESU x 10^10)
                -0.0000
    Dipole Moment (Debye)
         X      -1.7827      Y       0.0000      Z      -0.0477
       Tot       1.7833
    Quadrupole Moments (Debye-Ang)
        XX     -39.0115     XY      -0.0000     YY     -41.2668
        XZ       0.8934     YZ       0.0000     ZZ     -37.4094
    Octopole Moments (Debye-Ang^2)
       XXX      44.2154    XXY      -0.0000    XYY      12.4442
       YYY       0.0000    XXZ       1.5040    XYZ      -0.0000
       YYZ       1.2307    XZZ      15.8274    YZZ       0.0000
       ZZZ       5.6008
    Hexadecapole Moments (Debye-Ang^3)
      XXXX    -461.8481   XXXY      -0.0000   XXYY    -120.5905
      XYYY      -0.0000   YYYY    -221.0797   XXXZ      10.8964
      XXYZ       0.0000   XYYZ       3.1056   YYYZ       0.0000
      XXZZ     -94.9868   XYZZ      -0.0000   YYZZ     -54.0204
      XZZZ       7.3916   YZZZ       0.0000   ZZZZ     -87.9147
 -----------------------------------------------------------------
 Calculating analytic gradient of the SCF energy
 Gradient of SCF Energy
            1           2           3           4           5           6
    1   0.0000401  -0.0000270   0.0019814  -0.0019958   0.0000401  -0.0000139
    2   0.0000027  -0.0000000   0.0000000   0.0000000  -0.0000027  -0.0000013
    3   0.0000333  -0.0000388  -0.0669383   0.0669794   0.0000333  -0.0000126
            7           8           9          10          11          12
    1  -0.0000112   0.0000039   0.0000035  -0.0000112  -0.0000139   0.0000039
    2   0.0000027  -0.0000091   0.0000000  -0.0000027   0.0000013   0.0000091
    3  -0.0000043  -0.0000116  -0.0000120  -0.0000043  -0.0000126  -0.0000116
 Max gradient component =       6.698E-02
 RMS gradient           =       1.579E-02
 Gradient time:  CPU 12.03 s  wall 1.02 s
 Geometry Optimization Parameters
   NAtoms,    NIC,     NZ,  NCons,   NDum,   NFix, NCnnct, MaxDiis
       12      75       0       1       0       0       0       0

 Cartesian Hessian Update
 Hessian Updated using BFGS Update


** CONSTRAINED OPTIMIZATION IN DELOCALIZED INTERNAL COORDINATES **
   Searching for a Minimum

   Optimization Cycle:   4

                       Coordinates (Angstroms)
     ATOM                X               Y               Z
      1  C        -1.7343224275    1.2729297168    0.1372834578
      2  C        -1.0915123611    0.0000000000   -0.4095340048
      3  Se        0.8918969394    0.0000000000   -0.1721191221
      4  H         0.8359269851    0.0000000000    1.7270561440
      5  C        -1.7343224275   -1.2729297168    0.1372834578
      6  H        -1.2799896483    2.1706880307   -0.2878275354
      7  H        -2.8064257587    1.2825368117   -0.0971559417
      8  H        -1.6303511870    1.3231524116    1.2262282502
      9  H        -1.1559285204    0.0000000000   -1.5059634789
     10  H        -2.8064257587   -1.2825368117   -0.0971559417
     11  H        -1.2799896483   -2.1706880307   -0.2878275354
     12  H        -1.6303511870   -1.3231524115    1.2262282502
   Point Group: c1    Number of degrees of freedom:    30


   Energy is  -2520.408448897

              Constraints and their Current Values
                                        Value     Constraint
   Distance(Angs):        3   4             1.900000     1.900000
 Hessian Updated using BFGS Update

 16 Hessian modes will be used to form the next step
  Hessian Eigenvalues:
     0.035616    0.050068    0.075280    0.082262    0.083885    0.142629
     0.158277    0.160000    0.163855    0.182318    0.208649    0.300736
     0.338175    0.341559    0.346079    0.346410

 Minimum Search - Taking Simple RFO Step
 Searching for Lamda that Minimizes Along All modes
 Value Taken    Lamda =   0.00000000
 Step Taken.  Stepsize is  0.001983

                             Maximum     Tolerance    Cnvgd?
         Gradient           0.000063      0.000300     YES
         Displacement       0.001058      0.001200     YES
         Energy change     -0.000001      0.000001     YES


                       Distance Matrix (Angstroms)
             C (  1)   C (  2)   Se(  3)   H (  4)   C (  5)   H (  6)
   C (  2)  1.527273
   Se(  3)  2.934810  1.997568
   H (  4)  3.279315  2.877506  1.900000
   C (  5)  2.545859  1.527273  2.934810  3.279315
   H (  6)  1.092295  2.182252  3.072843  3.639883  3.499377
   H (  7)  1.097479  2.164118  3.915113  4.270759  2.781147  1.776281
   H (  8)  1.095049  2.171819  3.172986  2.843253  2.817136  1.770151
   H (  9)  2.157580  1.098320  2.443917  3.797355  2.157580  2.492214
   H ( 10)  2.781147  2.164118  3.915113  4.270759  1.097479  3.780360
   H ( 11)  3.499377  2.182252  3.072843  3.639883  1.092295  4.341376
   H ( 12)  2.817136  2.171819  3.172986  2.843253  1.095049  3.823878
             H (  7)   H (  8)   H (  9)   H ( 10)   H ( 11)
   H (  8)  1.770917
   H (  9)  2.520671  3.072569
   H ( 10)  2.565074  3.150256  2.520671
   H ( 11)  3.780360  3.823878  2.492214  1.776281
   H ( 12)  3.150256  2.646305  3.072569  1.770917  1.770151
 
 Final energy is   -2520.40844889702     


 ******************************
 **  OPTIMIZATION CONVERGED  **
 ******************************

                       Coordinates (Angstroms)
     ATOM                X               Y               Z
      1  C        -1.7343224275    1.2729297168    0.1372834578
      2  C        -1.0915123611    0.0000000000   -0.4095340048
      3  Se        0.8918969394    0.0000000000   -0.1721191221
      4  H         0.8359269851    0.0000000000    1.7270561440
      5  C        -1.7343224275   -1.2729297168    0.1372834578
      6  H        -1.2799896483    2.1706880307   -0.2878275354
      7  H        -2.8064257587    1.2825368117   -0.0971559417
      8  H        -1.6303511870    1.3231524116    1.2262282502
      9  H        -1.1559285204    0.0000000000   -1.5059634789
     10  H        -2.8064257587   -1.2825368117   -0.0971559417
     11  H        -1.2799896483   -2.1706880307   -0.2878275354
     12  H        -1.6303511870   -1.3231524115    1.2262282502

Z-matrix Print:
$molecule
0 1
Se
H  1 1.900000
C  1 1.997568 2 95.137795
H  3 1.098320 1 100.188161 2 -180.000000 0
C  3 1.527273 1 112.046003 2 -64.054875 0
H  5 1.092295 3 111.753677 1 -54.013110 0
H  5 1.095049 3 110.750725 1 66.512068 0
H  5 1.097479 3 109.996918 1 -174.494761 0
C  3 1.527273 1 112.046003 2 64.054875 0
H  9 1.092295 3 111.753677 1 54.013110 0
H  9 1.095049 3 110.750725 1 -66.512068 0
H  9 1.097479 3 109.996918 1 174.494761 0
$end

PES scan, value:    1.9000 energy: -2520.4084488970
------- Summary of potential scan: ------ 
    1.9000     -2520.4084488970
----------------------------------------- 
Archival summary:
1\1\hpc0248\JobtypUnspecified\ProcedureUnspecified\6-31G**\e138\knomura\WedMar1316:24:482019WedMar1316:24:482019\0\\#,JobtypUnspecified,ProcedureUnspecified,6-31G**,\\0,1\Se\H,1,1.9\C,1,1.99757,2,95.1378\H,3,1.09832,1,100.188,2,-180,0\C,3,1.52727,1,112.046,2,-64.0549,0\H,5,1.09229,3,111.754,1,-54.0131,0\H,5,1.09505,3,110.751,1,66.5121,0\H,5,1.09748,3,109.997,1,-174.495,0\C,3,1.52727,1,112.046,2,64.0549,0\H,9,1.09229,3,111.754,1,54.0131,0\H,9,1.09505,3,110.751,1,-66.5121,0\H,9,1.09748,3,109.997,1,174.495,0\\\@

 Total job time:  17.45s(wall), 196.69s(cpu) 
 Wed Mar 13 16:24:48 2019

        *************************************************************
        *                                                           *
        *  Thank you very much for using Q-Chem.  Have a nice day.  *
        *                                                           *
        *************************************************************


