
Running Job 1 of 1 selenium/01/Se-H.xyz.data/inputs/bond_singlet_0.9.in
qchem selenium/01/Se-H.xyz.data/inputs/bond_singlet_0.9.in_22576.0 /staging/scratch/2868765/qchem22576/ 1
/usr/usc/qchem/5.1.1/exe/qcprog.exe_s selenium/01/Se-H.xyz.data/inputs/bond_singlet_0.9.in_22576.0 /staging/scratch/2868765/qchem22576/
Check license passed

                  Welcome to Q-Chem
     A Quantum Leap Into The Future Of Chemistry


 Q-Chem 5.1, Q-Chem, Inc., Pleasanton, CA (2018)

 Yihan Shao,  Zhengting Gan,  E. Epifanovsky,  A. T. B. Gilbert,  M. Wormit,  
 J. Kussmann,  A. W. Lange,  A. Behn,  Jia Deng,  Xintian Feng,  D. Ghosh,  
 M. Goldey,  P. R. Horn,  L. D. Jacobson,  I. Kaliman,  T. Kus,  A. Landau,  
 Jie Liu,  E. I. Proynov,  R. M. Richard,  R. P. Steele,  E. J. Sundstrom,  
 H. L. Woodcock III,  P. M. Zimmerman,  D. Zuev,  B. Albrecht,  E. Alguire,  
 S. A. Baeppler,  D. Barton,  Z. Benda,  Y. A. Bernard,  E. J. Berquist,  
 K. B. Bravaya,  H. Burton,  D. Casanova,  Chun-Min Chang,  Yunqing Chen,  
 A. Chien,  K. D. Closser,  M. P. Coons,  S. Coriani,  S. Dasgupta,  
 A. L. Dempwolff,  M. Diedenhofen,  Hainam Do,  R. G. Edgar,  Po-Tung Fang,  
 S. Faraji,  S. Fatehi,  Qingguo Feng,  K. D. Fenk,  J. Fosso-Tande,  
 Qinghui Ge,  A. Ghysels,  G. Gidofalvi,  J. Gomes,  J. Gonthier,  A. Gunina,  
 D. Hait,  M. W. D. Hanson-Heine,  P. H. P. Harbach,  A. W. Hauser,  
 J. E. Herr,  E. G. Hohenstein,  Z. C. Holden,  Kerwin Hui,  B. C. Huynh,  
 T.-C. Jagau,  Hyunjun Ji,  B. Kaduk,  K. Khistyaev,  Jaehoon Kim,  
 P. Klunzinger,  K. Koh,  D. Kosenkov,  L. Koulias,  T. Kowalczyk,  
 C. M. Krauter,  A. Kunitsa,  Ka Un Lao,  A. Laurent,  K. V. Lawler,  
 Joonho Lee,  D. Lefrancois,  S. Lehtola,  D. S. Levine,  Yi-Pei Li,  
 You-Sheng Lin,  Fenglai Liu,  E. Livshits,  A. Luenser,  P. Manohar,  
 E. Mansoor,  S. F. Manzer,  Shan-Ping Mao,  Yuezhi Mao,  N. Mardirossian,  
 A. V. Marenich,  T. Markovich,  L. A. Martinez-Martinez,  S. A. Maurer,  
 N. J. Mayhall,  S. C. McKenzie,  J.-M. Mewes,  A. F. Morrison,  
 J. W. Mullinax,  K. Nanda,  T. S. Nguyen-Beck,  R. Olivares-Amaya,  
 J. A. Parkhill,  T. M. Perrine,  F. Plasser,  P. Pokhilko,  S. Prager,  
 A. Prociuk,  E. Ramos,  D. R. Rehn,  F. Rob,  M. Schneider,  N. Sergueev,  
 S. M. Sharada,  S. Sharma,  D. W. Small,  T. Stauch,  T. Stein,  
 Yu-Chuan Su,  A. J. W. Thom,  A. Tkatchenko,  T. Tsuchimochi,  N. M. Tubman,  
 L. Vogt,  M. L. Vidal,  O. Vydrov,  M. A. Watson,  J. Wenzel,  
 M. de Wergifosse,  T. A. Wesolowski,  A. White,  J. Witte,  A. Yamada,  
 Jun Yang,  K. Yao,  S. Yeganeh,  S. R. Yost,  Zhi-Qiang You,  A. Zech,  
 Igor Ying Zhang,  Xing Zhang,  Yan Zhao,  Ying Zhu,  B. R. Brooks,  
 G. K. L. Chan,  C. J. Cramer,  M. S. Gordon,  W. J. Hehre,  A. Klamt,  
 M. W. Schmidt,  C. D. Sherrill,  D. G. Truhlar,  A. Aspuru-Guzik,  R. Baer,  
 A. T. Bell,  N. A. Besley,  Jeng-Da Chai,  A. E. DePrince, III,  
 R. A. DiStasio Jr.,  A. Dreuw,  B. D. Dunietz,  T. R. Furlani,  
 Chao-Ping Hsu,  Yousung Jung,  Jing Kong,  D. S. Lambrecht,  WanZhen Liang,  
 C. Ochsenfeld,  V. A. Rassolov,  L. V. Slipchenko,  J. E. Subotnik,  
 T. Van Voorhis,  J. M. Herbert,  A. I. Krylov,  P. M. W. Gill,  M. Head-Gordon

 Contributors to earlier versions of Q-Chem not listed above: 
 R. D. Adamson,  B. Austin,  J. Baker,  G. J. O. Beran,  K. Brandhorst,  
 S. T. Brown,  E. F. C. Byrd,  A. K. Chakraborty,  C.-L. Cheng,  
 Siu Hung Chien,  D. M. Chipman,  D. L. Crittenden,  H. Dachsel,  
 R. J. Doerksen,  A. D. Dutoi,  L. Fusti-Molnar,  W. A. Goddard III,  
 A. Golubeva-Zadorozhnaya,  S. R. Gwaltney,  G. Hawkins,  A. Heyden,  
 S. Hirata,  G. Kedziora,  F. J. Keil,  C. Kelley,  Jihan Kim,  R. A. King,  
 R. Z. Khaliullin,  P. P. Korambath,  W. Kurlancheek,  A. M. Lee,  M. S. Lee,  
 S. V. Levchenko,  Ching Yeh Lin,  D. Liotard,  R. C. Lochan,  I. Lotan,  
 P. E. Maslen,  N. Nair,  D. P. O'Neill,  D. Neuhauser,  E. Neuscamman,  
 C. M. Oana,  R. Olson,  B. Peters,  R. Peverati,  P. A. Pieniazek,  
 Y. M. Rhee,  J. Ritchie,  M. A. Rohrdanz,  E. Rosta,  N. J. Russ,  
 H. F. Schaefer III,  N. E. Schultz,  N. Shenvi,  A. C. Simmonett,  A. Sodt,  
 D. Stuck,  K. S. Thanthiriwatte,  V. Vanovschi,  Tao Wang,  A. Warshel,  
 C. F. Williams,  Q. Wu,  X. Xu,  W. Zhang

 Please cite Q-Chem as follows:
 Y. Shao et al., Mol. Phys. 113, 184-215 (2015)
 DOI: 10.1080/00268976.2014.952696

 Q-Chem 5.1.1 for Intel X86 EM64T Linux

 Parts of Q-Chem use Armadillo 8.300.2 (Tropical Shenanigans).
 http://arma.sourceforge.net/

 Q-Chem begins on Wed Mar 13 16:21:23 2019  

Host: 
0

     Scratch files written to /staging/scratch/2868765/qchem22576//
 Aug318 |scratch|qcdevops|jenkins|workspace|build_RNUM 6013   
Processing $rem in /usr/usc/qchem/5.1.1/config/preferences.
 MEM_TOTAL  2000 
Input Ideriv = 2
Curr. Ideriv = -1
Max.  Ideriv = 2

Checking the input file for inconsistencies... 	...done.

--------------------------------------------------------------
User input:
--------------------------------------------------------------

$comment
potential surface scanner
$end

$rem
JOBTYPE  PES_SCAN
UNRESTRICTED TRUE
SYM_IGNORE  TRUE
GEOM_OPT_MAX_CYCLES 400
SCF_MAX_CYCLES 400
METHOD   B3LYP
BASIS   6-31G**
PDB_PRINT 2
SCF_CONVERGENCE 6
THRESH 14
SCF_PRINT 1
$end
$molecule
0 1
C -1.730200 1.249200 0.145700
C -1.070500 -0.000000 -0.441800
Se 0.838900 0.000000 0.000600
H 0.783300 0.000000 1.559600
C -1.730200 -1.249200 0.145700
H -1.260200 2.139200 -0.272800
H -2.792000 1.249200 -0.100300
H -1.608100 1.249200 1.228900
H -1.192500 -0.000000 -1.524900
H -2.792000 -1.249200 -0.100300
H -1.260200 -2.139200 -0.272800
H -1.608100 -1.249200 1.228900
$end
$scan
stre 3 4 0.900000 0.901000 0.100000
$end
--------------------------------------------------------------
 ----------------------------------------------------------------
             Standard Nuclear Orientation (Angstroms)
    I     Atom           X                Y                Z
 ----------------------------------------------------------------
    1      C      -1.7302000000     1.2492000000     0.1457000000
    2      C      -1.0705000000     0.0000000000    -0.4418000000
    3      Se      0.8389000000     0.0000000000     0.0006000000
    4      H       0.7833000000     0.0000000000     1.5596000000
    5      C      -1.7302000000    -1.2492000000     0.1457000000
    6      H      -1.2602000000     2.1392000000    -0.2728000000
    7      H      -2.7920000000     1.2492000000    -0.1003000000
    8      H      -1.6081000000     1.2492000000     1.2289000000
    9      H      -1.1925000000     0.0000000000    -1.5249000000
   10      H      -2.7920000000    -1.2492000000    -0.1003000000
   11      H      -1.2602000000    -2.1392000000    -0.2728000000
   12      H      -1.6081000000    -1.2492000000     1.2289000000
 ----------------------------------------------------------------
 Nuclear Repulsion Energy =   262.3907289757 hartrees
 There are       30 alpha and       30 beta electrons
 Requested basis set is 6-31G(d,p)
 There are 44 shells and 120 basis functions

 Total QAlloc Memory Limit   2000 MB
 Mega-Array Size       188 MB
 MEM_STATIC part       192 MB
A total of 1 constraints
  
            1
    1   1.0100000
    2   3.0100000
    3   4.0100000
    4   0.9000000
    5   0.9010000
    6   0.1000000
    7   0.0000000
    8   0.0000000
    9   0.0000000
   10   0.0000000

                       Distance Matrix (Angstroms)
             C (  1)   C (  2)   Se(  3)   H (  4)   C (  5)   H (  6)
   C (  2)  1.529987
   Se(  3)  2.860390  1.959981
   H (  4)  3.142817  2.728035  1.559991
   C (  5)  2.498400  1.529987  2.860390  3.142817
   H (  6)  1.090019  2.154234  3.009509  3.479908  3.446345
   H (  7)  1.089924  2.154225  3.841109  4.135038  2.725791  1.779963
   H (  8)  1.090060  2.154241  3.009490  2.718208  2.725845  1.779954
   H (  9)  2.154188  1.089949  2.540420  3.663049  2.154188  2.479620
   H ( 10)  2.725791  2.154225  3.841109  4.135038  1.089924  3.722556
   H ( 11)  3.446345  2.154234  3.009509  3.479908  1.090019  4.278400
   H ( 12)  2.725845  2.154241  3.009490  2.718208  1.090060  3.722552
             H (  7)   H (  8)   H (  9)   H ( 10)   H ( 11)
   H (  8)  1.779998
   H (  9)  2.479594  3.052317
   H ( 10)  2.498400  3.067637  2.479594
   H ( 11)  3.722556  3.722552  2.479620  1.779963
   H ( 12)  3.067637  2.498400  3.052317  1.779998  1.779954
 
 A cutoff of  1.0D-14 yielded    970 shell pairs
 There are      7307 function pairs
 
 -------------------------------------------------------
 OpenMP Integral Computing Module                       
 Release: version 1.0, May 2013, Q-Chem Inc. Pittsburgh 
 -------------------------------------------------------
 Integral Job Info:
 Integral job number is                      11
 Integral operator is                         1
 short-range coefficients                     0
 long-range coefficients              100000000
 Omega coefficients                           0
 if combine SR and LR in K                    0
 Integral screening is                        0
 Integral computing path is                   2
 max size of driver memory is            800000
 size of driver memory is                593474
 size of scratch memory is             15267112
 max col of scratch BK array               1296
 max len of scratch array in speh3          155
 max len of scratch index in speh4           18
 max int batch size is                      520
 min int batch size is                       52
 fixed nKL is                                52
 max L of basis functions is                  2
 order of int derivative is                   0
 number of shells is                         44
 number of basis is                         120
 number of cartesian basis is               120
 number of contracted shell pairs           970
 number of primitive shell pairs           3688
 maxK2 (contraction) of shell pair           36
 max number of K2 of shell pair               1
 max number of CS2 of shell pair             86
 max number of PS2 of shell pair            288
 mem total for path MDJ                  519708
 -------------------------------------------------------
 Smallest overlap matrix eigenvalue = 6.74E-04

 Scale SEOQF with 1.000000e-01/1.000000e-01/1.000000e-01

 Standard Electronic Orientation quadrupole field applied
 Nucleus-field energy     =     0.0000000047 hartrees
 Guess from superposition of atomic densities
 Warning:  Energy on first SCF cycle will be non-variational
 SAD guess density has 59.968191 electrons

 -----------------------------------------------------------------------
  General SCF calculation program by
  Eric Jon Sundstrom, Paul Horn, Yuezhi Mao, Dmitri Zuev, Alec White,
  David Stuck, Shaama M.S., Shane Yost, Joonho Lee, David Small,
  Daniel Levine, Susi Lehtola, Hugh Burton, Evgeny Epifanovsky
 -----------------------------------------------------------------------
 Exchange:     0.2000 Hartree-Fock + 0.0800 Slater + 0.7200 B88
 Correlation:  0.1900 VWN1RPA + 0.8100 LYP
 Using SG-1 standard quadrature grid
 using 12 threads for integral computing
 -------------------------------------------------------
 OpenMP Integral computing Module                
 Release: version 1.0, May 2013, Q-Chem Inc. Pittsburgh 
 -------------------------------------------------------
 -------------------------------------------------------
 OpenMP BLAS3 based DFT computing Module                
 Release: version 1.0, May 2013, Q-Chem Inc. Pittsburgh 
 -------------------------------------------------------
 A unrestricted SCF calculation will be
 performed using DIIS
 SCF converges when DIIS error is below 1.0e-06
 Alpha HF Exchange    Energy = -10.36874540746125
 Beta HF Exchange     Energy = -10.36874540746125
 DFT Correlation      Energy =  -3.09228192288524
 DFT Exchange         Energy = -82.03653711550896
 One-Electron (alpha) Energy = -2009.55236640785802
 One-Electron (beta)  Energy = -2009.55236640785802
 Total Coulomb        Energy = 1339.16670206529102
 ---------------------------------------
  Cycle       Energy         DIIS error
 ---------------------------------------
    1   -2523.4136116233      1.39e-01  
 Alpha HF Exchange    Energy = -10.42400060729062
 Beta HF Exchange     Energy = -10.42400060729061
 DFT Correlation      Energy =  -3.13484673835002
 DFT Exchange         Energy = -82.94792493966037
 One-Electron (alpha) Energy = -2016.85158295230644
 One-Electron (beta)  Energy = -2016.85158295230644
 Total Coulomb        Energy = 1357.93243274700080
    2   -2520.3107770698      8.94e-03  
 Alpha HF Exchange    Energy = -10.32263851748537
 Beta HF Exchange     Energy = -10.32263851748535
 DFT Correlation      Energy =  -3.09641071369595
 DFT Exchange         Energy = -82.12235611458999
 One-Electron (alpha) Energy = -2006.72609743933731
 One-Electron (beta)  Energy = -2006.72609743933526
 Total Coulomb        Energy = 1336.63308268278934
    3   -2520.2924270787      4.66e-03  
 Alpha HF Exchange    Energy = -10.40252805813652
 Beta HF Exchange     Energy = -10.40252805813652
 DFT Correlation      Energy =  -3.12718366955655
 DFT Exchange         Energy = -82.76945322803127
 One-Electron (alpha) Energy = -2014.65685855634752
 One-Electron (beta)  Energy = -2014.65685855634615
 Total Coulomb        Energy = 1353.23722484059840
    4   -2520.3874563056      2.73e-03  
 Alpha HF Exchange    Energy = -10.37625005826879
 Beta HF Exchange     Energy = -10.37625005826881
 DFT Correlation      Energy =  -3.11657288640097
 DFT Exchange         Energy = -82.55467574084255
 One-Electron (alpha) Energy = -2012.31678513839324
 One-Electron (beta)  Energy = -2012.31678513839415
 Total Coulomb        Energy = 1348.23168865229968
    5   -2520.4349013879      5.97e-04  
 Alpha HF Exchange    Energy = -10.37477428272580
 Beta HF Exchange     Energy = -10.37477428272580
 DFT Correlation      Energy =  -3.11666366167576
 DFT Exchange         Energy = -82.54457592049707
 One-Electron (alpha) Energy = -2012.07953988894906
 One-Electron (beta)  Energy = -2012.07953988894928
 Total Coulomb        Energy = 1347.74162241860358
    6   -2520.4375165265      7.75e-05  
 Alpha HF Exchange    Energy = -10.37443569580121
 Beta HF Exchange     Energy = -10.37443569580121
 DFT Correlation      Energy =  -3.11640954329291
 DFT Exchange         Energy = -82.54156455530480
 One-Electron (alpha) Energy = -2012.03383016436851
 One-Electron (beta)  Energy = -2012.03383016436737
 Total Coulomb        Energy = 1347.64622187471105
    7   -2520.4375549638      1.30e-05  
 Alpha HF Exchange    Energy = -10.37450078887117
 Beta HF Exchange     Energy = -10.37450078887117
 DFT Correlation      Energy =  -3.11643318782391
 DFT Exchange         Energy = -82.54207605974767
 One-Electron (alpha) Energy = -2012.04999730789064
 One-Electron (beta)  Energy = -2012.04999730789086
 Total Coulomb        Energy = 1347.67921984171926
    8   -2520.4375566190      5.21e-06  
 Alpha HF Exchange    Energy = -10.37448676446538
 Beta HF Exchange     Energy = -10.37448676446538
 DFT Correlation      Energy =  -3.11643414080605
 DFT Exchange         Energy = -82.54197682082905
 One-Electron (alpha) Energy = -2012.04594259482565
 One-Electron (beta)  Energy = -2012.04594259482565
 Total Coulomb        Energy = 1347.67098390690012
    9   -2520.4375567929      9.33e-07  Convergence criterion met
 ---------------------------------------
 SCF time:   CPU 30.66s  wall 3.00s 
<S^2> =         -0.000000000
 Alpha HF Exchange    Energy = -10.37448676446538
 Beta HF Exchange     Energy = -10.37448676446538
 DFT Correlation      Energy =  -3.11643414080605
 DFT Exchange         Energy = -82.54197682082905
 One-Electron (alpha) Energy = -2012.04594259482565
 One-Electron (beta)  Energy = -2012.04594259482565
 Total Coulomb        Energy = 1347.67098390690012
 Nuclear repulsion Energy = 262.39072898040314
 SCF   energy in the final basis set =    -2520.4375567929
 Total energy in the final basis set =    -2520.4375567929
 
 --------------------------------------------------------------
 
                    Orbital Energies (a.u.)
 --------------------------------------------------------------
 
 Alpha MOs
 -- Occupied --
******* -58.085 -52.142 -52.141 -52.139 -10.225 -10.182 -10.182
 -7.818  -5.764  -5.759  -5.750  -2.097  -2.097  -2.089  -2.085
 -2.084  -0.811  -0.692  -0.681  -0.576  -0.464  -0.443  -0.415
 -0.395  -0.375  -0.353  -0.346  -0.296  -0.220
 -- Virtual --
  0.010   0.030   0.092   0.130   0.151   0.153   0.168   0.184
  0.192   0.205   0.224   0.237   0.286   0.328   0.334   0.465
  0.465   0.494   0.512   0.570   0.580   0.656   0.679   0.686
  0.711   0.744   0.773   0.796   0.841   0.868   0.869   0.894
  0.906   0.931   0.952   0.963   1.004   1.104   1.327   1.354
  1.404   1.505   1.557   1.643   1.785   1.802   1.831   1.884
  1.903   2.031   2.036   2.047   2.067   2.074   2.091   2.092
  2.104   2.118   2.271   2.329   2.360   2.395   2.522   2.553
  2.565   2.635   2.676   2.682   2.708   2.871   2.884   2.896
  2.910   3.191   3.245   3.316   3.417   3.451   3.465   3.512
  4.251   4.284   4.343   4.373   4.407   4.492   4.527   4.642
  5.477  89.785
 
 Beta MOs
 -- Occupied --
******* -58.085 -52.142 -52.141 -52.139 -10.225 -10.182 -10.182
 -7.818  -5.764  -5.759  -5.750  -2.097  -2.097  -2.089  -2.085
 -2.084  -0.811  -0.692  -0.681  -0.576  -0.464  -0.443  -0.415
 -0.395  -0.375  -0.353  -0.346  -0.296  -0.220
 -- Virtual --
  0.010   0.030   0.092   0.130   0.151   0.153   0.168   0.184
  0.192   0.205   0.224   0.237   0.286   0.328   0.334   0.465
  0.465   0.494   0.512   0.570   0.580   0.656   0.679   0.686
  0.711   0.744   0.773   0.796   0.841   0.868   0.869   0.894
  0.906   0.931   0.952   0.963   1.004   1.104   1.327   1.354
  1.404   1.505   1.557   1.643   1.785   1.802   1.831   1.884
  1.903   2.031   2.036   2.047   2.067   2.074   2.091   2.092
  2.104   2.118   2.271   2.329   2.360   2.395   2.522   2.553
  2.565   2.635   2.676   2.682   2.708   2.871   2.884   2.896
  2.910   3.191   3.245   3.316   3.417   3.451   3.465   3.512
  4.251   4.284   4.343   4.373   4.407   4.492   4.527   4.642
  5.477  89.785
 --------------------------------------------------------------
 
          Ground-State Mulliken Net Atomic Charges

     Atom                 Charge (a.u.)    Spin (a.u.)
  --------------------------------------------------------
      1 C                    -0.295010       0.000000
      2 C                    -0.152384       0.000000
      3 Se                   -0.094480      -0.000000
      4 H                     0.042859       0.000000
      5 C                    -0.295010       0.000000
      6 H                     0.122135       0.000000
      7 H                     0.101155       0.000000
      8 H                     0.108279       0.000000
      9 H                     0.130887      -0.000000
     10 H                     0.101155       0.000000
     11 H                     0.122135       0.000000
     12 H                     0.108279      -0.000000
  --------------------------------------------------------
  Sum of atomic charges =    -0.000000
  Sum of spin   charges =    -0.000000

 -----------------------------------------------------------------
                    Cartesian Multipole Moments
 -----------------------------------------------------------------
    Charge (ESU x 10^10)
                -0.0000
    Dipole Moment (Debye)
         X      -1.7510      Y      -0.0000      Z       0.2382
       Tot       1.7671
    Quadrupole Moments (Debye-Ang)
        XX     -39.1891     XY       0.0000     YY     -41.4774
        XZ       1.5625     YZ       0.0000     ZZ     -36.7141
    Octopole Moments (Debye-Ang^2)
       XXX      47.0455    XXY      -0.0000    XYY      14.4440
       YYY      -0.0000    XXZ      -0.8815    XYZ       0.0000
       YYZ      -1.7755    XZZ      16.8874    YZZ      -0.0000
       ZZZ      -1.5700
    Hexadecapole Moments (Debye-Ang^3)
      XXXX    -449.5869   XXXY       0.0000   XXYY    -118.5745
      XYYY       0.0000   YYYY    -216.3825   XXXZ       6.8193
      XXYZ       0.0000   XYYZ       1.0249   YYYZ      -0.0000
      XXZZ     -89.6006   XYZZ       0.0000   YYZZ     -51.1667
      XZZZ       1.9562   YZZZ      -0.0000   ZZZZ     -79.2130
 -----------------------------------------------------------------
 Calculating analytic gradient of the SCF energy
 Gradient of SCF Energy
            1           2           3           4           5           6
    1  -0.0054318   0.0190443  -0.0221925   0.0070985  -0.0054318   0.0019263
    2   0.0005657   0.0000000   0.0000000   0.0000000  -0.0005657  -0.0043213
    3   0.0089295  -0.0250746  -0.0129772   0.0271283   0.0089295  -0.0022869
            7           8           9          10          11          12
    1   0.0047275   0.0018519  -0.0100982   0.0047275   0.0019263   0.0018519
    2  -0.0022684  -0.0028548   0.0000000   0.0022684   0.0043213   0.0028548
    3  -0.0007447  -0.0024153   0.0039583  -0.0007447  -0.0022869  -0.0024153
 Max gradient component =       2.713E-02
 RMS gradient           =       9.009E-03
 Gradient time:  CPU 12.28 s  wall 1.08 s
 Geometry Optimization Parameters
   NAtoms,    NIC,     NZ,  NCons,   NDum,   NFix, NCnnct, MaxDiis
       12      75       0       1       0       0       0       0


** CONSTRAINED OPTIMIZATION IN DELOCALIZED INTERNAL COORDINATES **
   Searching for a Minimum

   Optimization Cycle:   1

                       Coordinates (Angstroms)
     ATOM                X               Y               Z
      1  C        -1.7302000000    1.2492000000    0.1457000000
      2  C        -1.0705000000    0.0000000000   -0.4418000000
      3  Se        0.8389000000    0.0000000000    0.0006000000
      4  H         0.7833000000    0.0000000000    1.5596000000
      5  C        -1.7302000000   -1.2492000000    0.1457000000
      6  H        -1.2602000000    2.1392000000   -0.2728000000
      7  H        -2.7920000000    1.2492000000   -0.1003000000
      8  H        -1.6081000000    1.2492000000    1.2289000000
      9  H        -1.1925000000    0.0000000000   -1.5249000000
     10  H        -2.7920000000   -1.2492000000   -0.1003000000
     11  H        -1.2602000000   -2.1392000000   -0.2728000000
     12  H        -1.6081000000   -1.2492000000    1.2289000000
   Point Group: c1    Number of degrees of freedom:    30


   Energy is  -2520.437556793

              Constraints and their Current Values
                                        Value     Constraint
   Distance(Angs):        3   4             1.559991     0.900000

 Attempting to Generate Delocalized Internal Coordinates
**WARNING** Constraint Gradient Reduced for constraint   1

   Using Lagrange Multiplier Algorithm


 26 Hessian modes will be used to form the next step
  Hessian Eigenvalues:
    -0.930227    0.045000    0.077216    0.080533    0.084997    0.084997
     0.085005    0.085005    0.160000    0.160000    0.160000    0.160000
     0.160000    0.160000    0.160000    0.166951    0.202570    0.294246
     0.348057    0.348057    0.348104    0.348104    0.348185    0.348214
     0.348214    1.075006

 Minimum Search - Taking P-RFO Step
 Searching for Lamda that Maximizes Along the Constraint modes Only
 Value Taken    Lamda =   0.04172456
 Searching for Lamda that Minimizes Along All other modes
 Value Taken    Lamda =  -0.05158590
 Calculated Step too Large.  Step scaled by  0.861268
 Step Taken.  Stepsize is  0.300000

                             Maximum     Tolerance    Cnvgd?
         Gradient            0.300000       0.000300      NO
         Displacement        0.246913       0.001200      NO
         Energy change     *********       0.000001      NO


 New Cartesian Coordinates Obtained by Inverse Iteration

 Displacement from previous Coordinates is:  0.365323
 ----------------------------------------------------------------
             Standard Nuclear Orientation (Angstroms)
    I     Atom           X                Y                Z
 ----------------------------------------------------------------
    1      C      -1.7268016147     1.2646994867     0.1537442058
    2      C      -1.0542448398     0.0000000000    -0.4104443644
    3      Se      0.8854332046     0.0000000000     0.0064714750
    4      H       0.7191310155     0.0000000000     1.4260945063
    5      C      -1.7268016147    -1.2646994867     0.1537442058
    6      H      -1.2631101113     2.1664957677    -0.2517540919
    7      H      -2.7902825579     1.2708050545    -0.1069513055
    8      H      -1.6348716146     1.2877720840     1.2421796815
    9      H      -1.1419875835     0.0000000000    -1.5000585967
   10      H      -2.7902825579    -1.2708050545    -0.1069513055
   11      H      -1.2631101113    -2.1664957677    -0.2517540919
   12      H      -1.6348716146    -1.2877720840     1.2421796815
 ----------------------------------------------------------------
 Nuclear Repulsion Energy =   260.6524177717 hartrees
 There are       30 alpha and       30 beta electrons

                       Distance Matrix (Angstroms)
             C (  1)   C (  2)   Se(  3)   H (  4)   C (  5)   H (  6)
   C (  2)  1.539515
   Se(  3)  2.906015  1.983978
   H (  4)  3.033303  2.552986  1.429331
   C (  5)  2.529399  1.539515  2.906015  3.033303
   H (  6)  1.092097  2.182318  3.062127  3.382035  3.486049
   H (  7)  1.094985  2.172759  3.890848  4.034992  2.761836  1.776369
   H (  8)  1.092554  2.174086  3.088247  2.689519  2.776374  1.772625
   H (  9)  2.162530  1.093141  2.525880  3.467872  2.162530  2.503326
   H ( 10)  2.761836  2.172759  3.890848  4.034992  1.094985  3.764075
   H ( 11)  3.486049  2.182318  3.062127  3.382035  1.092097  4.332992
   H ( 12)  2.776374  2.174086  3.088247  2.689519  1.092554  3.781800
             H (  7)   H (  8)   H (  9)   H ( 10)   H ( 11)
   H (  8)  1.776349
   H (  9)  2.504510  3.069391
   H ( 10)  2.541610  3.114714  2.504510
   H ( 11)  3.764075  3.781800  2.503326  1.776369
   H ( 12)  3.114714  2.575544  3.069391  1.776349  1.772625
 
 Applying Cartesian multipole field
    Component          Value
    ---------          -----
     (2,0,0)        1.00000E-11
     (0,2,0)        2.00000E-11
     (0,0,2)       -3.00000E-11
 Nucleus-field energy     =     0.0000000050 hartrees
 Requested basis set is 6-31G(d,p)
 There are 44 shells and 120 basis functions
 A cutoff of  1.0D-14 yielded    964 shell pairs
 There are      7253 function pairs
 Smallest overlap matrix eigenvalue = 6.74E-04
 Guess from superposition of atomic densities
 Warning:  Energy on first SCF cycle will be non-variational
 SAD guess density has 59.968191 electrons

 -----------------------------------------------------------------------
  General SCF calculation program by
  Eric Jon Sundstrom, Paul Horn, Yuezhi Mao, Dmitri Zuev, Alec White,
  David Stuck, Shaama M.S., Shane Yost, Joonho Lee, David Small,
  Daniel Levine, Susi Lehtola, Hugh Burton, Evgeny Epifanovsky
 -----------------------------------------------------------------------
 Exchange:     0.2000 Hartree-Fock + 0.0800 Slater + 0.7200 B88
 Correlation:  0.1900 VWN1RPA + 0.8100 LYP
 Using SG-1 standard quadrature grid
 using 12 threads for integral computing
 -------------------------------------------------------
 OpenMP Integral computing Module                
 Release: version 1.0, May 2013, Q-Chem Inc. Pittsburgh 
 -------------------------------------------------------
 -------------------------------------------------------
 OpenMP BLAS3 based DFT computing Module                
 Release: version 1.0, May 2013, Q-Chem Inc. Pittsburgh 
 -------------------------------------------------------
 A unrestricted SCF calculation will be
 performed using DIIS
 SCF converges when DIIS error is below 1.0e-06
 Alpha HF Exchange    Energy = -10.36811260431738
 Beta HF Exchange     Energy = -10.36811260431738
 DFT Correlation      Energy =  -3.09206861860102
 DFT Exchange         Energy = -82.03845062222700
 One-Electron (alpha) Energy = -2007.78372235183542
 One-Electron (beta)  Energy = -2007.78372235183542
 Total Coulomb        Energy = 1337.36451598062899
 ---------------------------------------
  Cycle       Energy         DIIS error
 ---------------------------------------
    1   -2523.4172553958      1.39e-01  
 Alpha HF Exchange    Energy = -10.42449543584519
 Beta HF Exchange     Energy = -10.42449543584520
 DFT Correlation      Energy =  -3.13438124477544
 DFT Exchange         Energy = -82.94997769743925
 One-Electron (alpha) Energy = -2014.99996340361668
 One-Electron (beta)  Energy = -2014.99996340361713
 Total Coulomb        Energy = 1355.95741016997204
    2   -2520.3234486745      8.90e-03  
 Alpha HF Exchange    Energy = -10.32565372081844
 Beta HF Exchange     Energy = -10.32565372081844
 DFT Correlation      Energy =  -3.09759461215732
 DFT Exchange         Energy = -82.14403804790363
 One-Electron (alpha) Energy = -2005.42367637486495
 One-Electron (beta)  Energy = -2005.42367637486473
 Total Coulomb        Energy = 1335.77303610055014
    3   -2520.3148389742      4.44e-03  
 Alpha HF Exchange    Energy = -10.40264241999779
 Beta HF Exchange     Energy = -10.40264241999778
 DFT Correlation      Energy =  -3.12666784028860
 DFT Exchange         Energy = -82.76836528773183
 One-Electron (alpha) Energy = -2012.68712723826366
 One-Electron (beta)  Energy = -2012.68712723826252
 Total Coulomb        Energy = 1351.02477452136577
    4   -2520.3973801465      2.64e-03  
 Alpha HF Exchange    Energy = -10.37755081442239
 Beta HF Exchange     Energy = -10.37755081442239
 DFT Correlation      Energy =  -3.11659600842070
 DFT Exchange         Energy = -82.56251334927030
 One-Electron (alpha) Energy = -2010.66166990947909
 One-Electron (beta)  Energy = -2010.66166990947841
 Total Coulomb        Energy = 1346.66465414596632
    5   -2520.4404788829      5.87e-04  
 Alpha HF Exchange    Energy = -10.37598146936285
 Beta HF Exchange     Energy = -10.37598146936284
 DFT Correlation      Energy =  -3.11673592243289
 DFT Exchange         Energy = -82.55185217595687
 One-Electron (alpha) Energy = -2010.38888001526539
 One-Electron (beta)  Energy = -2010.38888001526402
 Total Coulomb        Energy = 1346.10291896040189
    6   -2520.4429743306      7.43e-05  
 Alpha HF Exchange    Energy = -10.37553293006641
 Beta HF Exchange     Energy = -10.37553293006642
 DFT Correlation      Energy =  -3.11646068936196
 DFT Exchange         Energy = -82.54799757426146
 One-Electron (alpha) Energy = -2010.32472984452966
 One-Electron (beta)  Energy = -2010.32472984452966
 Total Coulomb        Energy = 1345.96955435456562
    7   -2520.4430116816      1.69e-05  
 Alpha HF Exchange    Energy = -10.37561884484856
 Beta HF Exchange     Energy = -10.37561884484855
 DFT Correlation      Energy =  -3.11647620680353
 DFT Exchange         Energy = -82.54865446811360
 One-Electron (alpha) Energy = -2010.34535735993450
 One-Electron (beta)  Energy = -2010.34535735993268
 Total Coulomb        Energy = 1346.01165142241734
    8   -2520.4430138854      8.17e-06  
 Alpha HF Exchange    Energy = -10.37560422672092
 Beta HF Exchange     Energy = -10.37560422672092
 DFT Correlation      Energy =  -3.11648028727362
 DFT Exchange         Energy = -82.54855312980283
 One-Electron (alpha) Energy = -2010.34204608363780
 One-Electron (beta)  Energy = -2010.34204608363780
 Total Coulomb        Energy = 1346.00490198890247
    9   -2520.4430142722      6.12e-07  Convergence criterion met
 ---------------------------------------
 SCF time:   CPU 30.06s  wall 2.00s 
<S^2> =         -0.000000000
 Alpha HF Exchange    Energy = -10.37560422672092
 Beta HF Exchange     Energy = -10.37560422672092
 DFT Correlation      Energy =  -3.11648028727362
 DFT Exchange         Energy = -82.54855312980283
 One-Electron (alpha) Energy = -2010.34204608363780
 One-Electron (beta)  Energy = -2010.34204608363780
 Total Coulomb        Energy = 1346.00490198890247
 Nuclear repulsion Energy = 260.65241777665972
 SCF   energy in the final basis set =    -2520.4430142722
 Total energy in the final basis set =    -2520.4430142722
 
 --------------------------------------------------------------
 
                    Orbital Energies (a.u.)
 --------------------------------------------------------------
 
 Alpha MOs
 -- Occupied --
******* -58.082 -52.139 -52.138 -52.135 -10.227 -10.184 -10.184
 -7.815  -5.761  -5.757  -5.747  -2.095  -2.094  -2.086  -2.083
 -2.081  -0.805  -0.691  -0.689  -0.578  -0.460  -0.441  -0.413
 -0.393  -0.380  -0.349  -0.348  -0.301  -0.221
 -- Virtual --
  0.012   0.061   0.093   0.130   0.148   0.152   0.170   0.182
  0.189   0.197   0.225   0.235   0.282   0.327   0.328   0.458
  0.464   0.497   0.509   0.566   0.578   0.666   0.681   0.683
  0.705   0.754   0.772   0.791   0.832   0.868   0.869   0.901
  0.906   0.927   0.949   0.958   1.066   1.107   1.323   1.365
  1.390   1.494   1.548   1.648   1.778   1.781   1.820   1.867
  1.887   2.035   2.039   2.052   2.073   2.089   2.099   2.099
  2.113   2.135   2.270   2.323   2.345   2.381   2.521   2.559
  2.619   2.657   2.664   2.695   2.717   2.865   2.872   2.891
  2.898   3.176   3.227   3.316   3.415   3.446   3.460   3.503
  4.243   4.288   4.342   4.357   4.410   4.482   4.517   4.631
  5.485  89.808
 
 Beta MOs
 -- Occupied --
******* -58.082 -52.139 -52.138 -52.135 -10.227 -10.184 -10.184
 -7.815  -5.761  -5.757  -5.747  -2.095  -2.094  -2.086  -2.083
 -2.081  -0.805  -0.691  -0.689  -0.578  -0.460  -0.441  -0.413
 -0.393  -0.380  -0.349  -0.348  -0.301  -0.221
 -- Virtual --
  0.012   0.061   0.093   0.130   0.148   0.152   0.170   0.182
  0.189   0.197   0.225   0.235   0.282   0.327   0.328   0.458
  0.464   0.497   0.509   0.566   0.578   0.666   0.681   0.683
  0.705   0.754   0.772   0.791   0.832   0.868   0.869   0.901
  0.906   0.927   0.949   0.958   1.066   1.107   1.323   1.365
  1.390   1.494   1.548   1.648   1.778   1.781   1.820   1.867
  1.887   2.035   2.039   2.052   2.073   2.089   2.099   2.099
  2.113   2.135   2.270   2.323   2.345   2.381   2.521   2.559
  2.619   2.657   2.664   2.695   2.717   2.865   2.872   2.891
  2.898   3.176   3.227   3.316   3.415   3.446   3.460   3.503
  4.243   4.288   4.342   4.357   4.410   4.482   4.517   4.631
  5.485  89.808
 --------------------------------------------------------------
 
          Ground-State Mulliken Net Atomic Charges

     Atom                 Charge (a.u.)    Spin (a.u.)
  --------------------------------------------------------
      1 C                    -0.300194      -0.000000
      2 C                    -0.148295      -0.000000
      3 Se                   -0.099640       0.000000
      4 H                     0.053651      -0.000000
      5 C                    -0.300194      -0.000000
      6 H                     0.123015       0.000000
      7 H                     0.102948       0.000000
      8 H                     0.107552      -0.000000
      9 H                     0.127642       0.000000
     10 H                     0.102948       0.000000
     11 H                     0.123015       0.000000
     12 H                     0.107552       0.000000
  --------------------------------------------------------
  Sum of atomic charges =    -0.000000
  Sum of spin   charges =     0.000000

 -----------------------------------------------------------------
                    Cartesian Multipole Moments
 -----------------------------------------------------------------
    Charge (ESU x 10^10)
                 0.0000
    Dipole Moment (Debye)
         X      -1.7400      Y      -0.0000      Z       0.3181
       Tot       1.7688
    Quadrupole Moments (Debye-Ang)
        XX     -39.1177     XY       0.0000     YY     -41.1536
        XZ       1.3626     YZ       0.0000     ZZ     -36.7964
    Octopole Moments (Debye-Ang^2)
       XXX      44.6064    XXY      -0.0000    XYY      13.0923
       YYY       0.0000    XXZ      -0.8849    XYZ      -0.0000
       YYZ      -1.7612    XZZ      16.2783    YZZ      -0.0000
       ZZZ      -2.1089
    Hexadecapole Moments (Debye-Ang^3)
      XXXX    -455.5734   XXXY       0.0000   XXYY    -119.5461
      XYYY      -0.0000   YYYY    -219.5060   XXXZ       8.3620
      XXYZ       0.0000   XYYZ       1.5208   YYYZ       0.0000
      XXZZ     -90.3664   XYZZ       0.0000   YYZZ     -51.2042
      XZZZ       3.0310   YZZZ      -0.0000   ZZZZ     -76.0883
 -----------------------------------------------------------------
 Calculating analytic gradient of the SCF energy
 Gradient of SCF Energy
            1           2           3           4           5           6
    1  -0.0047783   0.0151243  -0.0097231   0.0043163  -0.0047783   0.0005595
    2   0.0027319  -0.0000000  -0.0000000   0.0000000  -0.0027319  -0.0011430
    3   0.0061233  -0.0140530   0.0253121  -0.0192256   0.0061233  -0.0007815
            7           8           9          10          11          12
    1   0.0013528   0.0010759  -0.0061373   0.0013528   0.0005595   0.0010759
    2  -0.0003538  -0.0011066   0.0000000   0.0003538   0.0011430   0.0011066
    3  -0.0005381  -0.0013887   0.0011367  -0.0005381  -0.0007815  -0.0013887
 Max gradient component =       2.531E-02
 RMS gradient           =       6.956E-03
 Gradient time:  CPU 12.28 s  wall 1.07 s
 Geometry Optimization Parameters
   NAtoms,    NIC,     NZ,  NCons,   NDum,   NFix, NCnnct, MaxDiis
       12      75       0       1       0       0       0       0

 Cartesian Hessian Update
 Hessian Updated using BFGS Update


** CONSTRAINED OPTIMIZATION IN DELOCALIZED INTERNAL COORDINATES **
   Searching for a Minimum

   Optimization Cycle:   2

                       Coordinates (Angstroms)
     ATOM                X               Y               Z
      1  C        -1.7268016147    1.2646994867    0.1537442058
      2  C        -1.0542448398    0.0000000000   -0.4104443644
      3  Se        0.8854332046    0.0000000000    0.0064714750
      4  H         0.7191310155    0.0000000000    1.4260945063
      5  C        -1.7268016147   -1.2646994867    0.1537442058
      6  H        -1.2631101113    2.1664957677   -0.2517540919
      7  H        -2.7902825579    1.2708050545   -0.1069513055
      8  H        -1.6348716146    1.2877720840    1.2421796815
      9  H        -1.1419875835    0.0000000000   -1.5000585967
     10  H        -2.7902825579   -1.2708050545   -0.1069513055
     11  H        -1.2631101113   -2.1664957677   -0.2517540919
     12  H        -1.6348716146   -1.2877720840    1.2421796815
   Point Group: c1    Number of degrees of freedom:    30


   Energy is  -2520.443014272

              Constraints and their Current Values
                                        Value     Constraint
   Distance(Angs):        3   4             1.429331     0.900000
 Hessian Updated using BFGS Update
**WARNING** Constraint Gradient Reduced for constraint   1

   Using Lagrange Multiplier Algorithm


 18 Hessian modes will be used to form the next step
  Hessian Eigenvalues:
    -0.913228    0.045000    0.045000    0.076276    0.079105    0.084969
     0.085008    0.158352    0.162636    0.166224    0.174119    0.202730
     0.301368    0.347173    0.348117    0.348190    0.348323    1.095575

 Minimum Search - Taking P-RFO Step
 Searching for Lamda that Maximizes Along the Constraint modes Only
 Value Taken    Lamda =   0.05188851


 ********************************************
 ** ERROR IN DETERMINING Lamda IN CONFormD **
 ********************************************


 ** Scaling Hessian by  2.306167 **


 18 Hessian modes will be used to form the next step
  Hessian Eigenvalues:
    -0.812475    0.103777    0.103777    0.175898    0.182428    0.195953
     0.196042    0.365177    0.374904    0.383340    0.401547    0.467512
     0.693634    0.800630    0.802814    0.802984    0.803244    1.234622

 Minimum Search - Taking P-RFO Step
 Searching for Lamda that Maximizes Along the Constraint modes Only
 Value Taken    Lamda =   0.06302633
 Searching for Lamda that Minimizes Along All other modes
 Value Taken    Lamda =  -0.02847595
 Step Taken.  Stepsize is  0.290370

                             Maximum     Tolerance    Cnvgd?
         Gradient            0.300000       0.000300      NO
         Displacement        0.284200       0.001200      NO
         Energy change     -0.005457       0.000001      NO


 New Cartesian Coordinates Obtained by Inverse Iteration

 Displacement from previous Coordinates is:  0.259720
 ----------------------------------------------------------------
             Standard Nuclear Orientation (Angstroms)
    I     Atom           X                Y                Z
 ----------------------------------------------------------------
    1      C      -1.7291709475     1.2633371034     0.1593865774
    2      C      -1.0556587561     0.0000000000    -0.3841711699
    3      Se      0.8862085671     0.0000000000     0.0450563654
    4      H       0.7324034820     0.0000000000     1.3147130718
    5      C      -1.7291709475    -1.2633371034     0.1593865774
    6      H      -1.2560761519     2.1627518348    -0.2409873333
    7      H      -2.7883873871     1.2698322280    -0.1210861174
    8      H      -1.6625175255     1.2961797218     1.2511766298
    9      H      -1.1124492690     0.0000000000    -1.4760777803
   10      H      -2.7883873871    -1.2698322280    -0.1210861174
   11      H      -1.2560761519    -2.1627518348    -0.2409873334
   12      H      -1.6625175255    -1.2961797218     1.2511766298
 ----------------------------------------------------------------
 Nuclear Repulsion Energy =   262.2098372537 hartrees
 There are       30 alpha and       30 beta electrons

                       Distance Matrix (Angstroms)
             C (  1)   C (  2)   Se(  3)   H (  4)   C (  5)   H (  6)
   C (  2)  1.531370
   Se(  3)  2.906768  1.988740
   H (  4)  2.998358  2.466450  1.278939
   C (  5)  2.526674  1.531370  2.906768  2.998358
   H (  6)  1.092275  2.176732  3.057564  3.324417  3.481695
   H (  7)  1.095740  2.164263  3.891366  4.008736  2.759991  1.777543
   H (  8)  1.094316  2.173182  3.103355  2.723925  2.783447  1.772765
   H (  9)  2.156643  1.093382  2.511669  3.345444  2.156643  2.494709
   H ( 10)  2.759991  2.164263  3.891366  4.008736  1.095740  3.760982
   H ( 11)  3.481695  2.176732  3.057564  3.324417  1.092275  4.325504
   H ( 12)  2.783447  2.173182  3.103355  2.723925  1.094316  3.788925
             H (  7)   H (  8)   H (  9)   H ( 10)   H ( 11)
   H (  8)  1.775213
   H (  9)  2.501449  3.069295
   H ( 10)  2.539664  3.120113  2.501449
   H ( 11)  3.760982  3.788925  2.494709  1.777543
   H ( 12)  3.120113  2.592359  3.069295  1.775213  1.772765
 
 Applying Cartesian multipole field
    Component          Value
    ---------          -----
     (2,0,0)        1.00000E-11
     (0,2,0)        2.00000E-11
     (0,0,2)       -3.00000E-11
 Nucleus-field energy     =     0.0000000050 hartrees
 Requested basis set is 6-31G(d,p)
 There are 44 shells and 120 basis functions
 A cutoff of  1.0D-14 yielded    964 shell pairs
 There are      7253 function pairs
 Smallest overlap matrix eigenvalue = 6.73E-04
 Guess from superposition of atomic densities
 Warning:  Energy on first SCF cycle will be non-variational
 SAD guess density has 59.968191 electrons

 -----------------------------------------------------------------------
  General SCF calculation program by
  Eric Jon Sundstrom, Paul Horn, Yuezhi Mao, Dmitri Zuev, Alec White,
  David Stuck, Shaama M.S., Shane Yost, Joonho Lee, David Small,
  Daniel Levine, Susi Lehtola, Hugh Burton, Evgeny Epifanovsky
 -----------------------------------------------------------------------
 Exchange:     0.2000 Hartree-Fock + 0.0800 Slater + 0.7200 B88
 Correlation:  0.1900 VWN1RPA + 0.8100 LYP
 Using SG-1 standard quadrature grid
 using 12 threads for integral computing
 -------------------------------------------------------
 OpenMP Integral computing Module                
 Release: version 1.0, May 2013, Q-Chem Inc. Pittsburgh 
 -------------------------------------------------------
 -------------------------------------------------------
 OpenMP BLAS3 based DFT computing Module                
 Release: version 1.0, May 2013, Q-Chem Inc. Pittsburgh 
 -------------------------------------------------------
 A unrestricted SCF calculation will be
 performed using DIIS
 SCF converges when DIIS error is below 1.0e-06
 Alpha HF Exchange    Energy = -10.37717799253921
 Beta HF Exchange     Energy = -10.37717799253921
 DFT Correlation      Energy =  -3.09414803484146
 DFT Exchange         Energy = -82.06113948250720
 One-Electron (alpha) Energy = -2009.21949094283195
 One-Electron (beta)  Energy = -2009.21949094283195
 Total Coulomb        Energy = 1338.62441465981510
 ---------------------------------------
  Cycle       Energy         DIIS error
 ---------------------------------------
    1   -2523.5143734696      1.40e-01  
 Alpha HF Exchange    Energy = -10.43011356068644
 Beta HF Exchange     Energy = -10.43011356068644
 DFT Correlation      Energy =  -3.13672005742531
 DFT Exchange         Energy = -82.98988069945483
 One-Electron (alpha) Energy = -2016.52788767576590
 One-Electron (beta)  Energy = -2016.52788767576567
 Total Coulomb        Energy = 1357.52722473022300
    2   -2520.3055412408      8.89e-03  
 Alpha HF Exchange    Energy = -10.33126864621324
 Beta HF Exchange     Energy = -10.33126864621325
 DFT Correlation      Energy =  -3.10051316818609
 DFT Exchange         Energy = -82.18433642994364
 One-Electron (alpha) Energy = -2007.10809649497173
 One-Electron (beta)  Energy = -2007.10809649497310
 Total Coulomb        Energy = 1337.65228927811268
    3   -2520.3014533437      4.37e-03  
 Alpha HF Exchange    Energy = -10.40734575548933
 Beta HF Exchange     Energy = -10.40734575548931
 DFT Correlation      Energy =  -3.12881925519427
 DFT Exchange         Energy = -82.80102058227357
 One-Electron (alpha) Energy = -2014.09568910059693
 One-Electron (beta)  Energy = -2014.09568910059511
 Total Coulomb        Energy = 1352.34662010899251
    4   -2520.3794521819      2.61e-03  
 Alpha HF Exchange    Energy = -10.38292416031620
 Beta HF Exchange     Energy = -10.38292416031617
 DFT Correlation      Energy =  -3.11903067563745
 DFT Exchange         Energy = -82.60045534452019
 One-Electron (alpha) Energy = -2012.21638149927094
 One-Electron (beta)  Energy = -2012.21638149926935
 Total Coulomb        Energy = 1348.28726629359471
    5   -2520.4209937870      5.90e-04  
 Alpha HF Exchange    Energy = -10.38126161975742
 Beta HF Exchange     Energy = -10.38126161975743
 DFT Correlation      Energy =  -3.11920679734947
 DFT Exchange         Energy = -82.58914332228588
 One-Electron (alpha) Energy = -2011.93361048078032
 One-Electron (beta)  Energy = -2011.93361048078236
 Total Coulomb        Energy = 1347.70478634799974
    6   -2520.4234707140      7.55e-05  
 Alpha HF Exchange    Energy = -10.38075070215408
 Beta HF Exchange     Energy = -10.38075070215409
 DFT Correlation      Energy =  -3.11892182814091
 DFT Exchange         Energy = -82.58480741970406
 One-Electron (alpha) Energy = -2011.86125703324092
 One-Electron (beta)  Energy = -2011.86125703324205
 Total Coulomb        Energy = 1347.55439684147905
    7   -2520.4235106184      1.93e-05  
 Alpha HF Exchange    Energy = -10.38083554324974
 Beta HF Exchange     Energy = -10.38083554324975
 DFT Correlation      Energy =  -3.11893015026587
 DFT Exchange         Energy = -82.58545161234338
 One-Electron (alpha) Energy = -2011.88048932607217
 One-Electron (beta)  Energy = -2011.88048932607330
 Total Coulomb        Energy = 1347.59368106519014
    8   -2520.4235131774      7.87e-06  
 Alpha HF Exchange    Energy = -10.38082615712505
 Beta HF Exchange     Energy = -10.38082615712506
 DFT Correlation      Energy =  -3.11893571103241
 DFT Exchange         Energy = -82.58538953158029
 One-Electron (alpha) Energy = -2011.87876944076834
 One-Electron (beta)  Energy = -2011.87876944076947
 Total Coulomb        Energy = 1347.59016563992873
    9   -2520.4235135398      5.66e-07  Convergence criterion met
 ---------------------------------------
 SCF time:   CPU 29.96s  wall 2.00s 
<S^2> =         -0.000000000
 Alpha HF Exchange    Energy = -10.38082615712505
 Beta HF Exchange     Energy = -10.38082615712506
 DFT Correlation      Energy =  -3.11893571103241
 DFT Exchange         Energy = -82.58538953158029
 One-Electron (alpha) Energy = -2011.87876944076834
 One-Electron (beta)  Energy = -2011.87876944076947
 Total Coulomb        Energy = 1347.59016563992873
 Nuclear repulsion Energy = 262.20983725871355
 SCF   energy in the final basis set =    -2520.4235135398
 Total energy in the final basis set =    -2520.4235135398
 
 --------------------------------------------------------------
 
                    Orbital Energies (a.u.)
 --------------------------------------------------------------
 
 Alpha MOs
 -- Occupied --
******* -58.077 -52.134 -52.133 -52.131 -10.227 -10.185 -10.185
 -7.812  -5.758  -5.754  -5.745  -2.093  -2.091  -2.083  -2.080
 -2.079  -0.809  -0.704  -0.692  -0.581  -0.461  -0.445  -0.414
 -0.393  -0.385  -0.350  -0.348  -0.300  -0.222
 -- Virtual --
  0.014   0.085   0.105   0.128   0.148   0.152   0.172   0.182
  0.187   0.194   0.228   0.229   0.285   0.327   0.329   0.457
  0.463   0.497   0.510   0.566   0.578   0.670   0.683   0.687
  0.711   0.753   0.776   0.788   0.832   0.867   0.869   0.900
  0.905   0.926   0.951   0.957   1.078   1.211   1.320   1.370
  1.390   1.491   1.548   1.648   1.780   1.782   1.830   1.867
  1.889   2.036   2.038   2.050   2.071   2.094   2.100   2.103
  2.151   2.169   2.274   2.320   2.347   2.381   2.527   2.562
  2.623   2.666   2.696   2.713   2.718   2.866   2.870   2.892
  2.904   3.173   3.223   3.316   3.414   3.448   3.459   3.502
  4.243   4.281   4.344   4.395   4.408   4.496   4.516   4.636
  5.499  89.870
 
 Beta MOs
 -- Occupied --
******* -58.077 -52.134 -52.133 -52.131 -10.227 -10.185 -10.185
 -7.812  -5.758  -5.754  -5.745  -2.093  -2.091  -2.083  -2.080
 -2.079  -0.809  -0.704  -0.692  -0.581  -0.461  -0.445  -0.414
 -0.393  -0.385  -0.350  -0.348  -0.300  -0.222
 -- Virtual --
  0.014   0.085   0.105   0.128   0.148   0.152   0.172   0.182
  0.187   0.194   0.228   0.229   0.285   0.327   0.329   0.457
  0.463   0.497   0.510   0.566   0.578   0.670   0.683   0.687
  0.711   0.753   0.776   0.788   0.832   0.867   0.869   0.900
  0.905   0.926   0.951   0.957   1.078   1.211   1.320   1.370
  1.390   1.491   1.548   1.648   1.780   1.782   1.830   1.867
  1.889   2.036   2.038   2.050   2.071   2.094   2.100   2.103
  2.151   2.169   2.274   2.320   2.347   2.381   2.527   2.562
  2.623   2.666   2.696   2.713   2.718   2.866   2.870   2.892
  2.904   3.173   3.223   3.316   3.414   3.448   3.459   3.502
  4.243   4.281   4.344   4.395   4.408   4.496   4.516   4.636
  5.499  89.870
 --------------------------------------------------------------
 
          Ground-State Mulliken Net Atomic Charges

     Atom                 Charge (a.u.)    Spin (a.u.)
  --------------------------------------------------------
      1 C                    -0.300958      -0.000000
      2 C                    -0.144228      -0.000000
      3 Se                   -0.113730      -0.000000
      4 H                     0.064032       0.000000
      5 C                    -0.300958       0.000000
      6 H                     0.124125       0.000000
      7 H                     0.103200      -0.000000
      8 H                     0.106831      -0.000000
      9 H                     0.127527       0.000000
     10 H                     0.103200      -0.000000
     11 H                     0.124125      -0.000000
     12 H                     0.106831      -0.000000
  --------------------------------------------------------
  Sum of atomic charges =    -0.000000
  Sum of spin   charges =    -0.000000

 -----------------------------------------------------------------
                    Cartesian Multipole Moments
 -----------------------------------------------------------------
    Charge (ESU x 10^10)
                -0.0000
    Dipole Moment (Debye)
         X      -1.7847      Y       0.0000      Z       0.4254
       Tot       1.8347
    Quadrupole Moments (Debye-Ang)
        XX     -39.0656     XY      -0.0000     YY     -40.9600
        XZ       1.4549     YZ       0.0000     ZZ     -36.7189
    Octopole Moments (Debye-Ang^2)
       XXX      44.6861    XXY       0.0000    XYY      13.1757
       YYY       0.0000    XXZ      -1.2809    XYZ      -0.0000
       YYZ      -2.4299    XZZ      16.4200    YZZ       0.0000
       ZZZ      -3.9772
    Hexadecapole Moments (Debye-Ang^3)
      XXXX    -456.8112   XXXY      -0.0000   XXYY    -119.5774
      XYYY      -0.0000   YYYY    -218.8766   XXXZ       8.4078
      XXYZ      -0.0000   XYYZ       1.3216   YYYZ      -0.0000
      XXZZ     -89.7630   XYZZ      -0.0000   YYZZ     -50.4699
      XZZZ       2.5939   YZZZ      -0.0000   ZZZZ     -73.2951
 -----------------------------------------------------------------
 Calculating analytic gradient of the SCF energy
 Gradient of SCF Energy
            1           2           3           4           5           6
    1  -0.0028367   0.0096190  -0.0227643   0.0180545  -0.0028367   0.0007497
    2   0.0001994   0.0000000   0.0000000   0.0000000  -0.0001994  -0.0009742
    3   0.0033533  -0.0085661   0.1361023  -0.1315710   0.0033533  -0.0006420
            7           8           9          10          11          12
    1   0.0010542   0.0008780  -0.0045997   0.0010542   0.0007497   0.0008780
    2  -0.0006559  -0.0008308  -0.0000000   0.0006559   0.0009742   0.0008308
    3  -0.0005498  -0.0004534   0.0006187  -0.0005498  -0.0006420  -0.0004534
 Max gradient component =       1.361E-01
 RMS gradient           =       3.202E-02
 Gradient time:  CPU 12.06 s  wall 1.04 s
 Geometry Optimization Parameters
   NAtoms,    NIC,     NZ,  NCons,   NDum,   NFix, NCnnct, MaxDiis
       12      75       0       1       0       0       0       0

 Cartesian Hessian Update
 Hessian Updated using BFGS Update


** CONSTRAINED OPTIMIZATION IN DELOCALIZED INTERNAL COORDINATES **
   Searching for a Minimum

   Optimization Cycle:   3

                       Coordinates (Angstroms)
     ATOM                X               Y               Z
      1  C        -1.7291709475    1.2633371034    0.1593865774
      2  C        -1.0556587561    0.0000000000   -0.3841711699
      3  Se        0.8862085671    0.0000000000    0.0450563654
      4  H         0.7324034820    0.0000000000    1.3147130718
      5  C        -1.7291709475   -1.2633371034    0.1593865774
      6  H        -1.2560761519    2.1627518348   -0.2409873333
      7  H        -2.7883873871    1.2698322280   -0.1210861174
      8  H        -1.6625175255    1.2961797218    1.2511766298
      9  H        -1.1124492690    0.0000000000   -1.4760777803
     10  H        -2.7883873871   -1.2698322280   -0.1210861174
     11  H        -1.2560761519   -2.1627518348   -0.2409873334
     12  H        -1.6625175255   -1.2961797218    1.2511766298
   Point Group: c1    Number of degrees of freedom:    30


   Energy is  -2520.423513540

              Constraints and their Current Values
                                        Value     Constraint
   Distance(Angs):        3   4             1.278939     0.900000
 Hessian Updated using BFGS Update
**WARNING** Constraint Gradient Reduced for constraint   1

   Using Lagrange Multiplier Algorithm


 22 Hessian modes will be used to form the next step
  Hessian Eigenvalues:
    -0.817878    0.103776    0.103777    0.174743    0.181679    0.195944
     0.196036    0.196042    0.213758    0.364185    0.369000    0.374522
     0.383164    0.401547    0.467503    0.678580    0.694633    0.800461
     0.802814    0.802984    0.803283    1.225859

 Minimum Search - Taking P-RFO Step
 Searching for Lamda that Maximizes Along the Constraint modes Only
 Value Taken    Lamda =   0.06202872
 Searching for Lamda that Minimizes Along All other modes
 Value Taken    Lamda =  -0.02937261
 Step Taken.  Stepsize is  0.294213

                             Maximum     Tolerance    Cnvgd?
         Gradient            0.300000       0.000300      NO
         Displacement        0.284411       0.001200      NO
         Energy change      0.019501       0.000001      NO


 New Cartesian Coordinates Obtained by Inverse Iteration

 Displacement from previous Coordinates is:  0.271922
 ----------------------------------------------------------------
             Standard Nuclear Orientation (Angstroms)
    I     Atom           X                Y                Z
 ----------------------------------------------------------------
    1      C      -1.7314492844     1.2661650913     0.1651227674
    2      C      -1.0567211902     0.0000000000    -0.3561353921
    3      Se      0.8924890363     0.0000000000     0.0807605674
    4      H       0.7427372848     0.0000000000     1.1992146692
    5      C      -1.7314492844    -1.2661650913     0.1651227674
    6      H      -1.2503407877     2.1644316804    -0.2288461888
    7      H      -2.7865895037     1.2761647615    -0.1344251628
    8      H      -1.6924880153     1.3116807989     1.2592849163
    9      H      -1.0785699487     0.0000000000    -1.4496125087
   10      H      -2.7865895037    -1.2761647615    -0.1344251628
   11      H      -1.2503407877    -2.1644316804    -0.2288461888
   12      H      -1.6924880153    -1.3116807989     1.2592849163
 ----------------------------------------------------------------
 Nuclear Repulsion Energy =   263.6610615646 hartrees
 There are       30 alpha and       30 beta electrons

                       Distance Matrix (Angstroms)
             C (  1)   C (  2)   Se(  3)   H (  4)   C (  5)   H (  6)
   C (  2)  1.526480
   Se(  3)  2.914677  1.997573
   H (  4)  2.965488  2.378479  1.128435
   C (  5)  2.532330  1.526480  2.914677  2.965488
   H (  6)  1.092502  2.176799  3.061428  3.270548  3.486498
   H (  7)  1.096882  2.161064  3.900067  3.982881  2.768843  1.777074
   H (  8)  1.095801  2.175842  3.129142  2.766665  2.800714  1.771218
   H (  9)  2.153322  1.093695  2.495419  3.214568  2.153322  2.490891
   H ( 10)  2.768843  2.161064  3.900067  3.982881  1.096882  3.769175
   H ( 11)  3.486498  2.176799  3.061428  3.270548  1.092502  4.328863
   H ( 12)  2.800714  2.175842  3.129142  2.766665  1.095801  3.807018
             H (  7)   H (  8)   H (  9)   H ( 10)   H ( 11)
   H (  8)  1.772215
   H (  9)  2.505124  3.071730
   H ( 10)  2.552330  3.136308  2.505124
   H ( 11)  3.769175  3.807018  2.490891  1.777074
   H ( 12)  3.136308  2.623362  3.071730  1.772215  1.771218
 
 Applying Cartesian multipole field
    Component          Value
    ---------          -----
     (2,0,0)        1.00000E-11
     (0,2,0)        2.00000E-11
     (0,0,2)       -3.00000E-11
 Nucleus-field energy     =     0.0000000051 hartrees
 Requested basis set is 6-31G(d,p)
 There are 44 shells and 120 basis functions
 A cutoff of  1.0D-14 yielded    960 shell pairs
 There are      7227 function pairs
 Smallest overlap matrix eigenvalue = 6.72E-04
 Guess from superposition of atomic densities
 Warning:  Energy on first SCF cycle will be non-variational
 SAD guess density has 59.968191 electrons

 -----------------------------------------------------------------------
  General SCF calculation program by
  Eric Jon Sundstrom, Paul Horn, Yuezhi Mao, Dmitri Zuev, Alec White,
  David Stuck, Shaama M.S., Shane Yost, Joonho Lee, David Small,
  Daniel Levine, Susi Lehtola, Hugh Burton, Evgeny Epifanovsky
 -----------------------------------------------------------------------
 Exchange:     0.2000 Hartree-Fock + 0.0800 Slater + 0.7200 B88
 Correlation:  0.1900 VWN1RPA + 0.8100 LYP
 Using SG-1 standard quadrature grid
 using 12 threads for integral computing
 -------------------------------------------------------
 OpenMP Integral computing Module                
 Release: version 1.0, May 2013, Q-Chem Inc. Pittsburgh 
 -------------------------------------------------------
 -------------------------------------------------------
 OpenMP BLAS3 based DFT computing Module                
 Release: version 1.0, May 2013, Q-Chem Inc. Pittsburgh 
 -------------------------------------------------------
 A unrestricted SCF calculation will be
 performed using DIIS
 SCF converges when DIIS error is below 1.0e-06
 Alpha HF Exchange    Energy = -10.38665722109531
 Beta HF Exchange     Energy = -10.38665722109531
 DFT Correlation      Energy =  -3.09605084398186
 DFT Exchange         Energy = -82.08705202320741
 One-Electron (alpha) Energy = -2010.45090930835067
 One-Electron (beta)  Energy = -2010.45090930835067
 Total Coulomb        Energy = 1339.58621993305906
 ---------------------------------------
  Cycle       Energy         DIIS error
 ---------------------------------------
    1   -2523.6109544233      1.42e-01  
 Alpha HF Exchange    Energy = -10.43650498322167
 Beta HF Exchange     Energy = -10.43650498322167
 DFT Correlation      Energy =  -3.13912808507112
 DFT Exchange         Energy = -83.03786633524589
 One-Electron (alpha) Energy = -2017.94414779028216
 One-Electron (beta)  Energy = -2017.94414779028170
 Total Coulomb        Energy = 1359.03685411628703
    2   -2520.2403842813      8.87e-03  
 Alpha HF Exchange    Energy = -10.33655379268889
 Beta HF Exchange     Energy = -10.33655379268891
 DFT Correlation      Energy =  -3.10318755497480
 DFT Exchange         Energy = -82.22473795560190
 One-Electron (alpha) Energy = -2008.45904345783129
 One-Electron (beta)  Energy = -2008.45904345783265
 Total Coulomb        Energy = 1339.01697320326912
    3   -2520.2410852386      4.34e-03  
 Alpha HF Exchange    Energy = -10.41264842034649
 Beta HF Exchange     Energy = -10.41264842034649
 DFT Correlation      Energy =  -3.13089442316565
 DFT Exchange         Energy = -82.84027274294752
 One-Electron (alpha) Energy = -2015.39578309533317
 One-Electron (beta)  Energy = -2015.39578309533249
 Total Coulomb        Energy = 1353.60920877539343
    4   -2520.3177598524      2.55e-03  
 Alpha HF Exchange    Energy = -10.38842946646471
 Beta HF Exchange     Energy = -10.38842946646470
 DFT Correlation      Energy =  -3.12139224952807
 DFT Exchange         Energy = -82.64184871960336
 One-Electron (alpha) Energy = -2013.55735969246780
 One-Electron (beta)  Energy = -2013.55735969246689
 Total Coulomb        Energy = 1349.63734427089071
    5   -2520.3564134464      5.63e-04  
 Alpha HF Exchange    Energy = -10.38686423523385
 Beta HF Exchange     Energy = -10.38686423523385
 DFT Correlation      Energy =  -3.12161510483588
 DFT Exchange         Energy = -82.63131422227228
 One-Electron (alpha) Energy = -2013.28207576894147
 One-Electron (beta)  Energy = -2013.28207576894147
 Total Coulomb        Energy = 1349.07107183392509
    6   -2520.3586759318      7.96e-05  
 Alpha HF Exchange    Energy = -10.38630846629368
 Beta HF Exchange     Energy = -10.38630846629365
 DFT Correlation      Energy =  -3.12131515531224
 DFT Exchange         Energy = -82.62660981620292
 One-Electron (alpha) Energy = -2013.20651063756600
 One-Electron (beta)  Energy = -2013.20651063756463
 Total Coulomb        Energy = 1348.91378065898380
    7   -2520.3587209505      1.97e-05  
 Alpha HF Exchange    Energy = -10.38638731515336
 Beta HF Exchange     Energy = -10.38638731515336
 DFT Correlation      Energy =  -3.12131933911180
 DFT Exchange         Energy = -82.62720797372131
 One-Electron (alpha) Energy = -2013.22380682717426
 One-Electron (beta)  Energy = -2013.22380682717380
 Total Coulomb        Energy = 1348.94913057019039
    8   -2520.3587234576      7.31e-06  
 Alpha HF Exchange    Energy = -10.38638013077172
 Beta HF Exchange     Energy = -10.38638013077172
 DFT Correlation      Energy =  -3.12132458513596
 DFT Exchange         Energy = -82.62716090256157
 One-Electron (alpha) Energy = -2013.22280285577199
 One-Electron (beta)  Energy = -2013.22280285577244
 Total Coulomb        Energy = 1348.94706611309198
    9   -2520.3587237780      5.44e-07  Convergence criterion met
 ---------------------------------------
 SCF time:   CPU 29.92s  wall 2.00s 
<S^2> =         -0.000000000
 Alpha HF Exchange    Energy = -10.38638013077172
 Beta HF Exchange     Energy = -10.38638013077172
 DFT Correlation      Energy =  -3.12132458513596
 DFT Exchange         Energy = -82.62716090256157
 One-Electron (alpha) Energy = -2013.22280285577199
 One-Electron (beta)  Energy = -2013.22280285577244
 Total Coulomb        Energy = 1348.94706611309198
 Nuclear repulsion Energy = 263.66106156970886
 SCF   energy in the final basis set =    -2520.3587237780
 Total energy in the final basis set =    -2520.3587237780
 
 --------------------------------------------------------------
 
                    Orbital Energies (a.u.)
 --------------------------------------------------------------
 
 Alpha MOs
 -- Occupied --
******* -58.074 -52.132 -52.130 -52.128 -10.227 -10.186 -10.186
 -7.812  -5.758  -5.754  -5.744  -2.096  -2.091  -2.083  -2.080
 -2.079  -0.812  -0.725  -0.693  -0.585  -0.461  -0.448  -0.415
 -0.393  -0.387  -0.353  -0.347  -0.300  -0.224
 -- Virtual --
  0.013   0.085   0.120   0.143   0.146   0.152   0.179   0.181
  0.185   0.186   0.224   0.231   0.294   0.328   0.328   0.457
  0.461   0.497   0.510   0.565   0.577   0.672   0.684   0.691
  0.715   0.754   0.778   0.786   0.830   0.865   0.869   0.900
  0.904   0.926   0.952   0.955   1.074   1.317   1.337   1.386
  1.404   1.493   1.547   1.645   1.777   1.779   1.836   1.863
  1.888   2.038   2.038   2.046   2.069   2.095   2.102   2.104
  2.192   2.205   2.284   2.315   2.347   2.378   2.533   2.563
  2.615   2.666   2.699   2.721   2.721   2.866   2.866   2.894
  2.906   3.169   3.218   3.316   3.414   3.449   3.459   3.500
  4.238   4.258   4.343   4.378   4.438   4.513   4.578   4.695
  5.496  89.861
 
 Beta MOs
 -- Occupied --
******* -58.074 -52.132 -52.130 -52.128 -10.227 -10.186 -10.186
 -7.812  -5.758  -5.754  -5.744  -2.096  -2.091  -2.083  -2.080
 -2.079  -0.812  -0.725  -0.693  -0.585  -0.461  -0.448  -0.415
 -0.393  -0.387  -0.353  -0.347  -0.300  -0.224
 -- Virtual --
  0.013   0.085   0.120   0.143   0.146   0.152   0.179   0.181
  0.185   0.186   0.224   0.231   0.294   0.328   0.328   0.457
  0.461   0.497   0.510   0.565   0.577   0.672   0.684   0.691
  0.715   0.754   0.778   0.786   0.830   0.865   0.869   0.900
  0.904   0.926   0.952   0.955   1.074   1.317   1.337   1.386
  1.404   1.493   1.547   1.645   1.777   1.779   1.836   1.863
  1.888   2.038   2.038   2.046   2.069   2.095   2.102   2.104
  2.192   2.205   2.284   2.315   2.347   2.378   2.533   2.563
  2.615   2.666   2.699   2.721   2.721   2.866   2.866   2.894
  2.906   3.169   3.218   3.316   3.414   3.449   3.459   3.500
  4.238   4.258   4.343   4.378   4.438   4.513   4.578   4.695
  5.496  89.861
 --------------------------------------------------------------
 
          Ground-State Mulliken Net Atomic Charges

     Atom                 Charge (a.u.)    Spin (a.u.)
  --------------------------------------------------------
      1 C                    -0.302961      -0.000000
      2 C                    -0.140529      -0.000000
      3 Se                   -0.109584       0.000000
      4 H                     0.055614      -0.000000
      5 C                    -0.302961       0.000000
      6 H                     0.125436       0.000000
      7 H                     0.103915       0.000000
      8 H                     0.106923      -0.000000
      9 H                     0.127871      -0.000000
     10 H                     0.103915       0.000000
     11 H                     0.125436      -0.000000
     12 H                     0.106923      -0.000000
  --------------------------------------------------------
  Sum of atomic charges =    -0.000000
  Sum of spin   charges =     0.000000

 -----------------------------------------------------------------
                    Cartesian Multipole Moments
 -----------------------------------------------------------------
    Charge (ESU x 10^10)
                -0.0000
    Dipole Moment (Debye)
         X      -1.8393      Y      -0.0000      Z       0.5081
       Tot       1.9081
    Quadrupole Moments (Debye-Ang)
        XX     -38.9641     XY       0.0000     YY     -40.6874
        XZ       1.4933     YZ      -0.0000     ZZ     -36.7105
    Octopole Moments (Debye-Ang^2)
       XXX      44.4328    XXY      -0.0000    XYY      13.0516
       YYY      -0.0000    XXZ      -1.6414    XYZ      -0.0000
       YYZ      -3.0464    XZZ      16.4358    YZZ      -0.0000
       ZZZ      -5.8287
    Hexadecapole Moments (Debye-Ang^3)
      XXXX    -458.6770   XXXY       0.0000   XXYY    -119.6413
      XYYY       0.0000   YYYY    -218.9825   XXXZ       8.4317
      XXYZ      -0.0000   XYYZ       1.1273   YYYZ      -0.0000
      XXZZ     -89.4980   XYZZ       0.0000   YYZZ     -50.0386
      XZZZ       2.2197   YZZZ      -0.0000   ZZZZ     -71.1725
 -----------------------------------------------------------------
 Calculating analytic gradient of the SCF energy
 Gradient of SCF Energy
            1           2           3           4           5           6
    1  -0.0008876   0.0040560  -0.0508366   0.0481095  -0.0008876   0.0005132
    2  -0.0014003  -0.0000000   0.0000000  -0.0000000   0.0014003  -0.0003996
    3   0.0006181  -0.0026153   0.3520384  -0.3500741   0.0006181  -0.0002319
            7           8           9          10          11          12
    1   0.0004632   0.0004566  -0.0024198   0.0004632   0.0005132   0.0004566
    2  -0.0004540  -0.0002599  -0.0000000   0.0004540   0.0003996   0.0002599
    3  -0.0003574   0.0002400   0.0001131  -0.0003574  -0.0002319   0.0002400
 Max gradient component =       3.520E-01
 RMS gradient           =       8.357E-02
 Gradient time:  CPU 11.87 s  wall 1.01 s
 Geometry Optimization Parameters
   NAtoms,    NIC,     NZ,  NCons,   NDum,   NFix, NCnnct, MaxDiis
       12      75       0       1       0       0       0       0

 Cartesian Hessian Update
 Hessian Updated using BFGS Update


** CONSTRAINED OPTIMIZATION IN DELOCALIZED INTERNAL COORDINATES **
   Searching for a Minimum

   Optimization Cycle:   4

                       Coordinates (Angstroms)
     ATOM                X               Y               Z
      1  C        -1.7314492844    1.2661650913    0.1651227674
      2  C        -1.0567211902    0.0000000000   -0.3561353921
      3  Se        0.8924890363    0.0000000000    0.0807605674
      4  H         0.7427372848    0.0000000000    1.1992146692
      5  C        -1.7314492844   -1.2661650913    0.1651227674
      6  H        -1.2503407877    2.1644316804   -0.2288461888
      7  H        -2.7865895037    1.2761647615   -0.1344251628
      8  H        -1.6924880153    1.3116807989    1.2592849163
      9  H        -1.0785699487    0.0000000000   -1.4496125087
     10  H        -2.7865895037   -1.2761647615   -0.1344251628
     11  H        -1.2503407877   -2.1644316804   -0.2288461888
     12  H        -1.6924880153   -1.3116807989    1.2592849163
   Point Group: c1    Number of degrees of freedom:    30


   Energy is  -2520.358723778

              Constraints and their Current Values
                                        Value     Constraint
   Distance(Angs):        3   4             1.128435     0.900000
 Hessian Updated using BFGS Update
**WARNING** Constraint Gradient Reduced for constraint   1

   Using Lagrange Multiplier Algorithm


 22 Hessian modes will be used to form the next step
  Hessian Eigenvalues:
    -0.682153    0.103777    0.174211    0.181459    0.195940    0.196036
     0.196042    0.363527    0.368986    0.368987    0.368987    0.374132
     0.383047    0.401547    0.467495    0.678580    0.695268    0.800457
     0.802813    0.802982    0.803295    1.468749

 Minimum Search - Taking P-RFO Step
 Searching for Lamda that Maximizes Along the Constraint modes Only
 Value Taken    Lamda =   0.12125306


 ********************************************
 ** ERROR IN DETERMINING Lamda IN CONFormD **
 ********************************************


 ** Scaling Hessian by  2.336810 **


 21 Hessian modes will be used to form the next step
  Hessian Eigenvalues:
    -0.440996    0.242506    0.406262    0.423939    0.457862    0.458099
     0.458112    0.849012    0.862222    0.862252    0.874270    0.894806
     0.938339    1.092250    1.585713    1.621722    1.870068    1.876004
     1.876399    1.877088    2.284612

 Minimum Search - Taking P-RFO Step
 Searching for Lamda that Maximizes Along the Constraint modes Only
 Value Taken    Lamda =   0.16834524
 Searching for Lamda that Minimizes Along All other modes
 Value Taken    Lamda =  -0.00072435
 Step Taken.  Stepsize is  0.226279

                             Maximum     Tolerance    Cnvgd?
         Gradient            0.300000       0.000300      NO
         Displacement        0.475930       0.001200      NO
         Energy change      0.064790       0.000001      NO


 New Cartesian Coordinates Obtained by Inverse Iteration

 Displacement from previous Coordinates is:  0.207799
 ----------------------------------------------------------------
             Standard Nuclear Orientation (Angstroms)
    I     Atom           X                Y                Z
 ----------------------------------------------------------------
    1      C      -1.7335999334     1.2692825667     0.1695102276
    2      C      -1.0584106729     0.0000000000    -0.3356191859
    3      Se      0.8963985322     0.0000000000     0.1092360298
    4      H       0.7534937337     0.0000000000     1.1115946956
    5      C      -1.7335999334    -1.2692825667     0.1695102276
    6      H      -1.2459310320     2.1662136443    -0.2195859949
    7      H      -2.7853530101     1.2827783377    -0.1441857678
    8      H      -1.7155063128     1.3234995739     1.2646053703
    9      H      -1.0525010163     0.0000000000    -1.4293992097
   10      H      -2.7853530101    -1.2827783377    -0.1441857678
   11      H      -1.2459310320    -2.1662136443    -0.2195859949
   12      H      -1.7155063128    -1.3234995739     1.2646053703
 ----------------------------------------------------------------
 Nuclear Repulsion Energy =   265.1158642367 hartrees
 There are       30 alpha and       30 beta electrons

                       Distance Matrix (Angstroms)
             C (  1)   C (  2)   Se(  3)   H (  4)   C (  5)   H (  6)
   C (  2)  1.523849
   Se(  3)  2.920891  2.004788
   H (  4)  2.946903  2.318928  1.012494
   C (  5)  2.538565  1.523849  2.920891  2.946903
   H (  6)  1.092567  2.177409  3.064340  3.234536  3.491683
   H (  7)  1.097621  2.159745  3.907050  3.968116  2.778058  1.776503
   H (  8)  1.096586  2.178106  3.147789  2.805535  2.814619  1.770167
   H (  9)  2.152089  1.093796  2.483064  3.117414  2.152089  2.488683
   H ( 10)  2.778058  2.159745  3.907050  3.968116  1.097621  3.777704
   H ( 11)  3.491683  2.177409  3.064340  3.234536  1.092567  4.332427
   H ( 12)  2.814619  2.178106  3.147789  2.805535  1.096586  3.821181
             H (  7)   H (  8)   H (  9)   H ( 10)   H ( 11)
   H (  8)  1.769441
   H (  9)  2.509994  3.073904
   H ( 10)  2.565557  3.149913  2.509994
   H ( 11)  3.777704  3.821181  2.488683  1.776503
   H ( 12)  3.149913  2.646999  3.073904  1.769441  1.770167
 
 Applying Cartesian multipole field
    Component          Value
    ---------          -----
     (2,0,0)        1.00000E-11
     (0,2,0)        2.00000E-11
     (0,0,2)       -3.00000E-11
 Nucleus-field energy     =     0.0000000051 hartrees
 Requested basis set is 6-31G(d,p)
 There are 44 shells and 120 basis functions
 A cutoff of  1.0D-14 yielded    960 shell pairs
 There are      7227 function pairs
 Smallest overlap matrix eigenvalue = 6.73E-04
 Guess from superposition of atomic densities
 Warning:  Energy on first SCF cycle will be non-variational
 SAD guess density has 59.968191 electrons

 -----------------------------------------------------------------------
  General SCF calculation program by
  Eric Jon Sundstrom, Paul Horn, Yuezhi Mao, Dmitri Zuev, Alec White,
  David Stuck, Shaama M.S., Shane Yost, Joonho Lee, David Small,
  Daniel Levine, Susi Lehtola, Hugh Burton, Evgeny Epifanovsky
 -----------------------------------------------------------------------
 Exchange:     0.2000 Hartree-Fock + 0.0800 Slater + 0.7200 B88
 Correlation:  0.1900 VWN1RPA + 0.8100 LYP
 Using SG-1 standard quadrature grid
 using 12 threads for integral computing
 -------------------------------------------------------
 OpenMP Integral computing Module                
 Release: version 1.0, May 2013, Q-Chem Inc. Pittsburgh 
 -------------------------------------------------------
 -------------------------------------------------------
 OpenMP BLAS3 based DFT computing Module                
 Release: version 1.0, May 2013, Q-Chem Inc. Pittsburgh 
 -------------------------------------------------------
 A unrestricted SCF calculation will be
 performed using DIIS
 SCF converges when DIIS error is below 1.0e-06
 Alpha HF Exchange    Energy = -10.39493320439927
 Beta HF Exchange     Energy = -10.39493320439927
 DFT Correlation      Energy =  -3.09757982148134
 DFT Exchange         Energy = -82.11113735974669
 One-Electron (alpha) Energy = -2011.61423312044781
 One-Electron (beta)  Energy = -2011.61423312044781
 Total Coulomb        Energy = 1340.43004973995221
 ---------------------------------------
  Cycle       Energy         DIIS error
 ---------------------------------------
    1   -2523.6811358491      1.44e-01  
 Alpha HF Exchange    Energy = -10.44241443630474
 Beta HF Exchange     Energy = -10.44241443630473
 DFT Correlation      Energy =  -3.14126393263257
 DFT Exchange         Energy = -83.08429858517133
 One-Electron (alpha) Energy = -2019.33792663918803
 One-Electron (beta)  Energy = -2019.33792663918803
 Total Coulomb        Energy = 1360.54015161138136
    2   -2520.1302288155      8.86e-03  
 Alpha HF Exchange    Energy = -10.34029439632542
 Beta HF Exchange     Energy = -10.34029439632542
 DFT Correlation      Energy =  -3.10522179389755
 DFT Exchange         Energy = -82.25547019767228
 One-Electron (alpha) Energy = -2009.59799232605405
 One-Electron (beta)  Energy = -2009.59799232605405
 Total Coulomb        Energy = 1339.98637071184612
    3   -2520.1350304826      4.36e-03  
 Alpha HF Exchange    Energy = -10.41737500698099
 Beta HF Exchange     Energy = -10.41737500698099
 DFT Correlation      Energy =  -3.13257280321929
 DFT Exchange         Energy = -82.87710382076175
 One-Electron (alpha) Energy = -2016.67443758890977
 One-Electron (beta)  Energy = -2016.67443758891000
 Total Coulomb        Energy = 1354.86357732134229
    4   -2520.2138602526      2.49e-03  
 Alpha HF Exchange    Energy = -10.39304021432022
 Beta HF Exchange     Energy = -10.39304021432023
 DFT Correlation      Energy =  -3.12337664637089
 DFT Exchange         Energy = -82.67863471564075
 One-Electron (alpha) Energy = -2014.80362622174175
 One-Electron (beta)  Energy = -2014.80362622174357
 Total Coulomb        Energy = 1350.83026498634899
    5   -2520.2492150059      5.14e-04  
 Alpha HF Exchange    Energy = -10.39164269457885
 Beta HF Exchange     Energy = -10.39164269457885
 DFT Correlation      Energy =  -3.12362357155809
 DFT Exchange         Energy = -82.66935464863657
 One-Electron (alpha) Energy = -2014.54185141825701
 One-Electron (beta)  Energy = -2014.54185141825724
 Total Coulomb        Energy = 1350.29296632827140
    6   -2520.2511358757      8.68e-05  
 Alpha HF Exchange    Energy = -10.39106890653444
[...]
     1.852587    1.873854    1.875809    1.876485

 Minimum Search - Taking Simple RFO Step
 Searching for Lamda that Minimizes Along All modes
 Value Taken    Lamda =  -0.00000426
 Step Taken.  Stepsize is  0.007028

                             Maximum     Tolerance    Cnvgd?
         Gradient           0.000650      0.000300      NO
         Displacement       0.004900      0.001200      NO
         Energy change     -0.000001      0.000001     YES


 New Cartesian Coordinates Obtained by Inverse Iteration

 Displacement from previous Coordinates is:  0.011260
 ----------------------------------------------------------------
             Standard Nuclear Orientation (Angstroms)
    I     Atom           X                Y                Z
 ----------------------------------------------------------------
    1      C      -1.7371288791     1.2746141062     0.1742950293
    2      C      -1.0576046502     0.0000000000    -0.3236792521
    3      Se      0.8965743240     0.0000000000     0.1436069563
    4      H       0.7668770245     0.0000000000     1.0342127231
    5      C      -1.7371288791    -1.2746141061     0.1742950293
    6      H      -1.2434057219     2.1692675433    -0.2115270935
    7      H      -2.7851071509     1.2906066038    -0.1518084820
    8      H      -1.7324706009     1.3283589976     1.2683749641
    9      H      -1.0314219927     0.0000000000    -1.4163092630
   10      H      -2.7851071509    -1.2906066038    -0.1518084820
   11      H      -1.2434057219    -2.1692675433    -0.2115270935
   12      H      -1.7324706009    -1.3283589976     1.2683749641
 ----------------------------------------------------------------
 Nuclear Repulsion Energy =   266.9524007702 hartrees
 There are       30 alpha and       30 beta electrons

                       Distance Matrix (Angstroms)
             C (  1)   C (  2)   Se(  3)   H (  4)   C (  5)   H (  6)
   C (  2)  1.527865
   Se(  3)  2.926085  2.009271
   H (  4)  2.938392  2.274336  0.900000
   C (  5)  2.549228  1.527865  2.926085  2.938392
   H (  6)  1.092257  2.180097  3.067793  3.209178  3.500420
   H (  7)  1.097660  2.163208  3.912507  3.960922  2.790154  1.775515
   H (  8)  1.095409  2.180509  3.153017  2.840089  2.823562  1.770995
   H (  9)  2.157008  1.092944  2.480022  3.039562  2.157008  2.490413
   H ( 10)  2.790154  2.163208  3.912507  3.960922  1.097660  3.788290
   H ( 11)  3.500420  2.180097  3.067793  3.209178  1.092257  4.338535
   H ( 12)  2.823562  2.180509  3.153017  2.840089  1.095409  3.829189
             H (  7)   H (  8)   H (  9)   H ( 10)   H ( 11)
   H (  8)  1.768160
   H (  9)  2.517943  3.076286
   H ( 10)  2.581213  3.159738  2.517943
   H ( 11)  3.788290  3.829189  2.490413  1.775515
   H ( 12)  3.159738  2.656718  3.076286  1.768160  1.770995
 
 Applying Cartesian multipole field
    Component          Value
    ---------          -----
     (2,0,0)        1.00000E-11
     (0,2,0)        2.00000E-11
     (0,0,2)       -3.00000E-11
 Nucleus-field energy     =     0.0000000051 hartrees
 Requested basis set is 6-31G(d,p)
 There are 44 shells and 120 basis functions
 A cutoff of  1.0D-14 yielded    960 shell pairs
 There are      7227 function pairs
 Smallest overlap matrix eigenvalue = 6.74E-04
 Guess from superposition of atomic densities
 Warning:  Energy on first SCF cycle will be non-variational
 SAD guess density has 59.968191 electrons

 -----------------------------------------------------------------------
  General SCF calculation program by
  Eric Jon Sundstrom, Paul Horn, Yuezhi Mao, Dmitri Zuev, Alec White,
  David Stuck, Shaama M.S., Shane Yost, Joonho Lee, David Small,
  Daniel Levine, Susi Lehtola, Hugh Burton, Evgeny Epifanovsky
 -----------------------------------------------------------------------
 Exchange:     0.2000 Hartree-Fock + 0.0800 Slater + 0.7200 B88
 Correlation:  0.1900 VWN1RPA + 0.8100 LYP
 Using SG-1 standard quadrature grid
 using 12 threads for integral computing
 -------------------------------------------------------
 OpenMP Integral computing Module                
 Release: version 1.0, May 2013, Q-Chem Inc. Pittsburgh 
 -------------------------------------------------------
 -------------------------------------------------------
 OpenMP BLAS3 based DFT computing Module                
 Release: version 1.0, May 2013, Q-Chem Inc. Pittsburgh 
 -------------------------------------------------------
 A unrestricted SCF calculation will be
 performed using DIIS
 SCF converges when DIIS error is below 1.0e-06
 Alpha HF Exchange    Energy = -10.40317136763009
 Beta HF Exchange     Energy = -10.40317136763009
 DFT Correlation      Energy =  -3.09897762004862
 DFT Exchange         Energy = -82.13729976952123
 One-Electron (alpha) Energy = -2012.99628271848292
 One-Electron (beta)  Energy = -2012.99628271848292
 Total Coulomb        Energy = 1341.36111727240382
 ---------------------------------------
  Cycle       Energy         DIIS error
 ---------------------------------------
    1   -2523.7216675140      1.47e-01  
 Alpha HF Exchange    Energy = -10.44872459450274
 Beta HF Exchange     Energy = -10.44872459450274
 DFT Correlation      Energy =  -3.14336881488741
 DFT Exchange         Energy = -83.13569224123181
 One-Electron (alpha) Energy = -2020.99519837958269
 One-Electron (beta)  Energy = -2020.99519837958246
 Total Coulomb        Energy = 1362.27814910771531
    2   -2519.9363571212      8.86e-03  
 Alpha HF Exchange    Energy = -10.34337240332511
 Beta HF Exchange     Energy = -10.34337240332512
 DFT Correlation      Energy =  -3.10710648012924
 DFT Exchange         Energy = -82.28317303054166
 One-Electron (alpha) Energy = -2010.85521690627684
 One-Electron (beta)  Energy = -2010.85521690627820
 Total Coulomb        Energy = 1340.88945780905715
    3   -2519.9455995455      4.44e-03  
 Alpha HF Exchange    Energy = -10.42218226536496
 Beta HF Exchange     Energy = -10.42218226536494
 DFT Correlation      Energy =  -3.13401684670759
 DFT Exchange         Energy = -82.91609131771614
 One-Electron (alpha) Energy = -2018.19677367794088
 One-Electron (beta)  Energy = -2018.19677367794020
 Total Coulomb        Energy = 1356.30638007105244
    4   -2520.0292392046      2.42e-03  
 Alpha HF Exchange    Energy = -10.39763839647952
 Beta HF Exchange     Energy = -10.39763839647952
 DFT Correlation      Energy =  -3.12535105989697
 DFT Exchange         Energy = -82.71743923560496
 One-Electron (alpha) Energy = -2016.25126156881947
 One-Electron (beta)  Energy = -2016.25126156881970
 Total Coulomb        Energy = 1352.12761686425551
    5   -2520.0605725865      4.12e-04  
 Alpha HF Exchange    Energy = -10.39640568353702
 Beta HF Exchange     Energy = -10.39640568353702
 DFT Correlation      Energy =  -3.12555189339153
 DFT Exchange         Energy = -82.70921977942665
 One-Electron (alpha) Energy = -2016.00439904500467
 One-Electron (beta)  Energy = -2016.00439904500536
 Total Coulomb        Energy = 1351.62215125540843
    6   -2520.0618290991      1.03e-04  
 Alpha HF Exchange    Energy = -10.39585647677060
 Beta HF Exchange     Energy = -10.39585647677060
 DFT Correlation      Energy =  -3.12520599359289
 DFT Exchange         Energy = -82.70444254161360
 One-Electron (alpha) Energy = -2015.94155560154832
 One-Electron (beta)  Energy = -2015.94155560154945
 Total Coulomb        Energy = 1351.49017010697844
    7   -2520.0619018095      1.75e-05  
 Alpha HF Exchange    Energy = -10.39592181954258
 Beta HF Exchange     Energy = -10.39592181954259
 DFT Correlation      Energy =  -3.12521023248038
 DFT Exchange         Energy = -82.70494490917986
 One-Electron (alpha) Energy = -2015.95569426270231
 One-Electron (beta)  Energy = -2015.95569426270254
 Total Coulomb        Energy = 1351.51908283726539
    8   -2520.0619036935      6.98e-06  
 Alpha HF Exchange    Energy = -10.39591242252041
 Beta HF Exchange     Energy = -10.39591242252041
 DFT Correlation      Energy =  -3.12521308505977
 DFT Exchange         Energy = -82.70487631240698
 One-Electron (alpha) Energy = -2015.95451557258548
 One-Electron (beta)  Energy = -2015.95451557258571
 Total Coulomb        Energy = 1351.51664061902920
    9   -2520.0619039933      5.27e-07  Convergence criterion met
 ---------------------------------------
 SCF time:   CPU 29.75s  wall 2.00s 
<S^2> =          0.000000000
 Alpha HF Exchange    Energy = -10.39591242252041
 Beta HF Exchange     Energy = -10.39591242252041
 DFT Correlation      Energy =  -3.12521308505977
 DFT Exchange         Energy = -82.70487631240698
 One-Electron (alpha) Energy = -2015.95451557258548
 One-Electron (beta)  Energy = -2015.95451557258571
 Total Coulomb        Energy = 1351.51664061902920
 Nuclear repulsion Energy = 266.95240077534629
 SCF   energy in the final basis set =    -2520.0619039933
 Total energy in the final basis set =    -2520.0619039933
 
 --------------------------------------------------------------
 
                    Orbital Energies (a.u.)
 --------------------------------------------------------------
 
 Alpha MOs
 -- Occupied --
******* -58.082 -52.138 -52.136 -52.135 -10.230 -10.187 -10.187
 -7.827  -5.781  -5.766  -5.756  -2.127  -2.107  -2.098  -2.091
 -2.090  -0.823  -0.757  -0.695  -0.589  -0.462  -0.451  -0.417
 -0.394  -0.386  -0.355  -0.346  -0.301  -0.228
 -- Virtual --
  0.010   0.080   0.119   0.145   0.150   0.163   0.170   0.179
  0.184   0.204   0.226   0.232   0.310   0.325   0.343   0.457
  0.459   0.498   0.510   0.561   0.576   0.672   0.683   0.690
  0.719   0.754   0.777   0.784   0.826   0.865   0.871   0.899
  0.903   0.927   0.952   0.953   1.064   1.313   1.367   1.377
  1.466   1.544   1.633   1.675   1.777   1.788   1.834   1.856
  1.892   2.038   2.039   2.041   2.069   2.097   2.102   2.102
  2.209   2.229   2.310   2.313   2.348   2.376   2.541   2.562
  2.613   2.666   2.702   2.721   2.747   2.862   2.865   2.895
  2.906   3.167   3.215   3.318   3.415   3.452   3.458   3.497
  4.230   4.263   4.337   4.352   4.442   4.507   4.600   4.879
  5.450  89.740
 
 Beta MOs
 -- Occupied --
******* -58.082 -52.138 -52.136 -52.135 -10.230 -10.187 -10.187
 -7.827  -5.781  -5.766  -5.756  -2.127  -2.107  -2.098  -2.091
 -2.090  -0.823  -0.757  -0.695  -0.589  -0.462  -0.451  -0.417
 -0.394  -0.386  -0.355  -0.346  -0.301  -0.228
 -- Virtual --
  0.010   0.080   0.119   0.145   0.150   0.163   0.170   0.179
  0.184   0.204   0.226   0.232   0.310   0.325   0.343   0.457
  0.459   0.498   0.510   0.561   0.576   0.672   0.683   0.690
  0.719   0.754   0.777   0.784   0.826   0.865   0.871   0.899
  0.903   0.927   0.952   0.953   1.064   1.313   1.367   1.377
  1.466   1.544   1.633   1.675   1.777   1.788   1.834   1.856
  1.892   2.038   2.039   2.041   2.069   2.097   2.102   2.102
  2.209   2.229   2.310   2.313   2.348   2.376   2.541   2.562
  2.613   2.666   2.702   2.721   2.747   2.862   2.865   2.895
  2.906   3.167   3.215   3.318   3.415   3.452   3.458   3.497
  4.230   4.263   4.337   4.352   4.442   4.507   4.600   4.879
  5.450  89.740
 --------------------------------------------------------------
 
          Ground-State Mulliken Net Atomic Charges

     Atom                 Charge (a.u.)    Spin (a.u.)
  --------------------------------------------------------
      1 C                    -0.306819       0.000000
      2 C                    -0.136499       0.000000
      3 Se                   -0.011370      -0.000000
      4 H                    -0.051295       0.000000
      5 C                    -0.306819      -0.000000
      6 H                     0.127367       0.000000
      7 H                     0.105239       0.000000
      8 H                     0.108622       0.000000
      9 H                     0.130347      -0.000000
     10 H                     0.105239       0.000000
     11 H                     0.127367       0.000000
     12 H                     0.108622       0.000000
  --------------------------------------------------------
  Sum of atomic charges =     0.000000
  Sum of spin   charges =     0.000000

 -----------------------------------------------------------------
                    Cartesian Multipole Moments
 -----------------------------------------------------------------
    Charge (ESU x 10^10)
                 0.0000
    Dipole Moment (Debye)
         X      -1.9521      Y      -0.0000      Z       0.5899
       Tot       2.0393
    Quadrupole Moments (Debye-Ang)
        XX     -38.7785     XY      -0.0000     YY     -40.2428
        XZ       1.5494     YZ       0.0000     ZZ     -36.7362
    Octopole Moments (Debye-Ang^2)
       XXX      44.2045    XXY      -0.0000    XYY      13.0114
       YYY      -0.0000    XXZ      -2.3450    XYZ      -0.0000
       YYZ      -4.1728    XZZ      16.4281    YZZ      -0.0000
       ZZZ      -9.0891
    Hexadecapole Moments (Debye-Ang^3)
      XXXX    -460.5297   XXXY       0.0000   XXYY    -119.5713
      XYYY       0.0000   YYYY    -219.6784   XXXZ       7.7907
      XXYZ       0.0000   XYYZ       0.6423   YYYZ       0.0000
      XXZZ     -89.2611   XYZZ       0.0000   YYZZ     -49.8464
      XZZZ       1.0397   YZZZ       0.0000   ZZZZ     -69.7379
 -----------------------------------------------------------------
 Calculating analytic gradient of the SCF energy
 Gradient of SCF Energy
            1           2           3           4           5           6
    1  -0.0000378   0.0000236  -0.1680202   0.1679498  -0.0000378   0.0000319
    2   0.0001401  -0.0000000  -0.0000000   0.0000000  -0.0001401  -0.0000452
    3   0.0001018  -0.0000532   1.1531726  -1.1530798   0.0001018  -0.0000163
            7           8           9          10          11          12
    1   0.0000179  -0.0000509   0.0001247   0.0000179   0.0000319  -0.0000509
    2  -0.0000114  -0.0000374  -0.0000000   0.0000114   0.0000452   0.0000374
    3  -0.0000634  -0.0000615   0.0000390  -0.0000634  -0.0000163  -0.0000615
 Max gradient component =       1.153E+00
 RMS gradient           =       2.747E-01
 Gradient time:  CPU 12.15 s  wall 1.04 s
 Geometry Optimization Parameters
   NAtoms,    NIC,     NZ,  NCons,   NDum,   NFix, NCnnct, MaxDiis
       12      75       0       1       0       0       0       0

 Cartesian Hessian Update
 Hessian Updated using BFGS Update
**WARNING** Hereditary positive definiteness endangered


** CONSTRAINED OPTIMIZATION IN DELOCALIZED INTERNAL COORDINATES **
   Searching for a Minimum

   Optimization Cycle:  12

                       Coordinates (Angstroms)
     ATOM                X               Y               Z
      1  C        -1.7371288791    1.2746141062    0.1742950293
      2  C        -1.0576046502    0.0000000000   -0.3236792521
      3  Se        0.8965743240    0.0000000000    0.1436069563
      4  H         0.7668770245    0.0000000000    1.0342127231
      5  C        -1.7371288791   -1.2746141061    0.1742950293
      6  H        -1.2434057219    2.1692675433   -0.2115270935
      7  H        -2.7851071509    1.2906066038   -0.1518084820
      8  H        -1.7324706009    1.3283589976    1.2683749641
      9  H        -1.0314219927    0.0000000000   -1.4163092630
     10  H        -2.7851071509   -1.2906066038   -0.1518084820
     11  H        -1.2434057219   -2.1692675433   -0.2115270935
     12  H        -1.7324706009   -1.3283589976    1.2683749641
   Point Group: c1    Number of degrees of freedom:    30


   Energy is  -2520.061903993

              Constraints and their Current Values
                                        Value     Constraint
   Distance(Angs):        3   4             0.900000     0.900000
 Hessian Updated using BFGS Update

 16 Hessian modes will be used to form the next step
  Hessian Eigenvalues:
     0.061449    0.205651    0.252812    0.419202    0.457435    0.458569
     0.742103    0.862801    0.866819    0.886119    1.074202    1.341799
     1.852697    1.873790    1.875853    1.876643

 Minimum Search - Taking Simple RFO Step
 Searching for Lamda that Minimizes Along All modes
 Value Taken    Lamda =   0.00000000
 Step Taken.  Stepsize is  0.000551

                             Maximum     Tolerance    Cnvgd?
         Gradient           0.000121      0.000300     YES
         Displacement       0.000388      0.001200     YES
         Energy change     -0.000002      0.000001      NO


                       Distance Matrix (Angstroms)
             C (  1)   C (  2)   Se(  3)   H (  4)   C (  5)   H (  6)
   C (  2)  1.527865
   Se(  3)  2.926085  2.009271
   H (  4)  2.938392  2.274336  0.900000
   C (  5)  2.549228  1.527865  2.926085  2.938392
   H (  6)  1.092257  2.180097  3.067793  3.209178  3.500420
   H (  7)  1.097660  2.163208  3.912507  3.960922  2.790154  1.775515
   H (  8)  1.095409  2.180509  3.153017  2.840089  2.823562  1.770995
   H (  9)  2.157008  1.092944  2.480022  3.039562  2.157008  2.490413
   H ( 10)  2.790154  2.163208  3.912507  3.960922  1.097660  3.788290
   H ( 11)  3.500420  2.180097  3.067793  3.209178  1.092257  4.338535
   H ( 12)  2.823562  2.180509  3.153017  2.840089  1.095409  3.829189
             H (  7)   H (  8)   H (  9)   H ( 10)   H ( 11)
   H (  8)  1.768160
   H (  9)  2.517943  3.076286
   H ( 10)  2.581213  3.159738  2.517943
   H ( 11)  3.788290  3.829189  2.490413  1.775515
   H ( 12)  3.159738  2.656718  3.076286  1.768160  1.770995
 
 Final energy is   -2520.06190399330     


 ******************************
 **  OPTIMIZATION CONVERGED  **
 ******************************

                       Coordinates (Angstroms)
     ATOM                X               Y               Z
      1  C        -1.7371288791    1.2746141062    0.1742950293
      2  C        -1.0576046502    0.0000000000   -0.3236792521
      3  Se        0.8965743240    0.0000000000    0.1436069563
      4  H         0.7668770245    0.0000000000    1.0342127231
      5  C        -1.7371288791   -1.2746141061    0.1742950293
      6  H        -1.2434057219    2.1692675433   -0.2115270935
      7  H        -2.7851071509    1.2906066038   -0.1518084820
      8  H        -1.7324706009    1.3283589976    1.2683749641
      9  H        -1.0314219927    0.0000000000   -1.4163092630
     10  H        -2.7851071509   -1.2906066038   -0.1518084820
     11  H        -1.2434057219   -2.1692675433   -0.2115270935
     12  H        -1.7324706009   -1.3283589976    1.2683749641

Z-matrix Print:
$molecule
0 1
Se
H  1 0.900000
C  1 2.009271 2 95.162496
H  3 1.092944 1 102.075417 2 -180.000000 0
C  3 1.527865 1 110.901334 2 -63.253749 0
H  5 1.092257 3 111.540086 1 -55.796949 0
H  5 1.095409 3 111.381275 1 65.083702 0
H  5 1.097660 3 109.873735 1 -175.957150 0
C  3 1.527865 1 110.901334 2 63.253749 0
H  9 1.092257 3 111.540086 1 55.796949 0
H  9 1.095409 3 111.381275 1 -65.083702 0
H  9 1.097660 3 109.873735 1 175.957150 0
$end

PES scan, value:    0.9000 energy: -2520.0619039933
------- Summary of potential scan: ------ 
    0.9000     -2520.0619039933
----------------------------------------- 
Archival summary:
1\1\hpc0248\JobtypUnspecified\ProcedureUnspecified\6-31G**\e138\knomura\WedMar1316:22:152019WedMar1316:22:152019\0\\#,JobtypUnspecified,ProcedureUnspecified,6-31G**,\\0,1\Se\H,1,0.9\C,1,2.00927,2,95.1625\H,3,1.09294,1,102.075,2,-180,0\C,3,1.52787,1,110.901,2,-63.2537,0\H,5,1.09226,3,111.54,1,-55.7969,0\H,5,1.09541,3,111.381,1,65.0837,0\H,5,1.09766,3,109.874,1,-175.957,0\C,3,1.52787,1,110.901,2,63.2537,0\H,9,1.09226,3,111.54,1,55.7969,0\H,9,1.09541,3,111.381,1,-65.0837,0\H,9,1.09766,3,109.874,1,175.957,0\\\@

 Total job time:  51.48s(wall), 566.80s(cpu) 
 Wed Mar 13 16:22:15 2019

        *************************************************************
        *                                                           *
        *  Thank you very much for using Q-Chem.  Have a nice day.  *
        *                                                           *
        *************************************************************


