
Running Job 1 of 1 selenium/01/Se-H.xyz.data/inputs/bond_singlet_3.4.in
qchem selenium/01/Se-H.xyz.data/inputs/bond_singlet_3.4.in_23353.0 /staging/scratch/2868765/qchem23353/ 1
/usr/usc/qchem/5.1.1/exe/qcprog.exe_s selenium/01/Se-H.xyz.data/inputs/bond_singlet_3.4.in_23353.0 /staging/scratch/2868765/qchem23353/
Check license passed

                  Welcome to Q-Chem
     A Quantum Leap Into The Future Of Chemistry


 Q-Chem 5.1, Q-Chem, Inc., Pleasanton, CA (2018)

 Yihan Shao,  Zhengting Gan,  E. Epifanovsky,  A. T. B. Gilbert,  M. Wormit,  
 J. Kussmann,  A. W. Lange,  A. Behn,  Jia Deng,  Xintian Feng,  D. Ghosh,  
 M. Goldey,  P. R. Horn,  L. D. Jacobson,  I. Kaliman,  T. Kus,  A. Landau,  
 Jie Liu,  E. I. Proynov,  R. M. Richard,  R. P. Steele,  E. J. Sundstrom,  
 H. L. Woodcock III,  P. M. Zimmerman,  D. Zuev,  B. Albrecht,  E. Alguire,  
 S. A. Baeppler,  D. Barton,  Z. Benda,  Y. A. Bernard,  E. J. Berquist,  
 K. B. Bravaya,  H. Burton,  D. Casanova,  Chun-Min Chang,  Yunqing Chen,  
 A. Chien,  K. D. Closser,  M. P. Coons,  S. Coriani,  S. Dasgupta,  
 A. L. Dempwolff,  M. Diedenhofen,  Hainam Do,  R. G. Edgar,  Po-Tung Fang,  
 S. Faraji,  S. Fatehi,  Qingguo Feng,  K. D. Fenk,  J. Fosso-Tande,  
 Qinghui Ge,  A. Ghysels,  G. Gidofalvi,  J. Gomes,  J. Gonthier,  A. Gunina,  
 D. Hait,  M. W. D. Hanson-Heine,  P. H. P. Harbach,  A. W. Hauser,  
 J. E. Herr,  E. G. Hohenstein,  Z. C. Holden,  Kerwin Hui,  B. C. Huynh,  
 T.-C. Jagau,  Hyunjun Ji,  B. Kaduk,  K. Khistyaev,  Jaehoon Kim,  
 P. Klunzinger,  K. Koh,  D. Kosenkov,  L. Koulias,  T. Kowalczyk,  
 C. M. Krauter,  A. Kunitsa,  Ka Un Lao,  A. Laurent,  K. V. Lawler,  
 Joonho Lee,  D. Lefrancois,  S. Lehtola,  D. S. Levine,  Yi-Pei Li,  
 You-Sheng Lin,  Fenglai Liu,  E. Livshits,  A. Luenser,  P. Manohar,  
 E. Mansoor,  S. F. Manzer,  Shan-Ping Mao,  Yuezhi Mao,  N. Mardirossian,  
 A. V. Marenich,  T. Markovich,  L. A. Martinez-Martinez,  S. A. Maurer,  
 N. J. Mayhall,  S. C. McKenzie,  J.-M. Mewes,  A. F. Morrison,  
 J. W. Mullinax,  K. Nanda,  T. S. Nguyen-Beck,  R. Olivares-Amaya,  
 J. A. Parkhill,  T. M. Perrine,  F. Plasser,  P. Pokhilko,  S. Prager,  
 A. Prociuk,  E. Ramos,  D. R. Rehn,  F. Rob,  M. Schneider,  N. Sergueev,  
 S. M. Sharada,  S. Sharma,  D. W. Small,  T. Stauch,  T. Stein,  
 Yu-Chuan Su,  A. J. W. Thom,  A. Tkatchenko,  T. Tsuchimochi,  N. M. Tubman,  
 L. Vogt,  M. L. Vidal,  O. Vydrov,  M. A. Watson,  J. Wenzel,  
 M. de Wergifosse,  T. A. Wesolowski,  A. White,  J. Witte,  A. Yamada,  
 Jun Yang,  K. Yao,  S. Yeganeh,  S. R. Yost,  Zhi-Qiang You,  A. Zech,  
 Igor Ying Zhang,  Xing Zhang,  Yan Zhao,  Ying Zhu,  B. R. Brooks,  
 G. K. L. Chan,  C. J. Cramer,  M. S. Gordon,  W. J. Hehre,  A. Klamt,  
 M. W. Schmidt,  C. D. Sherrill,  D. G. Truhlar,  A. Aspuru-Guzik,  R. Baer,  
 A. T. Bell,  N. A. Besley,  Jeng-Da Chai,  A. E. DePrince, III,  
 R. A. DiStasio Jr.,  A. Dreuw,  B. D. Dunietz,  T. R. Furlani,  
 Chao-Ping Hsu,  Yousung Jung,  Jing Kong,  D. S. Lambrecht,  WanZhen Liang,  
 C. Ochsenfeld,  V. A. Rassolov,  L. V. Slipchenko,  J. E. Subotnik,  
 T. Van Voorhis,  J. M. Herbert,  A. I. Krylov,  P. M. W. Gill,  M. Head-Gordon

 Contributors to earlier versions of Q-Chem not listed above: 
 R. D. Adamson,  B. Austin,  J. Baker,  G. J. O. Beran,  K. Brandhorst,  
 S. T. Brown,  E. F. C. Byrd,  A. K. Chakraborty,  C.-L. Cheng,  
 Siu Hung Chien,  D. M. Chipman,  D. L. Crittenden,  H. Dachsel,  
 R. J. Doerksen,  A. D. Dutoi,  L. Fusti-Molnar,  W. A. Goddard III,  
 A. Golubeva-Zadorozhnaya,  S. R. Gwaltney,  G. Hawkins,  A. Heyden,  
 S. Hirata,  G. Kedziora,  F. J. Keil,  C. Kelley,  Jihan Kim,  R. A. King,  
 R. Z. Khaliullin,  P. P. Korambath,  W. Kurlancheek,  A. M. Lee,  M. S. Lee,  
 S. V. Levchenko,  Ching Yeh Lin,  D. Liotard,  R. C. Lochan,  I. Lotan,  
 P. E. Maslen,  N. Nair,  D. P. O'Neill,  D. Neuhauser,  E. Neuscamman,  
 C. M. Oana,  R. Olson,  B. Peters,  R. Peverati,  P. A. Pieniazek,  
 Y. M. Rhee,  J. Ritchie,  M. A. Rohrdanz,  E. Rosta,  N. J. Russ,  
 H. F. Schaefer III,  N. E. Schultz,  N. Shenvi,  A. C. Simmonett,  A. Sodt,  
 D. Stuck,  K. S. Thanthiriwatte,  V. Vanovschi,  Tao Wang,  A. Warshel,  
 C. F. Williams,  Q. Wu,  X. Xu,  W. Zhang

 Please cite Q-Chem as follows:
 Y. Shao et al., Mol. Phys. 113, 184-215 (2015)
 DOI: 10.1080/00268976.2014.952696

 Q-Chem 5.1.1 for Intel X86 EM64T Linux

 Parts of Q-Chem use Armadillo 8.300.2 (Tropical Shenanigans).
 http://arma.sourceforge.net/

 Q-Chem begins on Wed Mar 13 16:31:17 2019  

Host: 
0

     Scratch files written to /staging/scratch/2868765/qchem23353//
 Aug318 |scratch|qcdevops|jenkins|workspace|build_RNUM 6013   
Processing $rem in /usr/usc/qchem/5.1.1/config/preferences.
 MEM_TOTAL  2000 
Input Ideriv = 2
Curr. Ideriv = -1
Max.  Ideriv = 2

Checking the input file for inconsistencies... 	...done.

--------------------------------------------------------------
User input:
--------------------------------------------------------------

$comment
potential surface scanner
$end

$rem
JOBTYPE  PES_SCAN
UNRESTRICTED TRUE
SYM_IGNORE  TRUE
GEOM_OPT_MAX_CYCLES 400
SCF_MAX_CYCLES 400
METHOD   B3LYP
BASIS   6-31G**
PDB_PRINT 2
SCF_CONVERGENCE 6
THRESH 14
SCF_PRINT 1
$end
$molecule
0 1
C -1.713006 1.273965 0.086224
C -1.149595 0.000000 -0.543465
Se 0.822971 0.000000 -0.610988
H 0.864570 0.000000 2.688750
C -1.713006 -1.273965 0.086224
H -1.326945 2.173511 -0.398191
H -2.807259 1.277295 0.008098
H -1.447426 1.316956 1.147580
H -1.370474 0.000000 -1.625226
H -2.807259 -1.277295 0.008098
H -1.326945 -2.173511 -0.398191
H -1.447426 -1.316956 1.147580
$end
$scan
stre 3 4 3.400000 3.401000 0.100000
$end
--------------------------------------------------------------
 ----------------------------------------------------------------
             Standard Nuclear Orientation (Angstroms)
    I     Atom           X                Y                Z
 ----------------------------------------------------------------
    1      C      -1.7130060000     1.2739650000     0.0862240000
    2      C      -1.1495950000     0.0000000000    -0.5434650000
    3      Se      0.8229710000     0.0000000000    -0.6109880000
    4      H       0.8645700000     0.0000000000     2.6887500000
    5      C      -1.7130060000    -1.2739650000     0.0862240000
    6      H      -1.3269450000     2.1735110000    -0.3981910000
    7      H      -2.8072590000     1.2772950000     0.0080980000
    8      H      -1.4474260000     1.3169560000     1.1475800000
    9      H      -1.3704740000     0.0000000000    -1.6252260000
   10      H      -2.8072590000    -1.2772950000     0.0080980000
   11      H      -1.3269450000    -2.1735110000    -0.3981910000
   12      H      -1.4474260000    -1.3169560000     1.1475800000
 ----------------------------------------------------------------
 Nuclear Repulsion Energy =   252.3758668057 hartrees
 There are       30 alpha and       30 beta electrons
 Requested basis set is 6-31G(d,p)
 There are 44 shells and 120 basis functions

 Total QAlloc Memory Limit   2000 MB
 Mega-Array Size       188 MB
 MEM_STATIC part       192 MB
A total of 1 constraints
  
            1
    1   1.0100000
    2   3.0100000
    3   4.0100000
    4   3.4000000
    5   3.4010000
    6   0.1000000
    7   0.0000000
    8   0.0000000
    9   0.0000000
   10   0.0000000

                       Distance Matrix (Angstroms)
             C (  1)   C (  2)   Se(  3)   H (  4)   C (  5)   H (  6)
   C (  2)  1.528701
   Se(  3)  2.922374  1.973721
   H (  4)  3.878147  3.808422  3.300000
   C (  5)  2.547930  1.528701  2.922374  3.878147
   H (  6)  1.092192  2.185568  3.064567  4.365328  3.502684
   H (  7)  1.097043  2.164152  3.897861  4.722256  2.777125  1.777527
   H (  8)  1.094924  2.163957  3.159373  3.074883  2.812451  1.771330
   H (  9)  2.160874  1.104081  2.416584  4.858581  2.160874  2.496329
   H ( 10)  2.777125  2.164152  3.897861  4.722256  1.097043  3.776832
   H ( 11)  3.502684  2.185568  3.064567  4.365328  1.092192  4.347022
   H ( 12)  2.812451  2.163957  3.159373  3.074883  1.094924  3.819330
             H (  7)   H (  8)   H (  9)   H ( 10)   H ( 11)
   H (  8)  1.774581
   H (  9)  2.522614  3.070627
   H ( 10)  2.554590  3.142881  2.522614
   H ( 11)  3.776832  3.819330  2.496329  1.777527
   H ( 12)  3.142881  2.633912  3.070627  1.774581  1.771330
 
 A cutoff of  1.0D-14 yielded    946 shell pairs
 There are      7142 function pairs
 
 -------------------------------------------------------
 OpenMP Integral Computing Module                       
 Release: version 1.0, May 2013, Q-Chem Inc. Pittsburgh 
 -------------------------------------------------------
 Integral Job Info:
 Integral job number is                      11
 Integral operator is                         1
 short-range coefficients                     0
 long-range coefficients              100000000
 Omega coefficients                           0
 if combine SR and LR in K                    0
 Integral screening is                        0
 Integral computing path is                   2
 max size of driver memory is            800000
 size of driver memory is                593474
 size of scratch memory is             15267112
 max col of scratch BK array               1296
 max len of scratch array in speh3          155
 max len of scratch index in speh4           18
 max int batch size is                      520
 min int batch size is                       52
 fixed nKL is                                52
 max L of basis functions is                  2
 order of int derivative is                   0
 number of shells is                         44
 number of basis is                         120
 number of cartesian basis is               120
 number of contracted shell pairs           946
 number of primitive shell pairs           3535
 maxK2 (contraction) of shell pair           36
 max number of K2 of shell pair               1
 max number of CS2 of shell pair             78
 max number of PS2 of shell pair            294
 mem total for path MDJ                  519708
 -------------------------------------------------------
 Smallest overlap matrix eigenvalue = 6.76E-04

 Scale SEOQF with 1.000000e-01/1.000000e-01/1.000000e-01

 Standard Electronic Orientation quadrupole field applied
 Nucleus-field energy     =     0.0000000029 hartrees
 Guess from superposition of atomic densities
 Warning:  Energy on first SCF cycle will be non-variational
 SAD guess density has 59.968191 electrons

 -----------------------------------------------------------------------
  General SCF calculation program by
  Eric Jon Sundstrom, Paul Horn, Yuezhi Mao, Dmitri Zuev, Alec White,
  David Stuck, Shaama M.S., Shane Yost, Joonho Lee, David Small,
  Daniel Levine, Susi Lehtola, Hugh Burton, Evgeny Epifanovsky
 -----------------------------------------------------------------------
 Exchange:     0.2000 Hartree-Fock + 0.0800 Slater + 0.7200 B88
 Correlation:  0.1900 VWN1RPA + 0.8100 LYP
 Using SG-1 standard quadrature grid
 using 12 threads for integral computing
 -------------------------------------------------------
 OpenMP Integral computing Module                
 Release: version 1.0, May 2013, Q-Chem Inc. Pittsburgh 
 -------------------------------------------------------
 -------------------------------------------------------
 OpenMP BLAS3 based DFT computing Module                
 Release: version 1.0, May 2013, Q-Chem Inc. Pittsburgh 
 -------------------------------------------------------
 A unrestricted SCF calculation will be
 performed using DIIS
 SCF converges when DIIS error is below 1.0e-06
 Alpha HF Exchange    Energy = -10.34321337271311
 Beta HF Exchange     Energy = -10.34321337271311
 DFT Correlation      Energy =  -3.08002730339713
 DFT Exchange         Energy = -81.97887462696849
 One-Electron (alpha) Energy = -1999.64260363375251
 One-Electron (beta)  Energy = -1999.64260363375251
 Total Coulomb        Energy = 1329.48916760192606
 ---------------------------------------
  Cycle       Energy         DIIS error
 ---------------------------------------
    1   -2523.1655015328      1.38e-01  
 Alpha HF Exchange    Energy = -10.42706912471298
 Beta HF Exchange     Energy = -10.42706912471298
 DFT Correlation      Energy =  -3.13702838486924
 DFT Exchange         Energy = -82.97514776433945
 One-Electron (alpha) Energy = -2011.68848267442945
 One-Electron (beta)  Energy = -2011.68848267442877
 Total Coulomb        Energy = 1358.08486103033306
    2   -2519.8825519086      9.43e-03  
 Alpha HF Exchange    Energy = -10.28255048155995
 Beta HF Exchange     Energy = -10.28255048155997
 DFT Correlation      Energy =  -3.06721664731065
 DFT Exchange         Energy = -81.80350703548123
 One-Electron (alpha) Energy = -1986.30910768139165
 One-Electron (beta)  Energy = -1986.30910768139370
 Total Coulomb        Energy = 1306.28039000425542
    3   -2519.3977831958      8.56e-03  
 Alpha HF Exchange    Energy = -10.41250942792800
 Beta HF Exchange     Energy = -10.41250942792798
 DFT Correlation      Energy =  -3.13075681744508
 DFT Exchange         Energy = -82.83838122477579
 One-Electron (alpha) Energy = -2011.50949128306070
 One-Electron (beta)  Energy = -2011.50949128305956
 Total Coulomb        Energy = 1357.54051139115768
    4   -2519.8967612644      4.31e-03  
 Alpha HF Exchange    Energy = -10.35007655083638
 Beta HF Exchange     Energy = -10.35007655083638
 DFT Correlation      Energy =  -3.09379766004590
 DFT Exchange         Energy = -82.35001751872933
 One-Electron (alpha) Energy = -1994.34832703293478
 One-Electron (beta)  Energy = -1994.34832703293455
 Total Coulomb        Energy = 1322.55136779018721
    5   -2519.9133877475      3.59e-03  
 Alpha HF Exchange    Energy = -10.37236829001341
 Beta HF Exchange     Energy = -10.37236829001340
 DFT Correlation      Energy =  -3.11706593656144
 DFT Exchange         Energy = -82.53073437933062
 One-Electron (alpha) Energy = -2006.74131508071923
 One-Electron (beta)  Energy = -2006.74131508071764
 Total Coulomb        Energy = 1347.43260510802020
    6   -2520.0666951407      2.18e-03  
 Alpha HF Exchange    Energy = -10.34348516204493
 Beta HF Exchange     Energy = -10.34348516204492
 DFT Correlation      Energy =  -3.09605934553676
 DFT Exchange         Energy = -82.34963172199096
 One-Electron (alpha) Energy = -1998.58060639706127
 One-Electron (beta)  Energy = -1998.58060639705968
 Total Coulomb        Energy = 1330.68387175021235
    7   -2520.2341356269      1.70e-03  
 Alpha HF Exchange    Energy = -10.34809844981318
 Beta HF Exchange     Energy = -10.34809844981319
 DFT Correlation      Energy =  -3.09953620390863
 DFT Exchange         Energy = -82.39609458140464
 One-Electron (alpha) Energy = -2000.07919730146205
 One-Electron (beta)  Energy = -2000.07919730146341
 Total Coulomb        Energy = 1333.70558739175203
    8   -2520.2687680875      8.98e-04  
 Alpha HF Exchange    Energy = -10.34825814703050
 Beta HF Exchange     Energy = -10.34825814703051
 DFT Correlation      Energy =  -3.09869708435029
 DFT Exchange         Energy = -82.39476827287746
 One-Electron (alpha) Energy = -1999.64819255557745
 One-Electron (beta)  Energy = -1999.64819255557745
 Total Coulomb        Energy = 1332.85393597419534
    9   -2520.2565639796      1.18e-03  
 Alpha HF Exchange    Energy = -10.34830106260589
 Beta HF Exchange     Energy = -10.34830106260589
 DFT Correlation      Energy =  -3.09881843775687
 DFT Exchange         Energy = -82.39546509385207
 One-Electron (alpha) Energy = -1999.68861355769786
 One-Electron (beta)  Energy = -1999.68861355769832
 Total Coulomb        Energy = 1332.93435845754311
   10   -2520.2578875061      1.15e-03  
 Alpha HF Exchange    Energy = -10.34866808784103
 Beta HF Exchange     Energy = -10.34866808784101
 DFT Correlation      Energy =  -3.09945326803518
 DFT Exchange         Energy = -82.40049516129443
 One-Electron (alpha) Energy = -2000.01632495475633
 One-Electron (beta)  Energy = -2000.01632495475610
 Total Coulomb        Energy = 1333.58860729629032
   11   -2520.2654604096      9.69e-04  
 Alpha HF Exchange    Energy = -10.34950192399055
 Beta HF Exchange     Energy = -10.34950192399054
 DFT Correlation      Energy =  -3.10065665252906
 DFT Exchange         Energy = -82.40992827485260
 One-Electron (alpha) Energy = -2000.64797529914267
 One-Electron (beta)  Energy = -2000.64797529914244
 Total Coulomb        Energy = 1334.85277444882672
   12   -2520.2768981162      5.74e-04  
 Alpha HF Exchange    Energy = -10.35049017808655
 Beta HF Exchange     Energy = -10.35049017808657
 DFT Correlation      Energy =  -3.10168963202903
 DFT Exchange         Energy = -82.41886259431891
 One-Electron (alpha) Energy = -2001.18438066103226
 One-Electron (beta)  Energy = -2001.18438066103863
 Total Coulomb        Energy = 1335.93279041206097
   13   -2520.2816366839      2.59e-04  
 Alpha HF Exchange    Energy = -10.35094219119748
 Beta HF Exchange     Energy = -10.35094219119750
 DFT Correlation      Energy =  -3.10210683633529
 DFT Exchange         Energy = -82.42270567313054
 One-Electron (alpha) Energy = -2001.38224060287985
 One-Electron (beta)  Energy = -2001.38224060289326
 Total Coulomb        Energy = 1336.33284250081215
   14   -2520.2824687882      1.37e-04  
 Alpha HF Exchange    Energy = -10.35147482926663
 Beta HF Exchange     Energy = -10.35147482926673
 DFT Correlation      Energy =  -3.10255295497898
 DFT Exchange         Energy = -82.42694339449469
 One-Electron (alpha) Energy = -2001.60093915471361
 One-Electron (beta)  Energy = -2001.60093915476023
 Total Coulomb        Energy = 1336.77565635377550
   15   -2520.2828011551      6.28e-06  
 Alpha HF Exchange    Energy = -10.35148889238096
 Beta HF Exchange     Energy = -10.35148889238115
 DFT Correlation      Energy =  -3.10256714629135
 DFT Exchange         Energy = -82.42706299671204
 One-Electron (alpha) Energy = -2001.60723519998078
 One-Electron (beta)  Energy = -2001.60723520007946
 Total Coulomb        Energy = 1336.78840983135274
   16   -2520.2828016879      2.48e-06  
 Alpha HF Exchange    Energy = -10.35149691934448
 Beta HF Exchange     Energy = -10.35149691934491
 DFT Correlation      Energy =  -3.10257310645629
 DFT Exchange         Energy = -82.42712645129684
 One-Electron (alpha) Energy = -2001.61023283011309
 One-Electron (beta)  Energy = -2001.61023283032728
 Total Coulomb        Energy = 1336.79449046012905
   17   -2520.2828017882      6.68e-07  Convergence criterion met
 ---------------------------------------
 SCF time:   CPU 53.41s  wall 4.00s 
<S^2> =         -0.000000000
 Alpha HF Exchange    Energy = -10.35149691934448
 Beta HF Exchange     Energy = -10.35149691934491
 DFT Correlation      Energy =  -3.10257310645629
 DFT Exchange         Energy = -82.42712645129684
 One-Electron (alpha) Energy = -2001.61023283011309
 One-Electron (beta)  Energy = -2001.61023283032728
 Total Coulomb        Energy = 1336.79449046012905
 Nuclear repulsion Energy = 252.37586680860224
 SCF   energy in the final basis set =    -2520.2828017882
 Total energy in the final basis set =    -2520.2828017882
 
 --------------------------------------------------------------
 
                    Orbital Energies (a.u.)
 --------------------------------------------------------------
 
 Alpha MOs
 -- Occupied --
******* -58.110 -52.169 -52.167 -52.163 -10.239 -10.190 -10.190
 -7.842  -5.789  -5.783  -5.772  -2.122  -2.122  -2.112  -2.108
 -2.106  -0.813  -0.697  -0.677  -0.571  -0.467  -0.441  -0.420
 -0.395  -0.362  -0.360  -0.317  -0.252  -0.231
 -- Virtual --
 -0.181   0.018   0.082   0.129   0.146   0.148   0.165   0.177
  0.185   0.189   0.225   0.226   0.308   0.320   0.324   0.453
  0.464   0.480   0.500   0.552   0.570   0.583   0.667   0.676
  0.698   0.756   0.767   0.788   0.811   0.823   0.865   0.868
  0.904   0.908   0.922   0.953   0.953   1.071   1.310   1.384
  1.387   1.465   1.542   1.648   1.726   1.781   1.827   1.853
  1.890   2.012   2.013   2.033   2.036   2.039   2.042   2.069
  2.092   2.100   2.106   2.261   2.305   2.343   2.370   2.504
  2.556   2.615   2.652   2.696   2.713   2.859   2.862   2.893
  2.897   3.165   3.216   3.290   3.410   3.442   3.452   3.492
  4.215   4.230   4.234   4.331   4.339   4.448   4.500   4.611
  5.444  89.701
 
 Beta MOs
 -- Occupied --
******* -58.110 -52.169 -52.167 -52.163 -10.239 -10.190 -10.190
 -7.842  -5.789  -5.783  -5.772  -2.122  -2.122  -2.112  -2.108
 -2.106  -0.813  -0.697  -0.677  -0.571  -0.467  -0.441  -0.420
 -0.395  -0.362  -0.360  -0.317  -0.252  -0.231
 -- Virtual --
 -0.181   0.018   0.082   0.129   0.146   0.148   0.165   0.177
  0.185   0.189   0.225   0.226   0.308   0.320   0.324   0.453
  0.464   0.480   0.500   0.552   0.570   0.583   0.667   0.676
  0.698   0.756   0.767   0.788   0.811   0.823   0.865   0.868
  0.904   0.908   0.922   0.953   0.953   1.071   1.310   1.384
  1.387   1.465   1.542   1.648   1.726   1.781   1.827   1.853
  1.890   2.012   2.013   2.033   2.036   2.039   2.042   2.069
  2.092   2.100   2.106   2.261   2.305   2.343   2.370   2.504
  2.556   2.615   2.652   2.696   2.713   2.859   2.862   2.893
  2.897   3.165   3.216   3.290   3.410   3.442   3.452   3.492
  4.215   4.230   4.234   4.331   4.339   4.448   4.500   4.611
  5.444  89.701
 --------------------------------------------------------------
 
          Ground-State Mulliken Net Atomic Charges

     Atom                 Charge (a.u.)    Spin (a.u.)
  --------------------------------------------------------
      1 C                    -0.300451      -0.000000
      2 C                    -0.162588      -0.000000
      3 Se                   -0.051332      -0.000000
      4 H                    -0.032956       0.000000
      5 C                    -0.300451       0.000000
      6 H                     0.124447       0.000000
      7 H                     0.106393      -0.000000
      8 H                     0.123886       0.000000
      9 H                     0.138325      -0.000000
     10 H                     0.106393       0.000000
     11 H                     0.124447      -0.000000
     12 H                     0.123886      -0.000000
  --------------------------------------------------------
  Sum of atomic charges =    -0.000000
  Sum of spin   charges =    -0.000000

 -----------------------------------------------------------------
                    Cartesian Multipole Moments
 -----------------------------------------------------------------
    Charge (ESU x 10^10)
                -0.0000
    Dipole Moment (Debye)
         X      -2.0702      Y      -0.0000      Z      -0.7265
       Tot       2.1939
    Quadrupole Moments (Debye-Ang)
        XX     -38.6320     XY      -0.0000     YY     -41.2563
        XZ       0.5715     YZ       0.0000     ZZ     -38.8219
    Octopole Moments (Debye-Ang^2)
       XXX      46.1498    XXY       0.0000    XYY      13.1535
       YYY       0.0000    XXZ       7.5966    XYZ       0.0000
       YYZ       9.4283    XZZ      15.0909    YZZ      -0.0000
       ZZZ      25.2244
    Hexadecapole Moments (Debye-Ang^3)
      XXXX    -444.1328   XXXY      -0.0000   XXYY    -116.9562
      XYYY      -0.0000   YYYY    -219.7516   XXXZ      13.9355
      XXYZ       0.0000   XYYZ       6.1818   YYYZ       0.0000
      XXZZ    -107.1188   XYZZ      -0.0000   YYZZ     -68.2907
      XZZZ      14.7837   YZZZ       0.0000   ZZZZ    -167.7875
 -----------------------------------------------------------------
 Calculating analytic gradient of the SCF energy
 Gradient of SCF Energy
            1           2           3           4           5           6
    1   0.0001167  -0.0001207  -0.0003795   0.0004694   0.0001167  -0.0000520
    2  -0.0000233   0.0000000  -0.0000000  -0.0000000   0.0000233  -0.0000029
    3   0.0000906  -0.0000926  -0.0250241   0.0249922   0.0000906   0.0000127
            7           8           9          10          11          12
    1  -0.0000311  -0.0000128  -0.0000109  -0.0000311  -0.0000520  -0.0000128
    2  -0.0000226  -0.0000937  -0.0000000   0.0000226   0.0000029   0.0000937
    3   0.0000632  -0.0001219   0.0000354   0.0000632   0.0000127  -0.0001219
 Max gradient component =       2.502E-02
 RMS gradient           =       5.896E-03
 Gradient time:  CPU 12.73 s  wall 1.09 s
 Geometry Optimization Parameters
   NAtoms,    NIC,     NZ,  NCons,   NDum,   NFix, NCnnct, MaxDiis
       12      94       0       1       0       0       0       0


** CONSTRAINED OPTIMIZATION IN DELOCALIZED INTERNAL COORDINATES **
   Searching for a Minimum

   Optimization Cycle:   1

                       Coordinates (Angstroms)
     ATOM                X               Y               Z
      1  C        -1.7130060000    1.2739650000    0.0862240000
      2  C        -1.1495950000    0.0000000000   -0.5434650000
      3  Se        0.8229710000    0.0000000000   -0.6109880000
      4  H         0.8645700000    0.0000000000    2.6887500000
      5  C        -1.7130060000   -1.2739650000    0.0862240000
      6  H        -1.3269450000    2.1735110000   -0.3981910000
      7  H        -2.8072590000    1.2772950000    0.0080980000
      8  H        -1.4474260000    1.3169560000    1.1475800000
      9  H        -1.3704740000    0.0000000000   -1.6252260000
     10  H        -2.8072590000   -1.2772950000    0.0080980000
     11  H        -1.3269450000   -2.1735110000   -0.3981910000
     12  H        -1.4474260000   -1.3169560000    1.1475800000
   Point Group: c1    Number of degrees of freedom:    30


   Energy is  -2520.282801788

              Constraints and their Current Values
                                        Value     Constraint
   Distance(Angs):        3   4             3.300000     3.400000

 Attempting to Generate Delocalized Internal Coordinates

   Using Lagrange Multiplier Algorithm


 18 Hessian modes will be used to form the next step
  Hessian Eigenvalues:
    -0.995012    0.014704    0.046134    0.066410    0.075148    0.078118
     0.087573    0.114126    0.125122    0.136769    0.158972    0.172748
     0.283918    0.331626    0.332348    0.340112    0.345605    1.005013

 Minimum Search - Taking P-RFO Step
 Searching for Lamda that Maximizes Along the Constraint modes Only
 Value Taken    Lamda =   0.02258785


 ********************************************
 ** ERROR IN DETERMINING Lamda IN CONFormD **
 ********************************************


 ** Scaling Hessian by  3.072240 **


 18 Hessian modes will be used to form the next step
  Hessian Eigenvalues:
    -0.984755    0.045176    0.141734    0.204026    0.230873    0.239996
     0.269047    0.350621    0.384404    0.420186    0.488400    0.530722
     0.872264    1.015481    1.018833    1.021054    1.044905    1.061782

 Minimum Search - Taking P-RFO Step
 Searching for Lamda that Maximizes Along the Constraint modes Only
 Value Taken    Lamda =   0.02298863
 Searching for Lamda that Minimizes Along All other modes
 Value Taken    Lamda =  -0.01280810
 Step Taken.  Stepsize is  0.185498

                             Maximum     Tolerance    Cnvgd?
         Gradient            0.188972       0.000300      NO
         Displacement        0.185495       0.001200      NO
         Energy change     *********       0.000001      NO


 New Cartesian Coordinates Obtained by Inverse Iteration

 Displacement from previous Coordinates is:  0.148968
 ----------------------------------------------------------------
             Standard Nuclear Orientation (Angstroms)
    I     Atom           X                Y                Z
 ----------------------------------------------------------------
    1      C      -1.7099203290     1.2688737826     0.0851731750
    2      C      -1.1477804686     0.0000000000    -0.5576974336
    3      Se      0.8235665702     0.0000000000    -0.6574801141
    4      H       0.8490385904     0.0000000000     2.7405845122
    5      C      -1.7099203290    -1.2688737826     0.0851731750
    6      H      -1.3295490795     2.1706210794    -0.3996719113
    7      H      -2.8048674827     1.2709049520     0.0176264300
    8      H      -1.4409681834     1.3062112737     1.1513913615
    9      H      -1.3760145428     0.0000000000    -1.6379520749
   10      H      -2.8048674827    -1.2709049520     0.0176264300
   11      H      -1.3295490795    -2.1706210794    -0.3996719113
   12      H      -1.4409681834    -1.3062112737     1.1513913615
 ----------------------------------------------------------------
 Nuclear Repulsion Energy =   251.9439247971 hartrees
 There are       30 alpha and       30 beta electrons

                       Distance Matrix (Angstroms)
             C (  1)   C (  2)   Se(  3)   H (  4)   C (  5)   H (  6)
   C (  2)  1.529485
   Se(  3)  2.929186  1.973871
   H (  4)  3.899939  3.855639  3.398160
   C (  5)  2.537748  1.529485  2.929186  3.899939
   H (  6)  1.092202  2.183943  3.068219  4.395344  3.494264
   H (  7)  1.097031  2.166133  3.903396  4.730828  2.766577  1.777693
   H (  8)  1.100250  2.170975  3.179044  3.078287  2.800039  1.779162
   H (  9)  2.165801  1.104102  2.408211  4.911460  2.165801  2.499418
   H ( 10)  2.766577  2.166133  3.903396  4.730828  1.097031  3.767599
   H ( 11)  3.494264  2.183943  3.068219  4.395344  1.092202  4.341242
   H ( 12)  2.800039  2.170975  3.179044  3.078287  1.100250  3.808750
             H (  7)   H (  8)   H (  9)   H ( 10)   H ( 11)
   H (  8)  1.773948
   H (  9)  2.529379  3.080721
   H ( 10)  2.541810  3.128446  2.529379
   H ( 11)  3.767599  3.808750  2.499418  1.777693
   H ( 12)  3.128446  2.612423  3.080721  1.773948  1.779162
 
 Applying Cartesian multipole field
    Component          Value
    ---------          -----
     (2,0,0)        1.00000E-11
     (0,2,0)        2.00000E-11
     (0,0,2)       -3.00000E-11
 Nucleus-field energy     =     0.0000000026 hartrees
 Requested basis set is 6-31G(d,p)
 There are 44 shells and 120 basis functions
 A cutoff of  1.0D-14 yielded    943 shell pairs
 There are      7122 function pairs
 Smallest overlap matrix eigenvalue = 6.76E-04
 Guess from superposition of atomic densities
 Warning:  Energy on first SCF cycle will be non-variational
 SAD guess density has 59.968191 electrons

 -----------------------------------------------------------------------
  General SCF calculation program by
  Eric Jon Sundstrom, Paul Horn, Yuezhi Mao, Dmitri Zuev, Alec White,
  David Stuck, Shaama M.S., Shane Yost, Joonho Lee, David Small,
  Daniel Levine, Susi Lehtola, Hugh Burton, Evgeny Epifanovsky
 -----------------------------------------------------------------------
 Exchange:     0.2000 Hartree-Fock + 0.0800 Slater + 0.7200 B88
 Correlation:  0.1900 VWN1RPA + 0.8100 LYP
 Using SG-1 standard quadrature grid
 using 12 threads for integral computing
 -------------------------------------------------------
 OpenMP Integral computing Module                
 Release: version 1.0, May 2013, Q-Chem Inc. Pittsburgh 
 -------------------------------------------------------
 -------------------------------------------------------
 OpenMP BLAS3 based DFT computing Module                
 Release: version 1.0, May 2013, Q-Chem Inc. Pittsburgh 
 -------------------------------------------------------
 A unrestricted SCF calculation will be
 performed using DIIS
 SCF converges when DIIS error is below 1.0e-06
 Alpha HF Exchange    Energy = -10.34230681048472
 Beta HF Exchange     Energy = -10.34230681048472
 DFT Correlation      Energy =  -3.07969110445237
 DFT Exchange         Energy = -81.97700218165468
 One-Electron (alpha) Energy = -1999.21694053694978
 One-Electron (beta)  Energy = -1999.21694053694978
 Total Coulomb        Energy = 1329.07307210518320
 ---------------------------------------
  Cycle       Energy         DIIS error
 ---------------------------------------
    1   -2523.1581910761      1.38e-01  
 Alpha HF Exchange    Energy = -10.42756222202987
 Beta HF Exchange     Energy = -10.42756222202988
 DFT Correlation      Energy =  -3.13737763159971
 DFT Exchange         Energy = -82.97755101833667
 One-Electron (alpha) Energy = -2011.47875920369052
 One-Electron (beta)  Energy = -2011.47875920369279
 Total Coulomb        Energy = 1358.11972440501222
    2   -2519.8639222967      9.43e-03  
 Alpha HF Exchange    Energy = -10.28057628303422
 Beta HF Exchange     Energy = -10.28057628303423
 DFT Correlation      Energy =  -3.06623546015711
 DFT Exchange         Energy = -81.78866872178200
 One-Electron (alpha) Energy = -1985.55364993142507
 One-Electron (beta)  Energy = -1985.55364993142689
 Total Coulomb        Energy = 1305.20566597790094
    3   -2519.3737658333      8.67e-03  
 Alpha HF Exchange    Energy = -10.41165863191316
 Beta HF Exchange     Energy = -10.41165863191315
 DFT Correlation      Energy =  -3.13038745047343
 DFT Exchange         Energy = -82.83166206442647
 One-Electron (alpha) Energy = -2011.13881323277178
 One-Electron (beta)  Energy = -2011.13881323277087
 Total Coulomb        Energy = 1357.22921795944376
    4   -2519.8898504851      4.29e-03  
 Alpha HF Exchange    Energy = -10.34936744830788
 Beta HF Exchange     Energy = -10.34936744830787
 DFT Correlation      Energy =  -3.09326044252748
 DFT Exchange         Energy = -82.34484462163766
 One-Electron (alpha) Energy = -1993.78184407791741
 One-Electron (beta)  Energy = -1993.78184407791559
 Total Coulomb        Energy = 1321.84959462615348
    5   -2519.9070086908      3.63e-03  
 Alpha HF Exchange    Energy = -10.37225142388856
 Beta HF Exchange     Energy = -10.37225142388856
 DFT Correlation      Energy =  -3.11710844167425
 DFT Exchange         Energy = -82.52945313331426
 One-Electron (alpha) Energy = -2006.43868334173840
 One-Electron (beta)  Energy = -2006.43868334173840
 Total Coulomb        Energy = 1347.26976744239732
    6   -2520.0547388641      2.16e-03  
 Alpha HF Exchange    Energy = -10.34302989139021
 Beta HF Exchange     Energy = -10.34302989139022
 DFT Correlation      Energy =  -3.09424546100339
 DFT Exchange         Energy = -82.33857983986644
 One-Electron (alpha) Energy = -1997.19477793313627
 One-Electron (beta)  Energy = -1997.19477793313763
 Total Coulomb        Energy = 1328.37454344640742
    7   -2520.1899727038      2.15e-03  
 Alpha HF Exchange    Energy = -10.34658701092441
 Beta HF Exchange     Energy = -10.34658701092439
 DFT Correlation      Energy =  -3.09805363776649
 DFT Exchange         Energy = -82.38350443232684
 One-Electron (alpha) Energy = -1999.04321629477181
 One-Electron (beta)  Energy = -1999.04321629477113
 Total Coulomb        Energy = 1332.06624264315997
    8   -2520.2509972386      1.23e-03  
 Alpha HF Exchange    Energy = -10.34712743256058
 Beta HF Exchange     Energy = -10.34712743256057
 DFT Correlation      Energy =  -3.09664073805610
 DFT Exchange         Energy = -82.38000587192445
 One-Electron (alpha) Energy = -1998.20801630810320
 One-Electron (beta)  Energy = -1998.20801630810251
 Total Coulomb        Energy = 1330.42394311381872
    9   -2520.2190661778      1.71e-03  
 Alpha HF Exchange    Energy = -10.34714229993016
 Beta HF Exchange     Energy = -10.34714229993018
 DFT Correlation      Energy =  -3.09670559360578
 DFT Exchange         Energy = -82.38032642117506
 One-Electron (alpha) Energy = -1998.21638241422056
 One-Electron (beta)  Energy = -1998.21638241422238
 Total Coulomb        Energy = 1330.44045673938172
   10   -2520.2196999040      1.71e-03  
 Alpha HF Exchange    Energy = -10.34732152787941
 Beta HF Exchange     Energy = -10.34732152787939
 DFT Correlation      Energy =  -3.09770420098447
 DFT Exchange         Energy = -82.38727741107280
 One-Electron (alpha) Energy = -1998.77157712000712
 One-Electron (beta)  Energy = -1998.77157712000576
 Total Coulomb        Energy = 1331.53928528490724
   11   -2520.2395688232      1.42e-03  
 Alpha HF Exchange    Energy = -10.34735457452983
 Beta HF Exchange     Energy = -10.34735457452981
 DFT Correlation      Energy =  -3.09796111357815
 DFT Exchange         Energy = -82.38889645704171
 One-Electron (alpha) Energy = -1998.92896081991171
 One-Electron (beta)  Energy = -1998.92896081991034
 Total Coulomb        Energy = 1331.85064005930371
   12   -2520.2449235005      1.32e-03  
 Alpha HF Exchange    Energy = -10.34735329377014
 Beta HF Exchange     Energy = -10.34735329377011
 DFT Correlation      Energy =  -3.09795534680431
 DFT Exchange         Energy = -82.38885802861439
 One-Electron (alpha) Energy = -1998.92530435543426
 One-Electron (beta)  Energy = -1998.92530435543244
 Total Coulomb        Energy = 1331.84338625140299
   13   -2520.2448176227      1.33e-03  
 Alpha HF Exchange    Energy = -10.34735897215230
 Beta HF Exchange     Energy = -10.34735897215285
 DFT Correlation      Energy =  -3.09806545135024
 DFT Exchange         Energy = -82.38940256394949
 One-Electron (alpha) Energy = -1998.97040041665923
 One-Electron (beta)  Energy = -1998.97040041670903
 Total Coulomb        Energy = 1331.93261045354529
   14   -2520.2464515397      1.29e-03  
 Alpha HF Exchange    Energy = -10.34760094410358
 Beta HF Exchange     Energy = -10.34760094410497
 DFT Correlation      Energy =  -3.09858170557288
 DFT Exchange         Energy = -82.39348462833266
 One-Electron (alpha) Energy = -1999.27608229112184
 One-Electron (beta)  Energy = -1999.27608229133784
 Total Coulomb        Energy = 1332.54072898882714
   15   -2520.2547790160      1.12e-03  
 Alpha HF Exchange    Energy = -10.34811297539387
 Beta HF Exchange     Energy = -10.34811297539664
 DFT Correlation      Energy =  -3.09953236820955
 DFT Exchange         Energy = -82.40057523930247
 One-Electron (alpha) Energy = -1999.81534528591897
 One-Electron (beta)  Energy = -1999.81534528745647
 Total Coulomb        Energy = 1333.61674082117997
   16   -2520.2663585108      8.07e-04  
 Alpha HF Exchange    Energy = -10.34938066712533
 Beta HF Exchange     Energy = -10.34938066714056
 DFT Correlation      Energy =  -3.10099478990822
 DFT Exchange         Energy = -82.41313032470725
 One-Electron (alpha) Energy = -2000.60258709958634
 One-Electron (beta)  Energy = -2000.60258710968128
 Total Coulomb        Energy = 1335.19792803388737
   17   -2520.2762078246      3.40e-04  
 Alpha HF Exchange    Energy = -10.35066424611343
 Beta HF Exchange     Energy = -10.35066424619243
 DFT Correlation      Energy =  -3.10216061208250
 DFT Exchange         Energy = -82.42377001813999
 One-Electron (alpha) Energy = -2001.17794678491578
 One-Electron (beta)  Energy = -2001.17794682499607
 Total Coulomb        Energy = 1336.36094668698775
   18   -2520.2782812458      4.80e-06  
 Alpha HF Exchange    Energy = -10.35063785849570
 Beta HF Exchange     Energy = -10.35063785868385
 DFT Correlation      Energy =  -3.10213634981496
 DFT Exchange         Energy = -82.42358359562471
 One-Electron (alpha) Energy = -2001.16526838239838
 One-Electron (beta)  Energy = -2001.16526847831346
 Total Coulomb        Energy = 1336.33532645446780
   19   -2520.2782812692      4.81e-06  
 Alpha HF Exchange    Energy = -10.35064964684453
 Beta HF Exchange     Energy = -10.35064964729261
 DFT Correlation      Energy =  -3.10214689709035
 DFT Exchange         Energy = -82.42367466368668
 One-Electron (alpha) Energy = -2001.17065423670738
 One-Electron (beta)  Energy = -2001.17065446457127
 Total Coulomb        Energy = 1336.34622311890189
   20   -2520.2782816376      1.51e-06  
 Alpha HF Exchange    Energy = -10.35065568005080
 Beta HF Exchange     Energy = -10.35065568105047
 DFT Correlation      Energy =  -3.10215198529487
 DFT Exchange         Energy = -82.42372161154097
 One-Electron (alpha) Energy = -2001.17299320644975
 One-Electron (beta)  Energy = -2001.17299371430590
 Total Coulomb        Energy = 1336.35096539983283
   21   -2520.2782816792      1.28e-07  Convergence criterion met
 ---------------------------------------
 SCF time:   CPU 64.57s  wall 5.00s 
<S^2> =          0.000000001
 Alpha HF Exchange    Energy = -10.35065568005080
 Beta HF Exchange     Energy = -10.35065568105047
 DFT Correlation      Energy =  -3.10215198529487
 DFT Exchange         Energy = -82.42372161154097
 One-Electron (alpha) Energy = -2001.17299320644975
 One-Electron (beta)  Energy = -2001.17299371430590
 Total Coulomb        Energy = 1336.35096539983283
 Nuclear repulsion Energy = 251.94392479970122
 SCF   energy in the final basis set =    -2520.2782816792
 Total energy in the final basis set =    -2520.2782816792
 
 --------------------------------------------------------------
 
                    Orbital Energies (a.u.)
 --------------------------------------------------------------
 
 Alpha MOs
 -- Occupied --
******* -58.110 -52.169 -52.167 -52.164 -10.239 -10.190 -10.190
 -7.842  -5.789  -5.784  -5.772  -2.122  -2.122  -2.113  -2.108
 -2.106  -0.813  -0.696  -0.678  -0.571  -0.467  -0.441  -0.420
 -0.394  -0.363  -0.359  -0.317  -0.250  -0.232
 -- Virtual --
 -0.185   0.017   0.082   0.128   0.145   0.149   0.164   0.177
  0.184   0.189   0.224   0.225   0.306   0.318   0.323   0.453
  0.463   0.482   0.500   0.554   0.571   0.583   0.667   0.675
  0.697   0.755   0.762   0.788   0.808   0.821   0.864   0.869
  0.903   0.908   0.919   0.952   0.953   1.069   1.312   1.385
  1.387   1.463   1.542   1.651   1.722   1.780   1.824   1.854
  1.890   2.012   2.013   2.034   2.034   2.035   2.038   2.062
  2.088   2.101   2.106   2.258   2.310   2.340   2.369   2.500
  2.556   2.614   2.651   2.696   2.710   2.855   2.855   2.889
  2.894   3.159   3.212   3.290   3.408   3.441   3.449   3.486
  4.214   4.229   4.233   4.331   4.339   4.448   4.498   4.610
  5.443  89.699
 
 Beta MOs
 -- Occupied --
******* -58.110 -52.169 -52.167 -52.164 -10.239 -10.190 -10.190
 -7.842  -5.789  -5.784  -5.772  -2.122  -2.122  -2.113  -2.108
 -2.106  -0.813  -0.696  -0.678  -0.571  -0.467  -0.441  -0.420
 -0.394  -0.363  -0.359  -0.317  -0.250  -0.232
 -- Virtual --
 -0.185   0.017   0.082   0.128   0.145   0.149   0.164   0.177
  0.184   0.189   0.224   0.225   0.306   0.318   0.323   0.453
  0.463   0.482   0.500   0.554   0.571   0.583   0.667   0.675
  0.697   0.755   0.762   0.788   0.808   0.821   0.864   0.869
  0.903   0.908   0.919   0.952   0.953   1.069   1.312   1.385
  1.387   1.463   1.542   1.651   1.722   1.780   1.824   1.854
  1.890   2.012   2.013   2.034   2.034   2.035   2.038   2.062
  2.088   2.101   2.106   2.258   2.310   2.340   2.369   2.500
  2.556   2.614   2.651   2.696   2.710   2.855   2.855   2.889
  2.894   3.159   3.212   3.290   3.408   3.441   3.449   3.486
  4.214   4.229   4.233   4.331   4.339   4.448   4.498   4.610
  5.443  89.699
 --------------------------------------------------------------
 
          Ground-State Mulliken Net Atomic Charges

     Atom                 Charge (a.u.)    Spin (a.u.)
  --------------------------------------------------------
      1 C                    -0.300600       0.000001
      2 C                    -0.161802      -0.000000
      3 Se                   -0.049797      -0.000000
      4 H                    -0.034917       0.000000
      5 C                    -0.300600      -0.000001
      6 H                     0.124140      -0.000000
      7 H                     0.106942       0.000000
      8 H                     0.123218      -0.000000
      9 H                     0.139114      -0.000000
     10 H                     0.106942      -0.000000
     11 H                     0.124140       0.000000
     12 H                     0.123218       0.000000
  --------------------------------------------------------
  Sum of atomic charges =    -0.000000
  Sum of spin   charges =    -0.000000

 -----------------------------------------------------------------
                    Cartesian Multipole Moments
 -----------------------------------------------------------------
    Charge (ESU x 10^10)
                -0.0000
    Dipole Moment (Debye)
         X      -2.0801      Y      -0.0000      Z      -0.7322
       Tot       2.2052
    Quadrupole Moments (Debye-Ang)
        XX     -38.5889     XY       0.0000     YY     -41.3046
        XZ       0.5819     YZ       0.0000     ZZ     -38.9690
    Octopole Moments (Debye-Ang^2)
       XXX      46.0207    XXY       0.0000    XYY      13.1489
       YYY       0.0000    XXZ       8.4856    XYZ       0.0000
       YYZ      10.3582    XZZ      14.8169    YZZ       0.0000
       ZZZ      27.1613
    Hexadecapole Moments (Debye-Ang^3)
      XXXX    -442.9013   XXXY      -0.0000   XXYY    -116.5563
      XYYY      -0.0000   YYYY    -218.7853   XXXZ      15.4098
      XXYZ       0.0000   XYYZ       6.9164   YYYZ      -0.0000
      XXZZ    -108.6017   XYZZ      -0.0000   YYZZ     -69.8662
      XZZZ      16.4012   YZZZ       0.0000   ZZZZ    -178.7159
 -----------------------------------------------------------------
 Calculating analytic gradient of the SCF energy
 Gradient of SCF Energy
            1           2           3           4           5           6
    1  -0.0010164   0.0006753   0.0003348   0.0003302  -0.0010164   0.0000418
    2  -0.0008127   0.0000000  -0.0000000  -0.0000000   0.0008127  -0.0004072
    3  -0.0016449  -0.0025599  -0.0233511   0.0226767  -0.0016449  -0.0006277
            7           8           9          10          11          12
    1  -0.0000668  -0.0000988   0.0009403  -0.0000668   0.0000418  -0.0000988
    2   0.0001771   0.0000606  -0.0000000  -0.0001771   0.0004072  -0.0000606
    3   0.0005836   0.0033699  -0.0001275   0.0005836  -0.0006277   0.0033699
 Max gradient component =       2.335E-02
 RMS gradient           =       5.530E-03
 Gradient time:  CPU 11.48 s  wall 0.96 s
 Geometry Optimization Parameters
   NAtoms,    NIC,     NZ,  NCons,   NDum,   NFix, NCnnct, MaxDiis
       12      94       0       1       0       0       0       0

 Cartesian Hessian Update
 Hessian Updated using BFGS Update
**WARNING** Hereditary positive definiteness endangered


** CONSTRAINED OPTIMIZATION IN DELOCALIZED INTERNAL COORDINATES **
   Searching for a Minimum

   Optimization Cycle:   2

                       Coordinates (Angstroms)
     ATOM                X               Y               Z
      1  C        -1.7099203290    1.2688737826    0.0851731750
      2  C        -1.1477804686    0.0000000000   -0.5576974336
      3  Se        0.8235665702    0.0000000000   -0.6574801141
      4  H         0.8490385904    0.0000000000    2.7405845122
      5  C        -1.7099203290   -1.2688737826    0.0851731750
      6  H        -1.3295490795    2.1706210794   -0.3996719113
      7  H        -2.8048674827    1.2709049520    0.0176264300
      8  H        -1.4409681834    1.3062112737    1.1513913615
      9  H        -1.3760145428    0.0000000000   -1.6379520749
     10  H        -2.8048674827   -1.2709049520    0.0176264300
     11  H        -1.3295490795   -2.1706210794   -0.3996719113
     12  H        -1.4409681834   -1.3062112737    1.1513913615
   Point Group: c1    Number of degrees of freedom:    30


   Energy is  -2520.278281679

              Constraints and their Current Values
                                        Value     Constraint
   Distance(Angs):        3   4             3.398160     3.400000
 Hessian Updated using BFGS Update
**WARNING** Hereditary positive definiteness endangered

   Using Lagrange Multiplier Algorithm


 20 Hessian modes will be used to form the next step
  Hessian Eigenvalues:
    -1.003769    0.044976    0.141680    0.200624    0.230519    0.239424
     0.268976    0.339142    0.384309    0.417717    0.472398    0.493604
     0.867830    0.869122    0.935313    0.955077    1.000891    1.021053
     1.044905    1.061781

 Minimum Search - Taking P-RFO Step
 Searching for Lamda that Maximizes Along the Constraint modes Only
 Value Taken    Lamda =   0.00000245
 Searching for Lamda that Minimizes Along All other modes
 Value Taken    Lamda =  -0.00010621
 Step Taken.  Stepsize is  0.013892

                             Maximum     Tolerance    Cnvgd?
         Gradient            0.005571       0.000300      NO
         Displacement        0.006180       0.001200      NO
         Energy change      0.004520       0.000001      NO


 New Cartesian Coordinates Obtained by Inverse Iteration

 Displacement from previous Coordinates is:  0.016899
 ----------------------------------------------------------------
             Standard Nuclear Orientation (Angstroms)
    I     Atom           X                Y                Z
 ----------------------------------------------------------------
    1      C      -1.7092370015     1.2706300162     0.0848552938
    2      C      -1.1492285580     0.0000000000    -0.5559861658
    3      Se      0.8215551026     0.0000000000    -0.6570684999
    4      H       0.8488249401     0.0000000000     2.7428218685
    5      C      -1.7092370015    -1.2706300162     0.0848552938
    6      H      -1.3284951734     2.1725923328    -0.3993452141
    7      H      -2.8041322884     1.2730835098     0.0167488584
    8      H      -1.4398200732     1.3077923531     1.1490231788
    9      H      -1.3795824119     0.0000000000    -1.6358384364
   10      H      -2.8041322884    -1.2730835098     0.0167488584
   11      H      -1.3284951734    -2.1725923328    -0.3993452141
   12      H      -1.4398200732    -1.3077923531     1.1490231788
 ----------------------------------------------------------------
 Nuclear Repulsion Energy =   252.0151021806 hartrees
 There are       30 alpha and       30 beta electrons

                       Distance Matrix (Angstroms)
             C (  1)   C (  2)   Se(  3)   H (  4)   C (  5)   H (  6)
   C (  2)  1.529310
   Se(  3)  2.927432  1.973374
   H (  4)  3.901662  3.856728  3.400000
   C (  5)  2.541260  1.529310  2.927432  3.901662
   H (  6)  1.092223  2.185596  3.067457  4.397055  3.497884
   H (  7)  1.097014  2.165057  3.901331  4.732474  2.770183  1.777570
   H (  8)  1.098371  2.168368  3.175863  3.080326  2.802374  1.776997
   H (  9)  2.164246  1.104148  2.408941  4.913091  2.164246  2.500337
   H ( 10)  2.770183  2.165057  3.901331  4.732474  1.097014  3.771382
   H ( 11)  3.497884  2.185596  3.067457  4.397055  1.092223  4.345185
   H ( 12)  2.802374  2.168368  3.175863  3.080326  1.098371  3.810894
             H (  7)   H (  8)   H (  9)   H ( 10)   H ( 11)
   H (  8)  1.773301
   H (  9)  2.526090  3.077240
   H ( 10)  2.546167  3.131184  2.526090
   H ( 11)  3.771382  3.810894  2.500337  1.777570
   H ( 12)  3.131184  2.615585  3.077240  1.773301  1.776997
 
 Applying Cartesian multipole field
    Component          Value
    ---------          -----
     (2,0,0)        1.00000E-11
     (0,2,0)        2.00000E-11
     (0,0,2)       -3.00000E-11
 Nucleus-field energy     =     0.0000000026 hartrees
 Requested basis set is 6-31G(d,p)
 There are 44 shells and 120 basis functions
 A cutoff of  1.0D-14 yielded    943 shell pairs
 There are      7122 function pairs
 Smallest overlap matrix eigenvalue = 6.76E-04
 Guess from superposition of atomic densities
 Warning:  Energy on first SCF cycle will be non-variational
 SAD guess density has 59.968191 electrons

 -----------------------------------------------------------------------
  General SCF calculation program by
  Eric Jon Sundstrom, Paul Horn, Yuezhi Mao, Dmitri Zuev, Alec White,
  David Stuck, Shaama M.S., Shane Yost, Joonho Lee, David Small,
  Daniel Levine, Susi Lehtola, Hugh Burton, Evgeny Epifanovsky
 -----------------------------------------------------------------------
 Exchange:     0.2000 Hartree-Fock + 0.0800 Slater + 0.7200 B88
 Correlation:  0.1900 VWN1RPA + 0.8100 LYP
 Using SG-1 standard quadrature grid
 using 12 threads for integral computing
 -------------------------------------------------------
 OpenMP Integral computing Module                
 Release: version 1.0, May 2013, Q-Chem Inc. Pittsburgh 
 -------------------------------------------------------
 -------------------------------------------------------
 OpenMP BLAS3 based DFT computing Module                
 Release: version 1.0, May 2013, Q-Chem Inc. Pittsburgh 
 -------------------------------------------------------
 A unrestricted SCF calculation will be
 performed using DIIS
 SCF converges when DIIS error is below 1.0e-06
 Alpha HF Exchange    Energy = -10.34260602541227
 Beta HF Exchange     Energy = -10.34260602541227
 DFT Correlation      Energy =  -3.07974624796395
 DFT Exchange         Energy = -81.97763623616632
 One-Electron (alpha) Energy = -1999.28592951403698
 One-Electron (beta)  Energy = -1999.28592951403698
 Total Coulomb        Energy = 1329.13880814651111
 ---------------------------------------
  Cycle       Energy         DIIS error
 ---------------------------------------
    1   -2523.1605432333      1.38e-01  
 Alpha HF Exchange    Energy = -10.42778964640373
 Beta HF Exchange     Energy = -10.42778964640373
 DFT Correlation      Energy =  -3.13747715144255
 DFT Exchange         Energy = -82.97917379437321
 One-Electron (alpha) Energy = -2011.55759010586553
 One-Electron (beta)  Energy = -2011.55759010586507
 Total Coulomb        Energy = 1358.20890960389033
    2   -2519.8633986632      9.43e-03  
 Alpha HF Exchange    Energy = -10.28067672058112
 Beta HF Exchange     Energy = -10.28067672058110
 DFT Correlation      Energy =  -3.06628854149069
 DFT Exchange         Energy = -81.78936217559783
 One-Electron (alpha) Energy = -1985.61591468953134
 One-Electron (beta)  Energy = -1985.61591468952975
 Total Coulomb        Energy = 1305.26013027987392
    3   -2519.3736010742      8.68e-03  
 Alpha HF Exchange    Energy = -10.41181171086974
 Beta HF Exchange     Energy = -10.41181171086973
 DFT Correlation      Energy =  -3.13045611763145
 DFT Exchange         Energy = -82.83272467175473
 One-Electron (alpha) Energy = -2011.21190601356193
 One-Electron (beta)  Energy = -2011.21190601356034
 Total Coulomb        Energy = 1357.30572314865071
    4   -2519.8897909063      4.29e-03  
 Alpha HF Exchange    Energy = -10.34952056613780
 Beta HF Exchange     Energy = -10.34952056613781
 DFT Correlation      Energy =  -3.09332366361790
 DFT Exchange         Energy = -82.34593408933517
 One-Electron (alpha) Energy = -1993.84880247415890
 One-Electron (beta)  Energy = -1993.84880247415890
 Total Coulomb        Energy = 1321.91371526192188
    5   -2519.9070863884      3.63e-03  
 Alpha HF Exchange    Energy = -10.37242886989922
 Beta HF Exchange     Energy = -10.37242886989920
 DFT Correlation      Energy =  -3.11719232529456
 DFT Exchange         Energy = -82.53072022671702
 One-Electron (alpha) Energy = -2006.51361778257569
 One-Electron (beta)  Energy = -2006.51361778257433
 Total Coulomb        Energy = 1347.35038228599115
    6   -2520.0545213877      2.16e-03  
 Alpha HF Exchange    Energy = -10.34320205526603
 Beta HF Exchange     Energy = -10.34320205526603
 DFT Correlation      Energy =  -3.09429849765478
 DFT Exchange         Energy = -82.33968680960021
 One-Electron (alpha) Energy = -1997.25244397669348
 One-Electron (beta)  Energy = -1997.25244397669280
 Total Coulomb        Energy = 1328.42084481147049
    7   -2520.1893303765      2.15e-03  
 Alpha HF Exchange    Energy = -10.34674222902764
 Beta HF Exchange     Energy = -10.34674222902763
 DFT Correlation      Energy =  -3.09811711380090
 DFT Exchange         Energy = -82.38461877409634
 One-Electron (alpha) Energy = -1999.10953917248844
 One-Electron (beta)  Energy = -1999.10953917248798
 Total Coulomb        Energy = 1332.12933061067633
    8   -2520.2508658970      1.23e-03  
 Alpha HF Exchange    Energy = -10.34728869802868
 Beta HF Exchange     Energy = -10.34728869802868
 DFT Correlation      Energy =  -3.09668697309400
 DFT Exchange         Energy = -82.38103490713155
 One-Electron (alpha) Energy = -1998.26343985542781
 One-Electron (beta)  Energy = -1998.26343985542758
 Total Coulomb        Energy = 1330.46563371739057
    9   -2520.2184430865      1.72e-03  
 Alpha HF Exchange    Energy = -10.34730427763096
 Beta HF Exchange     Energy = -10.34730427763098
 DFT Correlation      Energy =  -3.09675268036984
 DFT Exchange         Energy = -82.38136177120961
 One-Electron (alpha) Energy = -1998.27160178354666
 One-Electron (beta)  Energy = -1998.27160178354802
 Total Coulomb        Energy = 1330.48174868492106
   10   -2520.2190757058      1.71e-03  
 Alpha HF Exchange    Energy = -10.34747745949760
 Beta HF Exchange     Energy = -10.34747745949759
 DFT Correlation      Energy =  -3.09775317078022
 DFT Exchange         Energy = -82.38831348364425
 One-Electron (alpha) Energy = -1998.82874912404714
 One-Electron (beta)  Energy = -1998.82874912404645
 Total Coulomb        Energy = 1331.58430037786093
   11   -2520.2391172604      1.42e-03  
 Alpha HF Exchange    Energy = -10.34750546918641
 Beta HF Exchange     Energy = -10.34750546918641
 DFT Correlation      Energy =  -3.09799405748618
 DFT Exchange         Energy = -82.38982343610489
 One-Electron (alpha) Energy = -1998.97674165836656
 One-Electron (beta)  Energy = -1998.97674165836611
 Total Coulomb        Energy = 1331.87701283748402
   12   -2520.2441967280      1.34e-03  
 Alpha HF Exchange    Energy = -10.34750190141088
 Beta HF Exchange     Energy = -10.34750190141085
 DFT Correlation      Energy =  -3.09797635956517
 DFT Exchange         Energy = -82.38970677967515
 One-Electron (alpha) Energy = -1998.96544314424136
 One-Electron (beta)  Energy = -1998.96544314423750
 Total Coulomb        Energy = 1331.85460451869835
   13   -2520.2438665286      1.34e-03  
 Alpha HF Exchange    Energy = -10.34749378253334
 Beta HF Exchange     Energy = -10.34749378253338
 DFT Correlation      Energy =  -3.09805071002432
 DFT Exchange         Energy = -82.38998180618682
 One-Electron (alpha) Energy = -1998.98964881259167
 One-Electron (beta)  Energy = -1998.98964881265715
 Total Coulomb        Energy = 1331.90231475328642
   14   -2520.2449007700      1.32e-03  
 Alpha HF Exchange    Energy = -10.34768207603477
 Beta HF Exchange     Energy = -10.34768207603494
 DFT Correlation      Energy =  -3.09847785080763
 DFT Exchange         Energy = -82.39334970157482
 One-Electron (alpha) Energy = -1999.24439245272356
 One-Electron (beta)  Energy = -1999.24439245307804
 Total Coulomb        Energy = 1332.40876389125128
   15   -2520.2521105358      1.18e-03  
 Alpha HF Exchange    Energy = -10.34803664050118
 Beta HF Exchange     Energy = -10.34803664050304
 DFT Correlation      Energy =  -3.09924135172309
 DFT Exchange         Energy = -82.39887730082607
 One-Electron (alpha) Energy = -1999.68382293325544
 One-Electron (beta)  Energy = -1999.68382293647778
 Total Coulomb        Energy = 1333.28427325865164
   16   -2520.2624623614      9.25e-04  
 Alpha HF Exchange    Energy = -10.34904602621917
 Beta HF Exchange     Energy = -10.34904602624936
 DFT Correlation      Energy =  -3.10054498495709
 DFT Exchange         Energy = -82.40978454958997
 One-Electron (alpha) Energy = -2000.40348239244327
 One-Electron (beta)  Energy = -2000.40348241759216
 Total Coulomb        Energy = 1334.72655830185977
   17   -2520.2737259119      5.01e-04  
 Alpha HF Exchange    Energy = -10.35075455351075
 Beta HF Exchange     Energy = -10.35075455376417
 DFT Correlation      Energy =  -3.10217197394072
 DFT Exchange         Energy = -82.42440720106630
 One-Electron (alpha) Energy = -2001.22037358172611
 One-Electron (beta)  Energy = -2001.22037371202418
 Total Coulomb        Energy = 1336.37548525083093
   18   -2520.2782481420      1.56e-05  
 Alpha HF Exchange    Energy = -10.35078488587996
 Beta HF Exchange     Energy = -10.35078488650627
 DFT Correlation      Energy =  -3.10219645472179
 DFT Exchange         Energy = -82.42467479812274
 One-Electron (alpha) Energy = -2001.23078225636095
 One-Electron (beta)  Energy = -2001.23078257666384
 Total Coulomb        Energy = 1336.39665260062793
   19   -2520.2782510744      8.01e-06  
 Alpha HF Exchange    Energy = -10.35080356045081
 Beta HF Exchange     Energy = -10.35080356193656
 DFT Correlation      Energy =  -3.10221311197885
 DFT Exchange         Energy = -82.42481966244162
 One-Electron (alpha) Energy = -2001.23943207949128
 One-Electron (beta)  Energy = -2001.23943283613789
 Total Coulomb        Energy = 1336.41415055920311
   20   -2520.2782520700      2.71e-06  
 Alpha HF Exchange    Energy = -10.35081372229482
 Beta HF Exchange     Energy = -10.35081372557900
 DFT Correlation      Energy =  -3.10222158288324
 DFT Exchange         Energy = -82.42489903848795
 One-Electron (alpha) Energy = -2001.24328473917740
 One-Electron (beta)  Energy = -2001.24328640870067
 Total Coulomb        Energy = 1336.42196483378234
   21   -2520.2782522001      4.33e-07  Convergence criterion met
 ---------------------------------------
 SCF time:   CPU 64.35s  wall 6.00s 
<S^2> =          0.000000002
 Alpha HF Exchange    Energy = -10.35081372229482
 Beta HF Exchange     Energy = -10.35081372557900
 DFT Correlation      Energy =  -3.10222158288324
 DFT Exchange         Energy = -82.42489903848795
 One-Electron (alpha) Energy = -2001.24328473917740
 One-Electron (beta)  Energy = -2001.24328640870067
 Total Coulomb        Energy = 1336.42196483378234
 Nuclear repulsion Energy = 252.01510218324725
 SCF   energy in the final basis set =    -2520.2782522001
 Total energy in the final basis set =    -2520.2782522001
 
 --------------------------------------------------------------
 
                    Orbital Energies (a.u.)
 --------------------------------------------------------------
 
 Alpha MOs
 -- Occupied --
******* -58.110 -52.169 -52.167 -52.164 -10.239 -10.190 -10.190
 -7.842  -5.789  -5.784  -5.772  -2.122  -2.122  -2.113  -2.108
 -2.106  -0.813  -0.697  -0.678  -0.571  -0.467  -0.441  -0.420
 -0.394  -0.363  -0.360  -0.317  -0.250  -0.232
 -- Virtual --
 -0.185   0.017   0.082   0.128   0.145   0.148   0.164   0.177
  0.184   0.189   0.224   0.225   0.306   0.318   0.323   0.453
  0.464   0.482   0.500   0.553   0.571   0.583   0.667   0.675
  0.697   0.756   0.763   0.788   0.807   0.821   0.865   0.869
  0.903   0.908   0.920   0.953   0.953   1.070   1.311   1.386
  1.387   1.464   1.541   1.650   1.723   1.780   1.825   1.853
  1.890   2.012   2.013   2.034   2.034   2.035   2.038   2.064
  2.090   2.101   2.106   2.259   2.308   2.340   2.369   2.500
  2.556   2.614   2.651   2.697   2.711   2.856   2.857   2.891
  2.895   3.161   3.214   3.290   3.408   3.442   3.450   3.488
  4.214   4.229   4.233   4.331   4.338   4.448   4.498   4.610
  5.443  89.699
 
 Beta MOs
 -- Occupied --
******* -58.110 -52.169 -52.167 -52.164 -10.239 -10.190 -10.190
 -7.842  -5.789  -5.784  -5.772  -2.122  -2.122  -2.113  -2.108
 -2.106  -0.813  -0.697  -0.678  -0.571  -0.467  -0.441  -0.420
 -0.394  -0.363  -0.360  -0.317  -0.250  -0.232
 -- Virtual --
 -0.185   0.017   0.082   0.128   0.145   0.148   0.164   0.177
  0.184   0.189   0.224   0.225   0.306   0.318   0.323   0.453
  0.464   0.482   0.500   0.553   0.571   0.583   0.667   0.675
  0.697   0.756   0.763   0.788   0.807   0.821   0.865   0.869
  0.903   0.908   0.920   0.953   0.953   1.070   1.311   1.386
  1.387   1.464   1.541   1.650   1.723   1.780   1.825   1.853
  1.890   2.012   2.013   2.034   2.034   2.035   2.038   2.064
  2.090   2.101   2.106   2.259   2.308   2.340   2.369   2.500
  2.556   2.614   2.651   2.697   2.711   2.856   2.857   2.891
  2.895   3.161   3.214   3.290   3.408   3.442   3.450   3.488
  4.214   4.229   4.233   4.331   4.338   4.448   4.498   4.610
  5.443  89.699
 --------------------------------------------------------------
 
          Ground-State Mulliken Net Atomic Charges

     Atom                 Charge (a.u.)    Spin (a.u.)
  --------------------------------------------------------
      1 C                    -0.300679      -0.000001
      2 C                    -0.162094      -0.000000
      3 Se                   -0.049983      -0.000000
      4 H                    -0.035152       0.000000
      5 C                    -0.300679       0.000001
      6 H                     0.124395       0.000000
      7 H                     0.106845      -0.000000
      8 H                     0.123493       0.000000
      9 H                     0.139120      -0.000000
     10 H                     0.106845       0.000000
     11 H                     0.124395      -0.000000
     12 H                     0.123493      -0.000000
  --------------------------------------------------------
  Sum of atomic charges =    -0.000000
  Sum of spin   charges =     0.000000

 -----------------------------------------------------------------
                    Cartesian Multipole Moments
 -----------------------------------------------------------------
    Charge (ESU x 10^10)
                 0.0000
    Dipole Moment (Debye)
         X      -2.0836      Y       0.0000      Z      -0.7340
       Tot       2.2091
    Quadrupole Moments (Debye-Ang)
        XX     -38.5883     XY       0.0000     YY     -41.2774
        XZ       0.5863     YZ      -0.0000     ZZ     -38.9893
    Octopole Moments (Debye-Ang^2)
       XXX      46.1177    XXY      -0.0000    XYY      13.1569
       YYY      -0.0000    XXZ       8.4444    XYZ      -0.0000
       YYZ      10.3431    XZZ      14.8500    YZZ       0.0000
       ZZZ      27.1038
    Hexadecapole Moments (Debye-Ang^3)
      XXXX    -442.4843   XXXY       0.0000   XXYY    -116.5109
      XYYY       0.0000   YYYY    -218.9866   XXXZ      15.3347
      XXYZ      -0.0000   XYYZ       6.8774   YYYZ      -0.0000
      XXZZ    -108.5167   XYZZ       0.0000   YYZZ     -69.9241
      XZZZ      16.2431   YZZZ      -0.0000   ZZZZ    -178.7567
 -----------------------------------------------------------------
 Calculating analytic gradient of the SCF energy
 Gradient of SCF Energy
            1           2           3           4           5           6
    1  -0.0004564   0.0002662   0.0001071   0.0003461  -0.0004564  -0.0000494
    2  -0.0004065  -0.0000000   0.0000000   0.0000000   0.0004065  -0.0001808
    3  -0.0011001  -0.0015686  -0.0232166   0.0226362  -0.0011001  -0.0004048
            7           8           9          10          11          12
    1  -0.0000206  -0.0002057   0.0007448  -0.0000206  -0.0000494  -0.0002057
    2   0.0000873  -0.0000469   0.0000000  -0.0000873   0.0001808   0.0000469
    3   0.0004525   0.0021522  -0.0000507   0.0004525  -0.0004048   0.0021522
 Max gradient component =       2.322E-02
 RMS gradient           =       5.447E-03
 Gradient time:  CPU 11.77 s  wall 0.98 s
 Geometry Optimization Parameters
   NAtoms,    NIC,     NZ,  NCons,   NDum,   NFix, NCnnct, MaxDiis
       12      94       0       1       0       0       0       0

 Cartesian Hessian Update
 Hessian Updated using BFGS Update


** CONSTRAINED OPTIMIZATION IN DELOCALIZED INTERNAL COORDINATES **
   Searching for a Minimum

   Optimization Cycle:   3

                       Coordinates (Angstroms)
     ATOM                X               Y               Z
      1  C        -1.7092370015    1.2706300162    0.0848552938
      2  C        -1.1492285580    0.0000000000   -0.5559861658
      3  Se        0.8215551026    0.0000000000   -0.6570684999
      4  H         0.8488249401    0.0000000000    2.7428218685
      5  C        -1.7092370015   -1.2706300162    0.0848552938
      6  H        -1.3284951734    2.1725923328   -0.3993452141
      7  H        -2.8041322884    1.2730835098    0.0167488584
      8  H        -1.4398200732    1.3077923531    1.1490231788
      9  H        -1.3795824119    0.0000000000   -1.6358384364
     10  H        -2.8041322884   -1.2730835098    0.0167488584
     11  H        -1.3284951734   -2.1725923328   -0.3993452141
     12  H        -1.4398200732   -1.3077923531    1.1490231788
   Point Group: c1    Number of degrees of freedom:    30


   Energy is  -2520.278252200

              Constraints and their Current Values
                                        Value     Constraint
   Distance(Angs):        3   4             3.400000     3.400000
 Hessian Updated using BFGS Update

 16 Hessian modes will be used to form the next step
  Hessian Eigenvalues:
     0.043460    0.123872    0.142616    0.230908    0.238165    0.269106
     0.273585    0.381387    0.390700    0.423058    0.490191    0.852893
     0.902584    1.021317    1.045018    1.062049

 Minimum Search - Taking Simple RFO Step
 Searching for Lamda that Minimizes Along All modes
 Value Taken    Lamda =  -0.00007363
 Step Taken.  Stepsize is  0.024351

                             Maximum     Tolerance    Cnvgd?
         Gradient           0.001512      0.000300      NO
         Displacement       0.010793      0.001200      NO
         Energy change      0.000029      0.000001      NO


 New Cartesian Coordinates Obtained by Inverse Iteration

 Displacement from previous Coordinates is:  0.032223
 ----------------------------------------------------------------
             Standard Nuclear Orientation (Angstroms)
    I     Atom           X                Y                Z
 ----------------------------------------------------------------
    1      C      -1.7082161289     1.2738404600     0.0843738557
    2      C      -1.1521427349     0.0000000000    -0.5524578595
    3      Se      0.8178035942     0.0000000000    -0.6544350444
    4      H       0.8488300164     0.0000000000     2.7454231177
    5      C      -1.7082161289    -1.2738404600     0.0843738557
    6      H      -1.3259278502     2.1754807568    -0.3991538425
    7      H      -2.8030268245     1.2776665683     0.0148149376
    8      H      -1.4376568275     1.3112080195     1.1447458873
    9      H      -1.3866356135     0.0000000000    -1.6315988899
   10      H      -2.8030268245    -1.2776665683     0.0148149376
   11      H      -1.3259278502    -2.1754807568    -0.3991538425
   12      H      -1.4376568275    -1.3112080195     1.1447458873
 ----------------------------------------------------------------
 Nuclear Repulsion Energy =   252.1628555364 hartrees
 There are       30 alpha and       30 beta electrons

                       Distance Matrix (Angstroms)
             C (  1)   C (  2)   Se(  3)   H (  4)   C (  5)   H (  6)
   C (  2)  1.528869
   Se(  3)  2.923916  1.972584
   H (  4)  3.904144  3.857449  3.400000
   C (  5)  2.547681  1.528869  2.923916  3.904144
   H (  6)  1.092199  2.187789  3.064877  4.398938  3.503964
   H (  7)  1.097025  2.163250  3.897530  4.735474  2.777344  1.777431
   H (  8)  1.094983  2.163628  3.169136  3.083741  2.807146  1.772873
   H (  9)  2.161168  1.104324  2.411307  4.914838  2.161168  2.501064
   H ( 10)  2.777344  2.163250  3.897530  4.735474  1.097025  3.778547
   H ( 11)  3.503964  2.187789  3.064877  4.398938  1.092199  4.350962
   H ( 12)  2.807146  2.163628  3.169136  3.083741  1.094983  3.814854
             H (  7)   H (  8)   H (  9)   H ( 10)   H ( 11)
   H (  8)  1.772598
   H (  9)  2.519777  3.070824
   H ( 10)  2.555333  3.137396  2.519777
   H ( 11)  3.778547  3.814854  2.501064  1.777431
   H ( 12)  3.137396  2.622416  3.070824  1.772598  1.772873
 
 Applying Cartesian multipole field
    Component          Value
    ---------          -----
     (2,0,0)        1.00000E-11
     (0,2,0)        2.00000E-11
     (0,0,2)       -3.00000E-11
 Nucleus-field energy     =     0.0000000026 hartrees
 Requested basis set is 6-31G(d,p)
 There are 44 shells and 120 basis functions
 A cutoff of  1.0D-14 yielded    945 shell pairs
 There are      7124 function pairs
 Smallest overlap matrix eigenvalue = 6.76E-04
 Guess from superposition of atomic densities
 Warning:  Energy on first SCF cycle will be non-variational
 SAD guess density has 59.968191 electrons

 -----------------------------------------------------------------------
  General SCF calculation program by
  Eric Jon Sundstrom, Paul Horn, Yuezhi Mao, Dmitri Zuev, Alec White,
  David Stuck, Shaama M.S., Shane Yost, Joonho Lee, David Small,
  Daniel Levine, Susi Lehtola, Hugh Burton, Evgeny Epifanovsky
 -----------------------------------------------------------------------
 Exchange:     0.2000 Hartree-Fock + 0.0800 Slater + 0.7200 B88
 Correlation:  0.1900 VWN1RPA + 0.8100 LYP
 Using SG-1 standard quadrature grid
 using 12 threads for integral computing
 -------------------------------------------------------
 OpenMP Integral computing Module                
 Release: version 1.0, May 2013, Q-Chem Inc. Pittsburgh 
 -------------------------------------------------------
 -------------------------------------------------------
 OpenMP BLAS3 based DFT computing Module                
 Release: version 1.0, May 2013, Q-Chem Inc. Pittsburgh 
 -------------------------------------------------------
 A unrestricted SCF calculation will be
 performed using DIIS
 SCF converges when DIIS error is below 1.0e-06
 Alpha HF Exchange    Energy = -10.34317120776719
 Beta HF Exchange     Energy = -10.34317120776719
 DFT Correlation      Energy =  -3.07985721422222
 DFT Exchange         Energy = -81.97882341732530
 One-Electron (alpha) Energy = -1999.42964381004867
 One-Electron (beta)  Energy = -1999.42964381004867
 Total Coulomb        Energy = 1329.27643865199116
 ---------------------------------------
  Cycle       Energy         DIIS error
 ---------------------------------------
    1   -2523.1650164762      1.38e-01  
 Alpha HF Exchange    Energy = -10.42817896653142
 Beta HF Exchange     Energy = -10.42817896653142
 DFT Correlation      Energy =  -3.13764692641831
 DFT Exchange         Energy = -82.98198674388183
 One-Electron (alpha) Energy = -2011.71215382587911
 One-Electron (beta)  Energy = -2011.71215382588002
 Total Coulomb        Energy = 1358.37445574815865
    2   -2519.8629879680      9.43e-03  
 Alpha HF Exchange    Energy = -10.28091051993463
 Beta HF Exchange     Energy = -10.28091051993462
 DFT Correlation      Energy =  -3.06641195690518
 DFT Exchange         Energy = -81.79100656812507
 One-Electron (alpha) Energy = -1985.75714633668008
 One-Electron (beta)  Energy = -1985.75714633667940
 Total Coulomb        Energy = 1305.39670975997342
    3   -2519.3739669393      8.68e-03  
 Alpha HF Exchange    Energy = -10.41210848799517
 Beta HF Exchange     Energy = -10.41210848799518
 DFT Correlation      Energy =  -3.13059189201629
 DFT Exchange         Energy = -82.83481279758617
 One-Electron (alpha) Energy = -2011.36097477937415
 One-Electron (beta)  Energy = -2011.36097477937528
 Total Coulomb        Energy = 1357.45883027169543
    4   -2519.8898854136      4.29e-03  
 Alpha HF Exchange    Energy = -10.34981178025271
 Beta HF Exchange     Energy = -10.34981178025271
 DFT Correlation      Energy =  -3.09345395220964
 DFT Exchange         Energy = -82.34801098641908
 One-Electron (alpha) Energy = -1993.99270932033414
 One-Electron (beta)  Energy = -1993.99270932033460
 Total Coulomb        Energy = 1322.05628507879942
    5   -2519.9073665220      3.63e-03  
 Alpha HF Exchange    Energy = -10.37274326443251
 Beta HF Exchange     Energy = -10.37274326443250
 DFT Correlation      Energy =  -3.11734035089370
 DFT Exchange         Energy = -82.53298133241452
 One-Electron (alpha) Energy = -2006.66346523392417
 One-Electron (beta)  Energy = -2006.66346523392394
 Total Coulomb        Energy = 1347.50538397159767
    6   -2520.0544991694      2.16e-03  
 Alpha HF Exchange    Energy = -10.34350810978044
 Beta HF Exchange     Energy = -10.34350810978044
 DFT Correlation      Energy =  -3.09444965642265
 DFT Exchange         Energy = -82.34195514733973
 One-Electron (alpha) Energy = -1997.40606737478583
 One-Electron (beta)  Energy = -1997.40606737478788
 Total Coulomb        Energy = 1328.58297759420248
    7   -2520.1897226397      2.15e-03  
 Alpha HF Exchange    Energy = -10.34705955502221
 Beta HF Exchange     Energy = -10.34705955502221
 DFT Correlation      Energy =  -3.09827559461778
 DFT Exchange         Energy = -82.38696105186087
 One-Electron (alpha) Energy = -1999.26617898900395
 One-Electron (beta)  Energy = -1999.26617898900395
 Total Coulomb        Energy = 1332.29769219857258
    8   -2520.2511659970      1.22e-03  
 Alpha HF Exchange    Energy = -10.34759623224763
 Beta HF Exchange     Energy = -10.34759623224763
 DFT Correlation      Energy =  -3.09683395101806
 DFT Exchange         Energy = -82.38328471852151
 One-Electron (alpha) Energy = -1998.41538716978539
 One-Electron (beta)  Energy = -1998.41538716978584
 Total Coulomb        Energy = 1330.62453884290744
    9   -2520.2186910917      1.72e-03  
 Alpha HF Exchange    Energy = -10.34761305627034
 Beta HF Exchange     Energy = -10.34761305627035
 DFT Correlation      Energy =  -3.09690351180970
 DFT Exchange         Energy = -82.38363614653406
 One-Electron (alpha) Energy = -1998.42462901776935
 One-Electron (beta)  Energy = -1998.42462901777117
 Total Coulomb        Energy = 1330.64279240342717
   10   -2520.2193758640      1.71e-03  
 Alpha HF Exchange    Energy = -10.34779103978553
 Beta HF Exchange     Energy = -10.34779103978555
 DFT Correlation      Energy =  -3.09791037744362
 DFT Exchange         Energy = -82.39064452488822
 One-Electron (alpha) Energy = -1998.98559363938989
 One-Electron (beta)  Energy = -1998.98559363939285
 Total Coulomb        Energy = 1331.75298949966054
   11   -2520.2394792220      1.42e-03  
 Alpha HF Exchange    Energy = -10.34782239848179
 Beta HF Exchange     Energy = -10.34782239848180
 DFT Correlation      Energy =  -3.09816110419205
 DFT Exchange         Energy = -82.39222250381096
 One-Electron (alpha) Energy = -1999.13928877613739
 One-Electron (beta)  Energy = -1999.13928877614080
 Total Coulomb        Energy = 1332.05702874339204
   12   -2520.2447216749      1.33e-03  
 Alpha HF Exchange    Energy = -10.34781920565177
 Beta HF Exchange     Energy = -10.34781920565176
 DFT Correlation      Energy =  -3.09814602010435
 DFT Exchange         Energy = -82.39212264379582
 One-Electron (alpha) Energy = -1999.12968565129745
 One-Electron (beta)  Energy = -1999.12968565129836
 Total Coulomb        Energy = 1332.03797985124766
   13   -2520.2444429876      1.33e-03  
 Alpha HF Exchange    Energy = -10.34781675621806
 Beta HF Exchange     Energy = -10.34781675621798
 DFT Correlation      Energy =  -3.09823569414499
 DFT Exchange         Energy = -82.39251280112961
 One-Electron (alpha) Energy = -1999.16313690310471
 One-Electron (beta)  Energy = -1999.16313690321249
 Total Coulomb        Energy = 1332.10406140216514
   14   -2520.2457388729      1.31e-03  
 Alpha HF Exchange    Energy = -10.34803000140859
 Beta HF Exchange     Energy = -10.34803000140868
 DFT Correlation      Energy =  -3.09870404275027
 DFT Exchange         Energy = -82.39621313413534
 One-Electron (alpha) Energy = -1999.44146707464756
 One-Electron (beta)  Energy = -1999.44146707531809
 Total Coulomb        Energy = 1332.65759025611897
   15   -2520.2534655345      1.15e-03  
 Alpha HF Exchange    Energy = -10.34845739354436
 Beta HF Exchange     Energy = -10.34845739354825
 DFT Correlation      Energy =  -3.09955713704764
 DFT Exchange         Energy = -82.40248249901144
 One-Electron (alpha) Energy = -1999.92893515914739
 One-Electron (beta)  Energy = -1999.92893516553249
 Total Coulomb        Energy = 1333.62952181789387
   16   -2520.2644473909      8.67e-04  
 Alpha HF Exchange    Energy = -10.34960435430561
 Beta HF Exchange     Energy = -10.34960435436854
 DFT Correlation      Energy =  -3.10095533804558
 DFT Exchange         Energy = -82.41432398085583
 One-Electron (alpha) Energy = -2000.69121560391613
 One-Electron (beta)  Energy = -2000.69121565119417
 Total Coulomb        Energy = 1335.15890232054062
   17   -2520.2751614231      4.17e-04  
 Alpha HF Exchange    Energy = -10.35111358977236
 Beta HF Exchange     Energy = -10.35111359019288
 DFT Correlation      Energy =  -3.10235654007307
 DFT Exchange         Energy = -82.42701533250052
[...]
 DFT Exchange         Energy = -81.97875769205540
 One-Electron (alpha) Energy = -1999.47409994029363
 One-Electron (beta)  Energy = -1999.47409994029363
 Total Coulomb        Energy = 1329.32110265406800
 ---------------------------------------
  Cycle       Energy         DIIS error
 ---------------------------------------
    1   -2523.1649299692      1.38e-01  
 Alpha HF Exchange    Energy = -10.42817760096042
 Beta HF Exchange     Energy = -10.42817760096042
 DFT Correlation      Energy =  -3.13765104375855
 DFT Exchange         Energy = -82.98194822365758
 One-Electron (alpha) Energy = -2011.75707818879846
 One-Electron (beta)  Energy = -2011.75707818879914
 Total Coulomb        Energy = 1358.42001890916185
    2   -2519.8630203574      9.43e-03  
 Alpha HF Exchange    Energy = -10.28089331530785
 Beta HF Exchange     Energy = -10.28089331530788
 DFT Correlation      Energy =  -3.06640136955114
 DFT Exchange         Energy = -81.79084457072736
 One-Electron (alpha) Energy = -1985.79996393260149
 One-Electron (beta)  Energy = -1985.79996393260467
 Total Coulomb        Energy = 1305.43777828726957
    3   -2519.3741105685      8.68e-03  
 Alpha HF Exchange    Energy = -10.41210193050313
 Beta HF Exchange     Energy = -10.41210193050313
 DFT Correlation      Energy =  -3.13059090045848
 DFT Exchange         Energy = -82.83474565371213
 One-Electron (alpha) Energy = -2011.40568285084032
 One-Electron (beta)  Energy = -2011.40568285083987
 Total Coulomb        Energy = 1357.50379584121060
    4   -2519.8900386953      4.29e-03  
 Alpha HF Exchange    Energy = -10.34979675051763
 Beta HF Exchange     Energy = -10.34979675051761
 DFT Correlation      Energy =  -3.09344680516762
 DFT Exchange         Energy = -82.34788152386979
 One-Electron (alpha) Energy = -1994.03471927819373
 One-Electron (beta)  Energy = -1994.03471927819169
 Total Coulomb        Energy = 1322.09582729230851
    5   -2519.9074615138      3.63e-03  
 Alpha HF Exchange    Energy = -10.37274602839543
 Beta HF Exchange     Energy = -10.37274602839542
 DFT Correlation      Energy =  -3.11734466506620
 DFT Exchange         Energy = -82.53296269727277
 One-Electron (alpha) Energy = -2006.70945454622438
 One-Electron (beta)  Energy = -2006.70945454622324
 Total Coulomb        Energy = 1347.55313971607552
    6   -2520.0544972152      2.16e-03  
 Alpha HF Exchange    Energy = -10.34351240921057
 Beta HF Exchange     Energy = -10.34351240921055
 DFT Correlation      Energy =  -3.09445104111480
 DFT Exchange         Energy = -82.34197073385208
 One-Electron (alpha) Energy = -1997.44846181384469
 One-Electron (beta)  Energy = -1997.44846181384241
 Total Coulomb        Energy = 1328.62364449813640
    7   -2520.1896541426      2.15e-03  
 Alpha HF Exchange    Energy = -10.34705869143652
 Beta HF Exchange     Energy = -10.34705869143652
 DFT Correlation      Energy =  -3.09827909943262
 DFT Exchange         Energy = -82.38695060999228
 One-Electron (alpha) Energy = -1999.31123822823520
 One-Electron (beta)  Energy = -1999.31123822823542
 Total Coulomb        Energy = 1332.34356170379351
    8   -2520.2511902646      1.22e-03  
 Alpha HF Exchange    Energy = -10.34759791042360
 Beta HF Exchange     Energy = -10.34759791042361
 DFT Correlation      Energy =  -3.09683884826226
 DFT Exchange         Energy = -82.38330071383275
 One-Electron (alpha) Energy = -1998.45969787013132
 One-Electron (beta)  Energy = -1998.45969787013064
 Total Coulomb        Energy = 1330.66895261879927
    9   -2520.2187069241      1.72e-03  
 Alpha HF Exchange    Energy = -10.34761376637752
 Beta HF Exchange     Energy = -10.34761376637751
 DFT Correlation      Energy =  -3.09690678604569
 DFT Exchange         Energy = -82.38363980156996
 One-Electron (alpha) Energy = -1998.46871751273807
 One-Electron (beta)  Energy = -1998.46871751273579
 Total Coulomb        Energy = 1330.68676051168291
   10   -2520.2193770538      1.71e-03  
 Alpha HF Exchange    Energy = -10.34778885532224
 Beta HF Exchange     Energy = -10.34778885532225
 DFT Correlation      Energy =  -3.09790634557339
 DFT Exchange         Energy = -82.39058620004181
 One-Electron (alpha) Energy = -1999.02558946170234
 One-Electron (beta)  Energy = -1999.02558946170370
 Total Coulomb        Energy = 1331.78882532289390
   11   -2520.2393522764      1.42e-03  
 Alpha HF Exchange    Energy = -10.34781953775709
 Beta HF Exchange     Energy = -10.34781953775711
 DFT Correlation      Energy =  -3.09815445103802
 DFT Exchange         Energy = -82.39214727104707
 One-Electron (alpha) Energy = -1999.17783933135524
 One-Electron (beta)  Energy = -1999.17783933135684
 Total Coulomb        Energy = 1332.08999831059759
   12   -2520.2445495694      1.33e-03  
 Alpha HF Exchange    Energy = -10.34781695197687
 Beta HF Exchange     Energy = -10.34781695197687
 DFT Correlation      Energy =  -3.09814205644497
 DFT Exchange         Energy = -82.39206540439183
 One-Electron (alpha) Energy = -1999.16994311072426
 One-Electron (beta)  Energy = -1999.16994311072403
 Total Coulomb        Energy = 1332.07433587943547
   13   -2520.2443201265      1.33e-03  
 Alpha HF Exchange    Energy = -10.34781143753324
 Beta HF Exchange     Energy = -10.34781143753332
 DFT Correlation      Energy =  -3.09822276837857
 DFT Exchange         Energy = -82.39239034461363
 One-Electron (alpha) Energy = -1999.19816302276558
 One-Electron (beta)  Energy = -1999.19816302270783
 Total Coulomb        Energy = 1332.13001928755057
   14   -2520.2454711656      1.31e-03  
 Alpha HF Exchange    Energy = -10.34801390258306
 Beta HF Exchange     Energy = -10.34801390258332
 DFT Correlation      Energy =  -3.09867303396656
 DFT Exchange         Energy = -82.39594220984688
 One-Electron (alpha) Energy = -1999.46611033520844
 One-Electron (beta)  Energy = -1999.46611033487375
 Total Coulomb        Energy = 1332.66283069971814
   15   -2520.2529614390      1.16e-03  
 Alpha HF Exchange    Energy = -10.34840946381210
 Beta HF Exchange     Energy = -10.34840946381036
 DFT Correlation      Energy =  -3.09948716525002
 DFT Exchange         Energy = -82.40188429547381
 One-Electron (alpha) Energy = -1999.93267135723931
 One-Electron (beta)  Energy = -1999.93267135389169
 Total Coulomb        Energy = 1333.59280017970150
   16   -2520.2636613394      8.91e-04  
 Alpha HF Exchange    Energy = -10.34950042863282
 Beta HF Exchange     Energy = -10.34950042860032
 DFT Correlation      Energy =  -3.10084861823727
 DFT Exchange         Energy = -82.41334945100708
 One-Electron (alpha) Energy = -2000.67883021075045
 One-Electron (beta)  Energy = -2000.67883018539146
 Total Coulomb        Energy = 1335.08915436153393
   17   -2520.2746333807      4.51e-04  
 Alpha HF Exchange    Energy = -10.35109805009422
 Beta HF Exchange     Energy = -10.35109804985560
 DFT Correlation      Energy =  -3.10234669329540
 DFT Exchange         Energy = -82.42687297004730
 One-Electron (alpha) Energy = -2001.42715724144864
 One-Electron (beta)  Energy = -2001.42715711964115
 Total Coulomb        Energy = 1336.60036205591746
   18   -2520.2782964881      7.70e-06  
 Alpha HF Exchange    Energy = -10.35109635197649
 Beta HF Exchange     Energy = -10.35109635139784
 DFT Correlation      Energy =  -3.10234358488278
 DFT Exchange         Energy = -82.42688700562047
 One-Electron (alpha) Energy = -2001.42429537450562
 One-Electron (beta)  Energy = -2001.42429507858878
 Total Coulomb        Energy = 1336.59464564890504
   19   -2520.2782965177      7.17e-06  
 Alpha HF Exchange    Energy = -10.35111432656403
 Beta HF Exchange     Energy = -10.35111432518854
 DFT Correlation      Energy =  -3.10235966781471
 DFT Exchange         Energy = -82.42702626600234
 One-Electron (alpha) Energy = -2001.43255205264813
 One-Electron (beta)  Energy = -2001.43255135195727
 Total Coulomb        Energy = 1336.61134906494613
   20   -2520.2782973449      2.12e-06  
 Alpha HF Exchange    Energy = -10.35112248012604
 Beta HF Exchange     Energy = -10.35112247706825
 DFT Correlation      Energy =  -3.10236647885290
 DFT Exchange         Energy = -82.42708987851529
 One-Electron (alpha) Energy = -2001.43565659157457
 One-Electron (beta)  Energy = -2001.43565503611035
 Total Coulomb        Energy = 1336.61764393636781
   21   -2520.2782974255      2.89e-07  Convergence criterion met
 ---------------------------------------
 SCF time:   CPU 64.63s  wall 6.00s 
<S^2> =          0.000000002
 Alpha HF Exchange    Energy = -10.35112248012604
 Beta HF Exchange     Energy = -10.35112247706825
 DFT Correlation      Energy =  -3.10236647885290
 DFT Exchange         Energy = -82.42708987851529
 One-Electron (alpha) Energy = -2001.43565659157457
 One-Electron (beta)  Energy = -2001.43565503611035
 Total Coulomb        Energy = 1336.61764393636781
 Nuclear repulsion Energy = 252.20707158035154
 SCF   energy in the final basis set =    -2520.2782974255
 Total energy in the final basis set =    -2520.2782974255
 
 --------------------------------------------------------------
 
                    Orbital Energies (a.u.)
 --------------------------------------------------------------
 
 Alpha MOs
 -- Occupied --
******* -58.110 -52.169 -52.167 -52.164 -10.239 -10.190 -10.190
 -7.842  -5.789  -5.784  -5.772  -2.122  -2.122  -2.112  -2.108
 -2.106  -0.814  -0.698  -0.678  -0.571  -0.468  -0.441  -0.420
 -0.395  -0.362  -0.360  -0.317  -0.250  -0.232
 -- Virtual --
 -0.185   0.018   0.082   0.129   0.146   0.148   0.164   0.176
  0.184   0.188   0.224   0.226   0.306   0.318   0.324   0.453
  0.463   0.480   0.499   0.553   0.571   0.583   0.666   0.676
  0.697   0.755   0.764   0.788   0.807   0.823   0.865   0.869
  0.903   0.908   0.921   0.953   0.953   1.071   1.309   1.383
  1.387   1.465   1.542   1.649   1.724   1.781   1.827   1.853
  1.890   2.012   2.013   2.032   2.035   2.036   2.039   2.067
  2.092   2.100   2.105   2.261   2.305   2.342   2.370   2.504
  2.557   2.614   2.652   2.696   2.713   2.859   2.862   2.892
  2.897   3.165   3.216   3.289   3.410   3.441   3.452   3.492
  4.214   4.229   4.234   4.331   4.338   4.448   4.500   4.610
  5.443  89.699
 
 Beta MOs
 -- Occupied --
******* -58.110 -52.169 -52.167 -52.164 -10.239 -10.190 -10.190
 -7.842  -5.789  -5.784  -5.772  -2.122  -2.122  -2.112  -2.108
 -2.106  -0.814  -0.698  -0.678  -0.571  -0.468  -0.441  -0.420
 -0.395  -0.362  -0.360  -0.317  -0.250  -0.232
 -- Virtual --
 -0.185   0.018   0.082   0.129   0.146   0.148   0.164   0.176
  0.184   0.188   0.224   0.226   0.306   0.318   0.324   0.453
  0.463   0.480   0.499   0.553   0.571   0.583   0.666   0.676
  0.697   0.755   0.764   0.788   0.807   0.823   0.865   0.869
  0.903   0.908   0.921   0.953   0.953   1.071   1.309   1.383
  1.387   1.465   1.542   1.649   1.724   1.781   1.827   1.853
  1.890   2.012   2.013   2.032   2.035   2.036   2.039   2.067
  2.092   2.100   2.105   2.261   2.305   2.342   2.370   2.504
  2.557   2.614   2.652   2.696   2.713   2.859   2.862   2.892
  2.897   3.165   3.216   3.289   3.410   3.441   3.452   3.492
  4.214   4.229   4.234   4.331   4.338   4.448   4.500   4.610
  5.443  89.699
 --------------------------------------------------------------
 
          Ground-State Mulliken Net Atomic Charges

     Atom                 Charge (a.u.)    Spin (a.u.)
  --------------------------------------------------------
      1 C                    -0.300623      -0.000001
      2 C                    -0.163038       0.000000
      3 Se                   -0.050295       0.000000
      4 H                    -0.035160      -0.000000
      5 C                    -0.300623       0.000001
      6 H                     0.124849       0.000000
      7 H                     0.106614      -0.000000
      8 H                     0.123862       0.000000
      9 H                     0.139088       0.000000
     10 H                     0.106614       0.000000
     11 H                     0.124849      -0.000000
     12 H                     0.123862      -0.000000
  --------------------------------------------------------
  Sum of atomic charges =    -0.000000
  Sum of spin   charges =    -0.000000

 -----------------------------------------------------------------
                    Cartesian Multipole Moments
 -----------------------------------------------------------------
    Charge (ESU x 10^10)
                 0.0000
    Dipole Moment (Debye)
         X      -2.0819      Y       0.0000      Z      -0.7370
       Tot       2.2085
    Quadrupole Moments (Debye-Ang)
        XX     -38.5813     XY       0.0000     YY     -41.2451
        XZ       0.6095     YZ      -0.0000     ZZ     -39.0116
    Octopole Moments (Debye-Ang^2)
       XXX      46.3993    XXY      -0.0000    XYY      13.2621
       YYY      -0.0000    XXZ       8.2490    XYZ      -0.0000
       YYZ      10.2410    XZZ      14.9854    YZZ       0.0000
       ZZZ      26.8327
    Hexadecapole Moments (Debye-Ang^3)
      XXXX    -441.3769   XXXY       0.0000   XXYY    -116.4595
      XYYY       0.0000   YYYY    -219.8129   XXXZ      15.0623
      XXYZ      -0.0000   XYYZ       6.6934   YYYZ      -0.0000
      XXZZ    -108.2128   XYZZ       0.0000   YYZZ     -69.9386
      XZZZ      15.7468   YZZZ      -0.0000   ZZZZ    -178.1300
 -----------------------------------------------------------------
 Calculating analytic gradient of the SCF energy
 Gradient of SCF Energy
            1           2           3           4           5           6
    1   0.0001461  -0.0001098  -0.0002138   0.0003816   0.0001461   0.0000026
    2   0.0000867  -0.0000000   0.0000000   0.0000000  -0.0000867  -0.0001024
    3  -0.0000597   0.0002675  -0.0227729   0.0226449  -0.0000597  -0.0000037
            7           8           9          10          11          12
    1  -0.0000597  -0.0000633  -0.0001095  -0.0000597   0.0000026  -0.0000633
    2   0.0000027  -0.0001143   0.0000000  -0.0000027   0.0001024   0.0001143
    3   0.0000326   0.0000095  -0.0000968   0.0000326  -0.0000037   0.0000095
 Max gradient component =       2.277E-02
 RMS gradient           =       5.354E-03
 Gradient time:  CPU 11.46 s  wall 0.96 s
 Geometry Optimization Parameters
   NAtoms,    NIC,     NZ,  NCons,   NDum,   NFix, NCnnct, MaxDiis
       12      94       0       1       0       0       0       0

 Cartesian Hessian Update
 Hessian Updated using BFGS Update


** CONSTRAINED OPTIMIZATION IN DELOCALIZED INTERNAL COORDINATES **
   Searching for a Minimum

   Optimization Cycle:   7

                       Coordinates (Angstroms)
     ATOM                X               Y               Z
      1  C        -1.7084312804    1.2745093165    0.0845273211
      2  C        -1.1541750364    0.0000000000   -0.5522828577
      3  Se        0.8160938490    0.0000000000   -0.6523303795
      4  H         0.8468125643    0.0000000000    2.7475305767
      5  C        -1.7084312804   -1.2745093166    0.0845273211
      6  H        -1.3222183117    2.1732025719   -0.4010828799
      7  H        -2.8032401314    1.2820718654    0.0144434668
      8  H        -1.4349278786    1.3137933185    1.1442912491
      9  H        -1.3928961723    0.0000000000   -1.6307826535
     10  H        -2.8032401315   -1.2820718654    0.0144434668
     11  H        -1.3222183118   -2.1732025721   -0.4010828799
     12  H        -1.4349278786   -1.3137933185    1.1442912491
   Point Group: c1    Number of degrees of freedom:    30


   Energy is  -2520.278297426

              Constraints and their Current Values
                                        Value     Constraint
   Distance(Angs):        3   4             3.400000     3.400000
 Hessian Updated using BFGS Update

 16 Hessian modes will be used to form the next step
  Hessian Eigenvalues:
     0.013490    0.044015    0.110589    0.208729    0.233711    0.258751
     0.268900    0.320084    0.393183    0.411335    0.488336    0.734965
     0.886483    0.993891    1.037561    1.054772

 Minimum Search - Taking Simple RFO Step
 Searching for Lamda that Minimizes Along All modes
 Value Taken    Lamda =  -0.00000121
 Step Taken.  Stepsize is  0.008219

                             Maximum     Tolerance    Cnvgd?
         Gradient           0.000216      0.000300     YES
         Displacement       0.005300      0.001200      NO
         Energy change     -0.000000      0.000001     YES


                       Distance Matrix (Angstroms)
             C (  1)   C (  2)   Se(  3)   H (  4)   C (  5)   H (  6)
   C (  2)  1.528758
   Se(  3)  2.922424  1.972807
   H (  4)  3.904514  3.859109  3.400000
   C (  5)  2.549019  1.528758  2.922424  3.904514
   H (  6)  1.092075  2.184928  3.059136  4.397871  3.503098
   H (  7)  1.097076  2.164325  3.897162  4.736703  2.782018  1.777696
   H (  8)  1.095193  2.164079  3.165596  3.082656  2.810198  1.771855
   H (  9)  2.160145  1.104604  2.415990  4.917918  2.160145  2.497992
   H ( 10)  2.782018  2.164325  3.897162  4.736703  1.097076  3.782196
   H ( 11)  3.503098  2.184928  3.059136  4.397871  1.092075  4.346405
   H ( 12)  2.810198  2.164079  3.165596  3.082656  1.095193  3.815760
             H (  7)   H (  8)   H (  9)   H ( 10)   H ( 11)
   H (  8)  1.774779
   H (  9)  2.517846  3.070644
   H ( 10)  2.564144  3.144416  2.517846
   H ( 11)  3.782196  3.815760  2.497992  1.777696
   H ( 12)  3.144416  2.627587  3.070644  1.774779  1.771855
 
 Final energy is   -2520.27829742553     


 ******************************
 **  OPTIMIZATION CONVERGED  **
 ******************************

                       Coordinates (Angstroms)
     ATOM                X               Y               Z
      1  C        -1.7084312804    1.2745093165    0.0845273211
      2  C        -1.1541750364    0.0000000000   -0.5522828577
      3  Se        0.8160938490    0.0000000000   -0.6523303795
      4  H         0.8468125643    0.0000000000    2.7475305767
      5  C        -1.7084312804   -1.2745093166    0.0845273211
      6  H        -1.3222183117    2.1732025719   -0.4010828799
      7  H        -2.8032401314    1.2820718654    0.0144434668
      8  H        -1.4349278786    1.3137933185    1.1442912491
      9  H        -1.3928961723    0.0000000000   -1.6307826535
     10  H        -2.8032401315   -1.2820718654    0.0144434668
     11  H        -1.3222183118   -2.1732025721   -0.4010828799
     12  H        -1.4349278786   -1.3137933185    1.1442912491

Z-matrix Print:
$molecule
0 1
Se
C  1 1.972807
H  2 1.104604 1 99.574030
C  2 1.528758 1 112.532758 3 -115.499006 0
H  4 1.092075 2 111.877092 1 52.774060 0
H  4 1.095193 2 110.025722 1 -67.538153 0
H  4 1.097076 2 109.934189 1 173.511569 0
C  2 1.528758 1 112.532758 3 115.499006 0
H  8 1.092075 2 111.877092 1 -52.774060 0
H  8 1.095193 2 110.025722 1 67.538153 0
H  8 1.097076 2 109.934189 1 -173.511569 0
H  10 3.082656 8 132.285061 2 -23.500545 0
$end

PES scan, value:    3.4000 energy: -2520.2782974255
------- Summary of potential scan: ------ 
    3.4000     -2520.2782974255
----------------------------------------- 
Archival summary:
1\1\hpc0248\JobtypUnspecified\ProcedureUnspecified\6-31G**\e138\knomura\WedMar1316:32:042019WedMar1316:32:042019\0\\#,JobtypUnspecified,ProcedureUnspecified,6-31G**,\\0,1\Se\C,1,1.97281\H,2,1.1046,1,99.574\C,2,1.52876,1,112.533,3,-115.499,0\H,4,1.09207,2,111.877,1,52.7741,0\H,4,1.09519,2,110.026,1,-67.5382,0\H,4,1.09708,2,109.934,1,173.512,0\C,2,1.52876,1,112.533,3,115.499,0\H,8,1.09207,2,111.877,1,-52.7741,0\H,8,1.09519,2,110.026,1,67.5382,0\H,8,1.09708,2,109.934,1,-173.512,0\H,10,3.08266,8,132.285,2,-23.5005,0\\\@

 Total job time:  47.31s(wall), 555.79s(cpu) 
 Wed Mar 13 16:32:04 2019

        *************************************************************
        *                                                           *
        *  Thank you very much for using Q-Chem.  Have a nice day.  *
        *                                                           *
        *************************************************************


