
Running Job 1 of 1 selenium/01/Se-H.xyz.data/inputs/bond_singlet_2.5.in
qchem selenium/01/Se-H.xyz.data/inputs/bond_singlet_2.5.in_23071.0 /staging/scratch/2868765/qchem23071/ 1
/usr/usc/qchem/5.1.1/exe/qcprog.exe_s selenium/01/Se-H.xyz.data/inputs/bond_singlet_2.5.in_23071.0 /staging/scratch/2868765/qchem23071/
Check license passed

                  Welcome to Q-Chem
     A Quantum Leap Into The Future Of Chemistry


 Q-Chem 5.1, Q-Chem, Inc., Pleasanton, CA (2018)

 Yihan Shao,  Zhengting Gan,  E. Epifanovsky,  A. T. B. Gilbert,  M. Wormit,  
 J. Kussmann,  A. W. Lange,  A. Behn,  Jia Deng,  Xintian Feng,  D. Ghosh,  
 M. Goldey,  P. R. Horn,  L. D. Jacobson,  I. Kaliman,  T. Kus,  A. Landau,  
 Jie Liu,  E. I. Proynov,  R. M. Richard,  R. P. Steele,  E. J. Sundstrom,  
 H. L. Woodcock III,  P. M. Zimmerman,  D. Zuev,  B. Albrecht,  E. Alguire,  
 S. A. Baeppler,  D. Barton,  Z. Benda,  Y. A. Bernard,  E. J. Berquist,  
 K. B. Bravaya,  H. Burton,  D. Casanova,  Chun-Min Chang,  Yunqing Chen,  
 A. Chien,  K. D. Closser,  M. P. Coons,  S. Coriani,  S. Dasgupta,  
 A. L. Dempwolff,  M. Diedenhofen,  Hainam Do,  R. G. Edgar,  Po-Tung Fang,  
 S. Faraji,  S. Fatehi,  Qingguo Feng,  K. D. Fenk,  J. Fosso-Tande,  
 Qinghui Ge,  A. Ghysels,  G. Gidofalvi,  J. Gomes,  J. Gonthier,  A. Gunina,  
 D. Hait,  M. W. D. Hanson-Heine,  P. H. P. Harbach,  A. W. Hauser,  
 J. E. Herr,  E. G. Hohenstein,  Z. C. Holden,  Kerwin Hui,  B. C. Huynh,  
 T.-C. Jagau,  Hyunjun Ji,  B. Kaduk,  K. Khistyaev,  Jaehoon Kim,  
 P. Klunzinger,  K. Koh,  D. Kosenkov,  L. Koulias,  T. Kowalczyk,  
 C. M. Krauter,  A. Kunitsa,  Ka Un Lao,  A. Laurent,  K. V. Lawler,  
 Joonho Lee,  D. Lefrancois,  S. Lehtola,  D. S. Levine,  Yi-Pei Li,  
 You-Sheng Lin,  Fenglai Liu,  E. Livshits,  A. Luenser,  P. Manohar,  
 E. Mansoor,  S. F. Manzer,  Shan-Ping Mao,  Yuezhi Mao,  N. Mardirossian,  
 A. V. Marenich,  T. Markovich,  L. A. Martinez-Martinez,  S. A. Maurer,  
 N. J. Mayhall,  S. C. McKenzie,  J.-M. Mewes,  A. F. Morrison,  
 J. W. Mullinax,  K. Nanda,  T. S. Nguyen-Beck,  R. Olivares-Amaya,  
 J. A. Parkhill,  T. M. Perrine,  F. Plasser,  P. Pokhilko,  S. Prager,  
 A. Prociuk,  E. Ramos,  D. R. Rehn,  F. Rob,  M. Schneider,  N. Sergueev,  
 S. M. Sharada,  S. Sharma,  D. W. Small,  T. Stauch,  T. Stein,  
 Yu-Chuan Su,  A. J. W. Thom,  A. Tkatchenko,  T. Tsuchimochi,  N. M. Tubman,  
 L. Vogt,  M. L. Vidal,  O. Vydrov,  M. A. Watson,  J. Wenzel,  
 M. de Wergifosse,  T. A. Wesolowski,  A. White,  J. Witte,  A. Yamada,  
 Jun Yang,  K. Yao,  S. Yeganeh,  S. R. Yost,  Zhi-Qiang You,  A. Zech,  
 Igor Ying Zhang,  Xing Zhang,  Yan Zhao,  Ying Zhu,  B. R. Brooks,  
 G. K. L. Chan,  C. J. Cramer,  M. S. Gordon,  W. J. Hehre,  A. Klamt,  
 M. W. Schmidt,  C. D. Sherrill,  D. G. Truhlar,  A. Aspuru-Guzik,  R. Baer,  
 A. T. Bell,  N. A. Besley,  Jeng-Da Chai,  A. E. DePrince, III,  
 R. A. DiStasio Jr.,  A. Dreuw,  B. D. Dunietz,  T. R. Furlani,  
 Chao-Ping Hsu,  Yousung Jung,  Jing Kong,  D. S. Lambrecht,  WanZhen Liang,  
 C. Ochsenfeld,  V. A. Rassolov,  L. V. Slipchenko,  J. E. Subotnik,  
 T. Van Voorhis,  J. M. Herbert,  A. I. Krylov,  P. M. W. Gill,  M. Head-Gordon

 Contributors to earlier versions of Q-Chem not listed above: 
 R. D. Adamson,  B. Austin,  J. Baker,  G. J. O. Beran,  K. Brandhorst,  
 S. T. Brown,  E. F. C. Byrd,  A. K. Chakraborty,  C.-L. Cheng,  
 Siu Hung Chien,  D. M. Chipman,  D. L. Crittenden,  H. Dachsel,  
 R. J. Doerksen,  A. D. Dutoi,  L. Fusti-Molnar,  W. A. Goddard III,  
 A. Golubeva-Zadorozhnaya,  S. R. Gwaltney,  G. Hawkins,  A. Heyden,  
 S. Hirata,  G. Kedziora,  F. J. Keil,  C. Kelley,  Jihan Kim,  R. A. King,  
 R. Z. Khaliullin,  P. P. Korambath,  W. Kurlancheek,  A. M. Lee,  M. S. Lee,  
 S. V. Levchenko,  Ching Yeh Lin,  D. Liotard,  R. C. Lochan,  I. Lotan,  
 P. E. Maslen,  N. Nair,  D. P. O'Neill,  D. Neuhauser,  E. Neuscamman,  
 C. M. Oana,  R. Olson,  B. Peters,  R. Peverati,  P. A. Pieniazek,  
 Y. M. Rhee,  J. Ritchie,  M. A. Rohrdanz,  E. Rosta,  N. J. Russ,  
 H. F. Schaefer III,  N. E. Schultz,  N. Shenvi,  A. C. Simmonett,  A. Sodt,  
 D. Stuck,  K. S. Thanthiriwatte,  V. Vanovschi,  Tao Wang,  A. Warshel,  
 C. F. Williams,  Q. Wu,  X. Xu,  W. Zhang

 Please cite Q-Chem as follows:
 Y. Shao et al., Mol. Phys. 113, 184-215 (2015)
 DOI: 10.1080/00268976.2014.952696

 Q-Chem 5.1.1 for Intel X86 EM64T Linux

 Parts of Q-Chem use Armadillo 8.300.2 (Tropical Shenanigans).
 http://arma.sourceforge.net/

 Q-Chem begins on Wed Mar 13 16:26:15 2019  

Host: 
0

     Scratch files written to /staging/scratch/2868765/qchem23071//
 Aug318 |scratch|qcdevops|jenkins|workspace|build_RNUM 6013   
Processing $rem in /usr/usc/qchem/5.1.1/config/preferences.
 MEM_TOTAL  2000 
Input Ideriv = 2
Curr. Ideriv = -1
Max.  Ideriv = 2

Checking the input file for inconsistencies... 	...done.

--------------------------------------------------------------
User input:
--------------------------------------------------------------

$comment
potential surface scanner
$end

$rem
JOBTYPE  PES_SCAN
UNRESTRICTED TRUE
SYM_IGNORE  TRUE
GEOM_OPT_MAX_CYCLES 400
SCF_MAX_CYCLES 400
METHOD   B3LYP
BASIS   6-31G**
PDB_PRINT 2
SCF_CONVERGENCE 6
THRESH 14
SCF_PRINT 1
$end
$molecule
0 1
C -1.732774 1.273511 0.117746
C -1.113089 0.000000 -0.454239
Se 0.868615 0.000000 -0.321956
H 0.888025 0.000000 2.077965
C -1.732774 -1.273511 0.117746
H -1.298159 2.171436 -0.327100
H -2.814060 1.281157 -0.068619
H -1.576324 1.320728 1.200353
H -1.222714 0.000000 -1.550037
H -2.814060 -1.281157 -0.068619
H -1.298159 -2.171436 -0.327100
H -1.576324 -1.320728 1.200353
$end
$scan
stre 3 4 2.500000 2.501000 0.100000
$end
--------------------------------------------------------------
 ----------------------------------------------------------------
             Standard Nuclear Orientation (Angstroms)
    I     Atom           X                Y                Z
 ----------------------------------------------------------------
    1      C      -1.7327740000     1.2735110000     0.1177460000
    2      C      -1.1130890000     0.0000000000    -0.4542390000
    3      Se      0.8686150000     0.0000000000    -0.3219560000
    4      H       0.8880250000     0.0000000000     2.0779650000
    5      C      -1.7327740000    -1.2735110000     0.1177460000
    6      H      -1.2981590000     2.1714360000    -0.3271000000
    7      H      -2.8140600000     1.2811570000    -0.0686190000
    8      H      -1.5763240000     1.3207280000     1.2003530000
    9      H      -1.2227140000     0.0000000000    -1.5500370000
   10      H      -2.8140600000    -1.2811570000    -0.0686190000
   11      H      -1.2981590000    -2.1714360000    -0.3271000000
   12      H      -1.5763240000    -1.3207280000     1.2003530000
 ----------------------------------------------------------------
 Nuclear Repulsion Energy =   254.2262037218 hartrees
 There are       30 alpha and       30 beta electrons
 Requested basis set is 6-31G(d,p)
 There are 44 shells and 120 basis functions

 Total QAlloc Memory Limit   2000 MB
 Mega-Array Size       188 MB
 MEM_STATIC part       192 MB
A total of 1 constraints
  
            1
    1   1.0100000
    2   3.0100000
    3   4.0100000
    4   2.5000000
    5   2.5010000
    6   0.1000000
    7   0.0000000
    8   0.0000000
    9   0.0000000
   10   0.0000000

                       Distance Matrix (Angstroms)
             C (  1)   C (  2)   Se(  3)   H (  4)   C (  5)   H (  6)
   C (  2)  1.527418
   Se(  3)  2.929572  1.986114
   H (  4)  3.511819  3.227463  2.399999
   C (  5)  2.547022  1.527418  2.929572  3.511819
   H (  6)  1.092267  2.183014  3.067584  3.908820  3.500634
   H (  7)  1.097256  2.164109  3.907383  4.467059  2.780331  1.776898
   H (  8)  1.094872  2.167160  3.168513  2.930451  2.815420  1.770365
   H (  9)  2.159512  1.101268  2.425250  4.197335  2.159512  2.493271
   H ( 10)  2.780331  2.164109  3.907383  4.467059  1.097256  3.779572
   H ( 11)  3.500634  2.183014  3.067584  3.908820  1.092267  4.342872
   H ( 12)  2.815420  2.167160  3.168513  2.930451  1.094872  3.821740
             H (  7)   H (  8)   H (  9)   H ( 10)   H ( 11)
   H (  8)  1.773089
   H (  9)  2.523558  3.071483
   H ( 10)  2.562314  3.148347  2.523558
   H ( 11)  3.779572  3.821740  2.493271  1.776898
   H ( 12)  3.148347  2.641456  3.071483  1.773089  1.770365
 
 A cutoff of  1.0D-14 yielded    955 shell pairs
 There are      7194 function pairs
 
 -------------------------------------------------------
 OpenMP Integral Computing Module                       
 Release: version 1.0, May 2013, Q-Chem Inc. Pittsburgh 
 -------------------------------------------------------
 Integral Job Info:
 Integral job number is                      11
 Integral operator is                         1
 short-range coefficients                     0
 long-range coefficients              100000000
 Omega coefficients                           0
 if combine SR and LR in K                    0
 Integral screening is                        0
 Integral computing path is                   2
 max size of driver memory is            800000
 size of driver memory is                593474
 size of scratch memory is             15267112
 max col of scratch BK array               1296
 max len of scratch array in speh3          155
 max len of scratch index in speh4           18
 max int batch size is                      520
 min int batch size is                       52
 fixed nKL is                                52
 max L of basis functions is                  2
 order of int derivative is                   0
 number of shells is                         44
 number of basis is                         120
 number of cartesian basis is               120
 number of contracted shell pairs           955
 number of primitive shell pairs           3593
 maxK2 (contraction) of shell pair           36
 max number of K2 of shell pair               1
 max number of CS2 of shell pair             85
 max number of PS2 of shell pair            288
 mem total for path MDJ                  519708
 -------------------------------------------------------
 Smallest overlap matrix eigenvalue = 6.75E-04

 Scale SEOQF with 1.000000e-01/1.000000e-01/1.000000e-01

 Standard Electronic Orientation quadrupole field applied
 Nucleus-field energy     =     0.0000000044 hartrees
 Guess from superposition of atomic densities
 Warning:  Energy on first SCF cycle will be non-variational
 SAD guess density has 59.968191 electrons

 -----------------------------------------------------------------------
  General SCF calculation program by
  Eric Jon Sundstrom, Paul Horn, Yuezhi Mao, Dmitri Zuev, Alec White,
  David Stuck, Shaama M.S., Shane Yost, Joonho Lee, David Small,
  Daniel Levine, Susi Lehtola, Hugh Burton, Evgeny Epifanovsky
 -----------------------------------------------------------------------
 Exchange:     0.2000 Hartree-Fock + 0.0800 Slater + 0.7200 B88
 Correlation:  0.1900 VWN1RPA + 0.8100 LYP
 Using SG-1 standard quadrature grid
 using 12 threads for integral computing
 -------------------------------------------------------
 OpenMP Integral computing Module                
 Release: version 1.0, May 2013, Q-Chem Inc. Pittsburgh 
 -------------------------------------------------------
 -------------------------------------------------------
 OpenMP BLAS3 based DFT computing Module                
 Release: version 1.0, May 2013, Q-Chem Inc. Pittsburgh 
 -------------------------------------------------------
 A unrestricted SCF calculation will be
 performed using DIIS
 SCF converges when DIIS error is below 1.0e-06
 Alpha HF Exchange    Energy = -10.34552256175918
 Beta HF Exchange     Energy = -10.34552256175918
 DFT Correlation      Energy =  -3.08312202823099
 DFT Exchange         Energy = -81.98391303961863
 One-Electron (alpha) Energy = -2001.49189359487104
 One-Electron (beta)  Energy = -2001.49189359487104
 Total Coulomb        Energy = 1331.33044048365991
 ---------------------------------------
  Cycle       Energy         DIIS error
 ---------------------------------------
    1   -2523.1852231713      1.38e-01  
 Alpha HF Exchange    Energy = -10.41332251153638
 Beta HF Exchange     Energy = -10.41332251153637
 DFT Correlation      Energy =  -3.12971725076239
 DFT Exchange         Energy = -82.88645263345897
 One-Electron (alpha) Energy = -2010.26716739782000
 One-Electron (beta)  Energy = -2010.26716739781909
 Total Coulomb        Energy = 1353.00226399473195
    2   -2520.1486819820      9.16e-03  
 Alpha HF Exchange    Energy = -10.29819357169503
 Beta HF Exchange     Energy = -10.29819357169501
 DFT Correlation      Energy =  -3.07768545801201
 DFT Exchange         Energy = -81.93797929709723
 One-Electron (alpha) Energy = -1993.46389053257644
 One-Electron (beta)  Energy = -1993.46389053257508
 Total Coulomb        Energy = 1318.39661380789539
    3   -2519.9170154296      6.45e-03  
 Alpha HF Exchange    Energy = -10.40758593409246
 Beta HF Exchange     Energy = -10.40758593409245
 DFT Correlation      Energy =  -3.12824438200091
 DFT Exchange         Energy = -82.81421778999719
 One-Electron (alpha) Energy = -2011.13876752226452
 One-Electron (beta)  Energy = -2011.13876752226292
 Total Coulomb        Energy = 1354.71676513232160
    4   -2520.0922002262      4.32e-03  
 Alpha HF Exchange    Energy = -10.35449463631827
 Beta HF Exchange     Energy = -10.35449463631825
 DFT Correlation      Energy =  -3.10489746749528
 DFT Exchange         Energy = -82.42016455387444
 One-Electron (alpha) Energy = -2002.01169446779977
 One-Electron (beta)  Energy = -2002.01169446779795
 Total Coulomb        Energy = 1335.70845478995898
    5   -2520.3227817135      1.56e-03  
 Alpha HF Exchange    Energy = -10.35544757115444
 Beta HF Exchange     Energy = -10.35544757115444
 DFT Correlation      Energy =  -3.10556055619759
 DFT Exchange         Energy = -82.42556915336390
 One-Electron (alpha) Energy = -2003.71847708357336
 One-Electron (beta)  Energy = -2003.71847708357382
 Total Coulomb        Energy = 1339.10570128866993
    6   -2520.3470740042      4.25e-04  
 Alpha HF Exchange    Energy = -10.35647379868634
 Beta HF Exchange     Energy = -10.35647379868635
 DFT Correlation      Energy =  -3.10586170956218
 DFT Exchange         Energy = -82.43611086245390
 One-Electron (alpha) Energy = -2003.37910403516162
 One-Electron (beta)  Energy = -2003.37910403516230
 Total Coulomb        Energy = 1338.43861934947472
    7   -2520.3483051641      2.37e-04  
 Alpha HF Exchange    Energy = -10.35698355746869
 Beta HF Exchange     Energy = -10.35698355746870
 DFT Correlation      Energy =  -3.10609062701887
 DFT Exchange         Energy = -82.43971352943218
 One-Electron (alpha) Energy = -2003.55269945574332
 One-Electron (beta)  Energy = -2003.55269945574332
 Total Coulomb        Energy = 1338.79007439776365
    8   -2520.3488920589      4.66e-05  
 Alpha HF Exchange    Energy = -10.35718864673318
 Beta HF Exchange     Energy = -10.35718864673317
 DFT Correlation      Energy =  -3.10625677085639
 DFT Exchange         Energy = -82.44127877311648
 One-Electron (alpha) Energy = -2003.61843323535095
 One-Electron (beta)  Energy = -2003.61843323535163
 Total Coulomb        Energy = 1338.92365452616059
    9   -2520.3489210558      1.21e-05  
 Alpha HF Exchange    Energy = -10.35715513221294
 Beta HF Exchange     Energy = -10.35715513221294
 DFT Correlation      Energy =  -3.10620112132608
 DFT Exchange         Energy = -82.44098924916028
 One-Electron (alpha) Energy = -2003.60169449770024
 One-Electron (beta)  Energy = -2003.60169449770092
 Total Coulomb        Energy = 1338.88976345349829
   10   -2520.3489224507      4.68e-06  
 Alpha HF Exchange    Energy = -10.35717150633221
 Beta HF Exchange     Energy = -10.35717150633222
 DFT Correlation      Energy =  -3.10621665073636
 DFT Exchange         Energy = -82.44111866747701
 One-Electron (alpha) Energy = -2003.60813220985438
 One-Electron (beta)  Energy = -2003.60813220985506
 Total Coulomb        Energy = 1338.90281623280453
   11   -2520.3489227916      3.64e-07  Convergence criterion met
 ---------------------------------------
 SCF time:   CPU 35.88s  wall 3.00s 
<S^2> =          0.000000000
 Alpha HF Exchange    Energy = -10.35717150633221
 Beta HF Exchange     Energy = -10.35717150633222
 DFT Correlation      Energy =  -3.10621665073636
 DFT Exchange         Energy = -82.44111866747701
 One-Electron (alpha) Energy = -2003.60813220985438
 One-Electron (beta)  Energy = -2003.60813220985506
 Total Coulomb        Energy = 1338.90281623280453
 Nuclear repulsion Energy = 254.22620372616481
 SCF   energy in the final basis set =    -2520.3489227916
 Total energy in the final basis set =    -2520.3489227916
 
 --------------------------------------------------------------
 
                    Orbital Energies (a.u.)
 --------------------------------------------------------------
 
 Alpha MOs
 -- Occupied --
******* -58.105 -52.164 -52.162 -52.158 -10.234 -10.187 -10.187
 -7.837  -5.784  -5.778  -5.767  -2.117  -2.116  -2.107  -2.103
 -2.101  -0.809  -0.695  -0.673  -0.569  -0.464  -0.438  -0.417
 -0.393  -0.360  -0.357  -0.313  -0.287  -0.227
 -- Virtual --
 -0.128   0.019   0.086   0.130   0.147   0.151   0.166   0.179
  0.186   0.199   0.229   0.233   0.313   0.325   0.346   0.456
  0.468   0.489   0.504   0.559   0.587   0.588   0.672   0.680
  0.698   0.757   0.766   0.788   0.825   0.849   0.866   0.866
  0.905   0.907   0.933   0.954   0.958   1.075   1.312   1.385
  1.388   1.474   1.545   1.660   1.727   1.782   1.831   1.856
  1.892   2.020   2.027   2.037   2.038   2.045   2.067   2.096
  2.103   2.104   2.134   2.264   2.308   2.346   2.374   2.510
  2.559   2.620   2.658   2.700   2.718   2.861   2.864   2.896
  2.901   3.167   3.217   3.300   3.413   3.446   3.455   3.495
  4.225   4.235   4.257   4.334   4.348   4.453   4.503   4.614
  5.455  89.729
 
 Beta MOs
 -- Occupied --
******* -58.105 -52.164 -52.162 -52.158 -10.234 -10.187 -10.187
 -7.837  -5.784  -5.778  -5.767  -2.117  -2.116  -2.107  -2.103
 -2.101  -0.809  -0.695  -0.673  -0.569  -0.464  -0.438  -0.417
 -0.393  -0.360  -0.357  -0.313  -0.287  -0.227
 -- Virtual --
 -0.128   0.019   0.086   0.130   0.147   0.151   0.166   0.179
  0.186   0.199   0.229   0.233   0.313   0.325   0.346   0.456
  0.468   0.489   0.504   0.559   0.587   0.588   0.672   0.680
  0.698   0.757   0.766   0.788   0.825   0.849   0.866   0.866
  0.905   0.907   0.933   0.954   0.958   1.075   1.312   1.385
  1.388   1.474   1.545   1.660   1.727   1.782   1.831   1.856
  1.892   2.020   2.027   2.037   2.038   2.045   2.067   2.096
  2.103   2.104   2.134   2.264   2.308   2.346   2.374   2.510
  2.559   2.620   2.658   2.700   2.718   2.861   2.864   2.896
  2.901   3.167   3.217   3.300   3.413   3.446   3.455   3.495
  4.225   4.235   4.257   4.334   4.348   4.453   4.503   4.614
  5.455  89.729
 --------------------------------------------------------------
 
          Ground-State Mulliken Net Atomic Charges

     Atom                 Charge (a.u.)    Spin (a.u.)
  --------------------------------------------------------
      1 C                    -0.298830      -0.000000
      2 C                    -0.155350      -0.000000
      3 Se                   -0.060348      -0.000000
      4 H                    -0.010409      -0.000000
      5 C                    -0.298830       0.000000
      6 H                     0.123455       0.000000
      7 H                     0.104750       0.000000
      8 H                     0.118867       0.000000
      9 H                     0.129623       0.000000
     10 H                     0.104750       0.000000
     11 H                     0.123455       0.000000
     12 H                     0.118867      -0.000000
  --------------------------------------------------------
  Sum of atomic charges =     0.000000
  Sum of spin   charges =    -0.000000

 -----------------------------------------------------------------
                    Cartesian Multipole Moments
 -----------------------------------------------------------------
    Charge (ESU x 10^10)
                 0.0000
    Dipole Moment (Debye)
         X      -1.8968      Y      -0.0000      Z      -0.4181
       Tot       1.9424
    Quadrupole Moments (Debye-Ang)
        XX     -38.9307     XY       0.0000     YY     -41.3366
        XZ       0.5938     YZ       0.0000     ZZ     -37.7838
    Octopole Moments (Debye-Ang^2)
       XXX      44.7489    XXY      -0.0000    XYY      12.6121
       YYY       0.0000    XXZ       3.2792    XYZ      -0.0000
       YYZ       3.8346    XZZ      15.6836    YZZ      -0.0000
       ZZZ      12.6595
    Hexadecapole Moments (Debye-Ang^3)
      XXXX    -458.2036   XXXY       0.0000   XXYY    -119.7432
      XYYY       0.0000   YYYY    -220.6412   XXXZ      10.9440
      XXYZ       0.0000   XYYZ       3.8177   YYYZ       0.0000
      XXZZ     -98.7325   XYZZ       0.0000   YYZZ     -57.9817
      XZZZ       9.9200   YZZZ       0.0000   ZZZZ    -107.2254
 -----------------------------------------------------------------
 Calculating analytic gradient of the SCF energy
 Gradient of SCF Energy
            1           2           3           4           5           6
    1   0.0000239  -0.0000453  -0.0004525   0.0004494   0.0000239  -0.0000206
    2   0.0000101   0.0000000   0.0000000  -0.0000000  -0.0000101  -0.0000035
    3   0.0000352  -0.0000131  -0.0550657   0.0550393   0.0000352  -0.0000167
            7           8           9          10          11          12
    1  -0.0000143   0.0000210   0.0000283  -0.0000143  -0.0000206   0.0000210
    2  -0.0000004  -0.0000060  -0.0000000   0.0000004   0.0000035   0.0000060
    3   0.0000194  -0.0000085  -0.0000193   0.0000194  -0.0000167  -0.0000085
 Max gradient component =       5.507E-02
 RMS gradient           =       1.298E-02
 Gradient time:  CPU 12.04 s  wall 1.01 s
 Geometry Optimization Parameters
   NAtoms,    NIC,     NZ,  NCons,   NDum,   NFix, NCnnct, MaxDiis
       12      75       0       1       0       0       0       0


** CONSTRAINED OPTIMIZATION IN DELOCALIZED INTERNAL COORDINATES **
   Searching for a Minimum

   Optimization Cycle:   1

                       Coordinates (Angstroms)
     ATOM                X               Y               Z
      1  C        -1.7327740000    1.2735110000    0.1177460000
      2  C        -1.1130890000    0.0000000000   -0.4542390000
      3  Se        0.8686150000    0.0000000000   -0.3219560000
      4  H         0.8880250000    0.0000000000    2.0779650000
      5  C        -1.7327740000   -1.2735110000    0.1177460000
      6  H        -1.2981590000    2.1714360000   -0.3271000000
      7  H        -2.8140600000    1.2811570000   -0.0686190000
      8  H        -1.5763240000    1.3207280000    1.2003530000
      9  H        -1.2227140000    0.0000000000   -1.5500370000
     10  H        -2.8140600000   -1.2811570000   -0.0686190000
     11  H        -1.2981590000   -2.1714360000   -0.3271000000
     12  H        -1.5763240000   -1.3207280000    1.2003530000
   Point Group: c1    Number of degrees of freedom:    30


   Energy is  -2520.348922792

              Constraints and their Current Values
                                        Value     Constraint
   Distance(Angs):        3   4             2.399999     2.500000

 Attempting to Generate Delocalized Internal Coordinates

   Using Lagrange Multiplier Algorithm


 21 Hessian modes will be used to form the next step
  Hessian Eigenvalues:
    -0.985214    0.045000    0.070457    0.076440    0.082554    0.084023
     0.156109    0.160000    0.160000    0.160000    0.160000    0.160000
     0.160000    0.160000    0.209785    0.296631    0.335423    0.339874
     0.342557    0.345520    1.015008

 Minimum Search - Taking P-RFO Step
 Searching for Lamda that Maximizes Along the Constraint modes Only
 Value Taken    Lamda =   0.02958057
 Searching for Lamda that Minimizes Along All other modes
 Value Taken    Lamda =  -0.00852381
 Step Taken.  Stepsize is  0.184832

                             Maximum     Tolerance    Cnvgd?
         Gradient            0.188974       0.000300      NO
         Displacement        0.184830       0.001200      NO
         Energy change     *********       0.000001      NO


 New Cartesian Coordinates Obtained by Inverse Iteration

 Displacement from previous Coordinates is:  0.157952
 ----------------------------------------------------------------
             Standard Nuclear Orientation (Angstroms)
    I     Atom           X                Y                Z
 ----------------------------------------------------------------
    1      C      -1.7331213036     1.2735200613     0.1133824613
    2      C      -1.1182267416     0.0000000000    -0.4637234202
    3      Se      0.8645818287     0.0000000000    -0.3483582448
    4      H       0.9069159454     0.0000000000     2.1490903113
    5      C      -1.7331213036    -1.2735200613     0.1133824613
    6      H      -1.3021825616     2.1714419530    -0.3350417624
    7      H      -2.8158987787     1.2811455875    -0.0640066320
    8      H      -1.5677238436     1.3208264847     1.1946690377
    9      H      -1.2372150577     0.0000000000    -1.5585218555
   10      H      -2.8158987787    -1.2811455875    -0.0640066320
   11      H      -1.3021825616    -2.1714419530    -0.3350417624
   12      H      -1.5677238436    -1.3208264847     1.1946690377
 ----------------------------------------------------------------
 Nuclear Repulsion Energy =   253.8613020105 hartrees
 There are       30 alpha and       30 beta electrons

                       Distance Matrix (Angstroms)
             C (  1)   C (  2)   Se(  3)   H (  4)   C (  5)   H (  6)
   C (  2)  1.527416
   Se(  3)  2.929696  1.986162
   H (  4)  3.568719  3.305752  2.497807
   C (  5)  2.547040  1.527416  2.929696  3.568719
   H (  6)  1.092271  2.183016  3.067606  3.970666  3.500651
   H (  7)  1.097238  2.164070  3.907445  4.516468  2.780322  1.776914
   H (  8)  1.094886  2.167232  3.168853  2.962996  2.815523  1.770332
   H (  9)  2.159407  1.101246  2.425293  4.282953  2.159407  2.493248
   H ( 10)  2.780322  2.164070  3.907445  4.516468  1.097238  3.779571
   H ( 11)  3.500651  2.183016  3.067606  3.970666  1.092271  4.342884
   H ( 12)  2.815523  2.167232  3.168853  2.962996  1.094886  3.821841
             H (  7)   H (  8)   H (  9)   H ( 10)   H ( 11)
   H (  8)  1.773071
   H (  9)  2.523322  3.071462
   H ( 10)  2.562291  3.148407  2.523322
   H ( 11)  3.779571  3.821841  2.493248  1.776914
   H ( 12)  3.148407  2.641653  3.071462  1.773071  1.770332
 
 Applying Cartesian multipole field
    Component          Value
    ---------          -----
     (2,0,0)        1.00000E-11
     (0,2,0)        2.00000E-11
     (0,0,2)       -3.00000E-11
 Nucleus-field energy     =     0.0000000043 hartrees
 Requested basis set is 6-31G(d,p)
 There are 44 shells and 120 basis functions
 A cutoff of  1.0D-14 yielded    955 shell pairs
 There are      7194 function pairs
 Smallest overlap matrix eigenvalue = 6.75E-04
 Guess from superposition of atomic densities
 Warning:  Energy on first SCF cycle will be non-variational
 SAD guess density has 59.968191 electrons

 -----------------------------------------------------------------------
  General SCF calculation program by
  Eric Jon Sundstrom, Paul Horn, Yuezhi Mao, Dmitri Zuev, Alec White,
  David Stuck, Shaama M.S., Shane Yost, Joonho Lee, David Small,
  Daniel Levine, Susi Lehtola, Hugh Burton, Evgeny Epifanovsky
 -----------------------------------------------------------------------
 Exchange:     0.2000 Hartree-Fock + 0.0800 Slater + 0.7200 B88
 Correlation:  0.1900 VWN1RPA + 0.8100 LYP
 Using SG-1 standard quadrature grid
 using 12 threads for integral computing
 -------------------------------------------------------
 OpenMP Integral computing Module                
 Release: version 1.0, May 2013, Q-Chem Inc. Pittsburgh 
 -------------------------------------------------------
 -------------------------------------------------------
 OpenMP BLAS3 based DFT computing Module                
 Release: version 1.0, May 2013, Q-Chem Inc. Pittsburgh 
 -------------------------------------------------------
 A unrestricted SCF calculation will be
 performed using DIIS
 SCF converges when DIIS error is below 1.0e-06
 Alpha HF Exchange    Energy = -10.34480977892449
 Beta HF Exchange     Energy = -10.34480977892449
 DFT Correlation      Energy =  -3.08255183006131
 DFT Exchange         Energy = -81.98235050836480
 One-Electron (alpha) Energy = -2001.12777786119818
 One-Electron (beta)  Energy = -2001.12777786119818
 Total Coulomb        Energy = 1330.97005923251936
 ---------------------------------------
  Cycle       Energy         DIIS error
 ---------------------------------------
    1   -2523.1787163714      1.38e-01  
 Alpha HF Exchange    Energy = -10.41424819377931
 Beta HF Exchange     Energy = -10.41424819377931
 DFT Correlation      Energy =  -3.13019053319734
 DFT Exchange         Energy = -82.89339647101278
 One-Electron (alpha) Energy = -2010.26248285190286
 One-Electron (beta)  Energy = -2010.26248285190286
 Total Coulomb        Energy = 1353.39614039764365
    2   -2520.1196066832      9.20e-03  
 Alpha HF Exchange    Energy = -10.29664585748859
 Beta HF Exchange     Energy = -10.29664585748859
 DFT Correlation      Energy =  -3.07603038699687
 DFT Exchange         Energy = -81.92295077187872
 One-Electron (alpha) Energy = -1992.37046678353590
 One-Electron (beta)  Energy = -1992.37046678353636
 Total Coulomb        Energy = 1316.62036715957333
    3   -2519.8515372666      6.71e-03  
 Alpha HF Exchange    Energy = -10.40974758779658
 Beta HF Exchange     Energy = -10.40974758779662
 DFT Correlation      Energy =  -3.12915783370301
 DFT Exchange         Energy = -82.82844620384245
 One-Electron (alpha) Energy = -2011.31986290462874
 One-Electron (beta)  Energy = -2011.31986290463146
 Total Coulomb        Energy = 1355.50826970177172
    4   -2520.0472533059      4.44e-03  
 Alpha HF Exchange    Energy = -10.35261494440385
 Beta HF Exchange     Energy = -10.35261494440385
 DFT Correlation      Energy =  -3.10364987996711
 DFT Exchange         Energy = -82.40764404970091
 One-Electron (alpha) Energy = -2001.23863485588981
 One-Electron (beta)  Energy = -2001.23863485589050
 Total Coulomb        Energy = 1334.52849864477207
    5   -2520.3039928707      1.76e-03  
 Alpha HF Exchange    Energy = -10.35393421280354
 Beta HF Exchange     Energy = -10.35393421280353
 DFT Correlation      Energy =  -3.10479565269725
 DFT Exchange         Energy = -82.41681727979449
 One-Electron (alpha) Energy = -2003.33760736656632
 One-Electron (beta)  Energy = -2003.33760736656563
 Total Coulomb        Energy = 1338.70696034008733
    6   -2520.3364337364      4.98e-04  
 Alpha HF Exchange    Energy = -10.35517216145989
 Beta HF Exchange     Energy = -10.35517216145989
 DFT Correlation      Energy =  -3.10493237889982
 DFT Exchange         Energy = -82.42953978954390
 One-Electron (alpha) Energy = -2002.85897570681618
 One-Electron (beta)  Energy = -2002.85897570681732
 Total Coulomb        Energy = 1337.76359154848637
    7   -2520.3378743417      3.06e-04  
 Alpha HF Exchange    Energy = -10.35591308285492
 Beta HF Exchange     Energy = -10.35591308285493
 DFT Correlation      Energy =  -3.10538448711269
 DFT Exchange         Energy = -82.43503504912914
 One-Electron (alpha) Energy = -2003.12467963766630
 One-Electron (beta)  Energy = -2003.12467963766721
 Total Coulomb        Energy = 1338.30128256089165
    8   -2520.3390204016      6.93e-05  
 Alpha HF Exchange    Energy = -10.35622969445789
 Beta HF Exchange     Energy = -10.35622969445787
 DFT Correlation      Energy =  -3.10562735147381
 DFT Exchange         Energy = -82.43744845978898
 One-Electron (alpha) Energy = -2003.22863043007078
 One-Electron (beta)  Energy = -2003.22863043006896
 Total Coulomb        Energy = 1338.51240598666755
    9   -2520.3390880589      1.98e-05  
 Alpha HF Exchange    Energy = -10.35617823148974
 Beta HF Exchange     Energy = -10.35617823148974
 DFT Correlation      Energy =  -3.10554043957048
 DFT Exchange         Energy = -82.43700708369872
 One-Electron (alpha) Energy = -2003.20472285853225
 One-Electron (beta)  Energy = -2003.20472285853225
 Total Coulomb        Energy = 1338.46395727777690
   10   -2520.3390904108      9.41e-06  
 Alpha HF Exchange    Energy = -10.35621050864705
 Beta HF Exchange     Energy = -10.35621050864704
 DFT Correlation      Energy =  -3.10557000353425
 DFT Exchange         Energy = -82.43726199912203
 One-Electron (alpha) Energy = -2003.21713045264210
 One-Electron (beta)  Energy = -2003.21713045264096
 Total Coulomb        Energy = 1338.48912007769945
   11   -2520.3390918328      1.06e-06  
 Alpha HF Exchange    Energy = -10.35621547354582
 Beta HF Exchange     Energy = -10.35621547354582
 DFT Correlation      Energy =  -3.10557186693525
 DFT Exchange         Energy = -82.43730099140775
 One-Electron (alpha) Energy = -2003.21832672875780
 One-Electron (beta)  Energy = -2003.21832672875757
 Total Coulomb        Energy = 1338.49156340337777
   12   -2520.3390918448      3.67e-07  Convergence criterion met
 ---------------------------------------
 SCF time:   CPU 37.80s  wall 3.00s 
<S^2> =          0.000000000
 Alpha HF Exchange    Energy = -10.35621547354582
 Beta HF Exchange     Energy = -10.35621547354582
 DFT Correlation      Energy =  -3.10557186693525
 DFT Exchange         Energy = -82.43730099140775
 One-Electron (alpha) Energy = -2003.21832672875780
 One-Electron (beta)  Energy = -2003.21832672875757
 Total Coulomb        Energy = 1338.49156340337777
 Nuclear repulsion Energy = 253.86130201477286
 SCF   energy in the final basis set =    -2520.3390918448
 Total energy in the final basis set =    -2520.3390918448
 
 --------------------------------------------------------------
 
                    Orbital Energies (a.u.)
 --------------------------------------------------------------
 
 Alpha MOs
 -- Occupied --
******* -58.106 -52.165 -52.163 -52.160 -10.235 -10.187 -10.187
 -7.838  -5.785  -5.779  -5.768  -2.118  -2.117  -2.108  -2.104
 -2.102  -0.809  -0.695  -0.673  -0.569  -0.465  -0.438  -0.418
 -0.393  -0.360  -0.357  -0.313  -0.282  -0.228
 -- Virtual --
 -0.137   0.019   0.086   0.130   0.147   0.150   0.166   0.178
  0.185   0.198   0.228   0.232   0.313   0.325   0.345   0.456
  0.467   0.487   0.504   0.557   0.583   0.586   0.672   0.680
  0.699   0.757   0.768   0.787   0.824   0.847   0.866   0.866
  0.905   0.907   0.932   0.954   0.959   1.073   1.312   1.384
  1.387   1.473   1.544   1.658   1.727   1.782   1.831   1.856
  1.891   2.018   2.025   2.037   2.038   2.043   2.066   2.095
  2.103   2.103   2.128   2.263   2.307   2.345   2.373   2.509
  2.559   2.619   2.657   2.700   2.717   2.861   2.864   2.895
  2.901   3.167   3.217   3.299   3.413   3.445   3.455   3.494
  4.224   4.234   4.249   4.333   4.346   4.453   4.502   4.613
  5.454  89.730
 
 Beta MOs
 -- Occupied --
******* -58.106 -52.165 -52.163 -52.160 -10.235 -10.187 -10.187
 -7.838  -5.785  -5.779  -5.768  -2.118  -2.117  -2.108  -2.104
 -2.102  -0.809  -0.695  -0.673  -0.569  -0.465  -0.438  -0.418
 -0.393  -0.360  -0.357  -0.313  -0.282  -0.228
 -- Virtual --
 -0.137   0.019   0.086   0.130   0.147   0.150   0.166   0.178
  0.185   0.198   0.228   0.232   0.313   0.325   0.345   0.456
  0.467   0.487   0.504   0.557   0.583   0.586   0.672   0.680
  0.699   0.757   0.768   0.787   0.824   0.847   0.866   0.866
  0.905   0.907   0.932   0.954   0.959   1.073   1.312   1.384
  1.387   1.473   1.544   1.658   1.727   1.782   1.831   1.856
  1.891   2.018   2.025   2.037   2.038   2.043   2.066   2.095
  2.103   2.103   2.128   2.263   2.307   2.345   2.373   2.509
  2.559   2.619   2.657   2.700   2.717   2.861   2.864   2.895
  2.901   3.167   3.217   3.299   3.413   3.445   3.455   3.494
  4.224   4.234   4.249   4.333   4.346   4.453   4.502   4.613
  5.454  89.730
 --------------------------------------------------------------
 
          Ground-State Mulliken Net Atomic Charges

     Atom                 Charge (a.u.)    Spin (a.u.)
  --------------------------------------------------------
      1 C                    -0.299062       0.000000
      2 C                    -0.156491       0.000000
      3 Se                   -0.059407       0.000000
      4 H                    -0.013277       0.000000
      5 C                    -0.299062      -0.000000
      6 H                     0.123514       0.000000
      7 H                     0.104920      -0.000000
      8 H                     0.119833      -0.000000
      9 H                     0.130767       0.000000
     10 H                     0.104920      -0.000000
     11 H                     0.123514       0.000000
     12 H                     0.119833       0.000000
  --------------------------------------------------------
  Sum of atomic charges =    -0.000000
  Sum of spin   charges =     0.000000

 -----------------------------------------------------------------
                    Cartesian Multipole Moments
 -----------------------------------------------------------------
    Charge (ESU x 10^10)
                 0.0000
    Dipole Moment (Debye)
         X      -1.9240      Y      -0.0000      Z      -0.4691
       Tot       1.9803
    Quadrupole Moments (Debye-Ang)
        XX     -38.9043     XY       0.0000     YY     -41.3351
        XZ       0.5681     YZ      -0.0000     ZZ     -37.8471
    Octopole Moments (Debye-Ang^2)
       XXX      44.8424    XXY      -0.0000    XYY      12.6504
       YYY      -0.0000    XXZ       3.6370    XYZ       0.0000
       YYZ       4.3293    XZZ      15.6647    YZZ      -0.0000
       ZZZ      13.9523
    Hexadecapole Moments (Debye-Ang^3)
      XXXX    -458.0419   XXXY       0.0000   XXYY    -119.6624
      XYYY       0.0000   YYYY    -220.5511   XXXZ      10.7654
      XXYZ       0.0000   XYYZ       3.8663   YYYZ      -0.0000
      XXZZ     -99.5643   XYZZ       0.0000   YYZZ     -58.8408
      XZZZ      10.2039   YZZZ      -0.0000   ZZZZ    -111.6446
 -----------------------------------------------------------------
 Calculating analytic gradient of the SCF energy
 Gradient of SCF Energy
            1           2           3           4           5           6
    1   0.0000618  -0.0004117  -0.0004489   0.0009245   0.0000618  -0.0000118
    2  -0.0001275   0.0000000  -0.0000000  -0.0000000   0.0001275  -0.0000121
    3   0.0000122  -0.0006581  -0.0510555   0.0513388   0.0000122  -0.0000136
            7           8           9          10          11          12
    1  -0.0000139  -0.0000172  -0.0001016  -0.0000139  -0.0000118  -0.0000172
    2   0.0000133   0.0000509  -0.0000000  -0.0000133   0.0000121  -0.0000509
    3   0.0000561   0.0000171   0.0002313   0.0000561  -0.0000136   0.0000171
 Max gradient component =       5.134E-02
 RMS gradient           =       1.207E-02
 Gradient time:  CPU 11.51 s  wall 0.96 s
 Geometry Optimization Parameters
   NAtoms,    NIC,     NZ,  NCons,   NDum,   NFix, NCnnct, MaxDiis
       12      75       0       1       0       0       0       0

 Cartesian Hessian Update
 Hessian Updated using BFGS Update
**WARNING** Hereditary positive definiteness endangered


** CONSTRAINED OPTIMIZATION IN DELOCALIZED INTERNAL COORDINATES **
   Searching for a Minimum

   Optimization Cycle:   2

                       Coordinates (Angstroms)
     ATOM                X               Y               Z
      1  C        -1.7331213036    1.2735200613    0.1133824613
      2  C        -1.1182267416    0.0000000000   -0.4637234202
      3  Se        0.8645818287    0.0000000000   -0.3483582448
      4  H         0.9069159454    0.0000000000    2.1490903113
      5  C        -1.7331213036   -1.2735200613    0.1133824613
      6  H        -1.3021825616    2.1714419530   -0.3350417624
      7  H        -2.8158987787    1.2811455875   -0.0640066320
      8  H        -1.5677238436    1.3208264847    1.1946690377
      9  H        -1.2372150577    0.0000000000   -1.5585218555
     10  H        -2.8158987787   -1.2811455875   -0.0640066320
     11  H        -1.3021825616   -2.1714419530   -0.3350417624
     12  H        -1.5677238436   -1.3208264847    1.1946690377
   Point Group: c1    Number of degrees of freedom:    30


   Energy is  -2520.339091845

              Constraints and their Current Values
                                        Value     Constraint
   Distance(Angs):        3   4             2.497807     2.500000
 Hessian Updated using BFGS Update
**WARNING** Hereditary positive definiteness endangered

   Using Lagrange Multiplier Algorithm


 17 Hessian modes will be used to form the next step
  Hessian Eigenvalues:
    -1.010103    0.044998    0.070440    0.076373    0.082554    0.084023
     0.155715    0.159825    0.159999    0.187685    0.209782    0.296626
     0.335343    0.339874    0.342555    0.345519    0.990012

 Minimum Search - Taking P-RFO Step
 Searching for Lamda that Maximizes Along the Constraint modes Only
 Value Taken    Lamda =   0.00000227
 Searching for Lamda that Minimizes Along All other modes
 Value Taken    Lamda =  -0.00005765
 Step Taken.  Stepsize is  0.006803

                             Maximum     Tolerance    Cnvgd?
         Gradient            0.006230       0.000300      NO
         Displacement        0.006331       0.001200      NO
         Energy change      0.009831       0.000001      NO


 New Cartesian Coordinates Obtained by Inverse Iteration

 Displacement from previous Coordinates is:  0.007115
 ----------------------------------------------------------------
             Standard Nuclear Orientation (Angstroms)
    I     Atom           X                Y                Z
 ----------------------------------------------------------------
    1      C      -1.7327941051     1.2737502688     0.1136282636
    2      C      -1.1179801142     0.0000000000    -0.4632635470
    3      Se      0.8632590149     0.0000000000    -0.3504475706
    4      H       0.9045026542     0.0000000000     2.1492120390
    5      C      -1.7327941051    -1.2737502688     0.1136282636
    6      H      -1.3018445968     2.1716840114    -0.3347970413
    7      H      -2.8155277616     1.2811873574    -0.0639900355
    8      H      -1.5672318718     1.3207872981     1.1948743386
    9      H      -1.2367818842     0.0000000000    -1.5584389721
   10      H      -2.8155277617    -1.2811873574    -0.0639900355
   11      H      -1.3018445969    -2.1716840115    -0.3347970413
   12      H      -1.5672318718    -1.3207872982     1.1948743386
 ----------------------------------------------------------------
 Nuclear Repulsion Energy =   253.9408181880 hartrees
 There are       30 alpha and       30 beta electrons

                       Distance Matrix (Angstroms)
             C (  1)   C (  2)   Se(  3)   H (  4)   C (  5)   H (  6)
   C (  2)  1.527495
   Se(  3)  2.928702  1.984449
   H (  4)  3.566704  3.303856  2.500000
   C (  5)  2.547501  1.527495  2.928702  3.566704
   H (  6)  1.092286  2.183236  3.066615  3.969191  3.501117
   H (  7)  1.097231  2.163915  3.906017  4.514236  2.780569  1.776952
   H (  8)  1.094859  2.166963  3.168562  2.960525  2.815693  1.770410
   H (  9)  2.159694  1.101600  2.422688  4.281562  2.159694  2.493540
   H ( 10)  2.780569  2.163915  3.906017  4.514236  1.097231  3.779801
   H ( 11)  3.501117  2.183236  3.066615  3.969191  1.092286  4.343368
   H ( 12)  2.815693  2.166963  3.168562  2.960525  1.094859  3.822000
             H (  7)   H (  8)   H (  9)   H ( 10)   H ( 11)
   H (  8)  1.773288
   H (  9)  2.523342  3.071549
   H ( 10)  2.562375  3.148532  2.523342
   H ( 11)  3.779801  3.822000  2.493540  1.776952
   H ( 12)  3.148532  2.641575  3.071549  1.773288  1.770410
 
 Applying Cartesian multipole field
    Component          Value
    ---------          -----
     (2,0,0)        1.00000E-11
     (0,2,0)        2.00000E-11
     (0,0,2)       -3.00000E-11
 Nucleus-field energy     =     0.0000000043 hartrees
 Requested basis set is 6-31G(d,p)
 There are 44 shells and 120 basis functions
 A cutoff of  1.0D-14 yielded    955 shell pairs
 There are      7194 function pairs
 Smallest overlap matrix eigenvalue = 6.75E-04
 Guess from superposition of atomic densities
 Warning:  Energy on first SCF cycle will be non-variational
 SAD guess density has 59.968191 electrons

 -----------------------------------------------------------------------
  General SCF calculation program by
  Eric Jon Sundstrom, Paul Horn, Yuezhi Mao, Dmitri Zuev, Alec White,
  David Stuck, Shaama M.S., Shane Yost, Joonho Lee, David Small,
  Daniel Levine, Susi Lehtola, Hugh Burton, Evgeny Epifanovsky
 -----------------------------------------------------------------------
 Exchange:     0.2000 Hartree-Fock + 0.0800 Slater + 0.7200 B88
 Correlation:  0.1900 VWN1RPA + 0.8100 LYP
 Using SG-1 standard quadrature grid
 using 12 threads for integral computing
 -------------------------------------------------------
 OpenMP Integral computing Module                
 Release: version 1.0, May 2013, Q-Chem Inc. Pittsburgh 
 -------------------------------------------------------
 -------------------------------------------------------
 OpenMP BLAS3 based DFT computing Module                
 Release: version 1.0, May 2013, Q-Chem Inc. Pittsburgh 
 -------------------------------------------------------
 A unrestricted SCF calculation will be
 performed using DIIS
 SCF converges when DIIS error is below 1.0e-06
 Alpha HF Exchange    Energy = -10.34490358606724
 Beta HF Exchange     Energy = -10.34490358606724
 DFT Correlation      Energy =  -3.08257858357471
 DFT Exchange         Energy = -81.98253802741816
 One-Electron (alpha) Energy = -2001.20699001118601
 One-Electron (beta)  Energy = -2001.20699001118601
 Total Coulomb        Energy = 1331.04819201108103
 ---------------------------------------
  Cycle       Energy         DIIS error
 ---------------------------------------
    1   -2523.1798936022      1.38e-01  
 Alpha HF Exchange    Energy = -10.41430182013887
 Beta HF Exchange     Energy = -10.41430182013886
 DFT Correlation      Energy =  -3.13023680056794
 DFT Exchange         Energy = -82.89378878481969
 One-Electron (alpha) Energy = -2010.34872274222175
 One-Electron (beta)  Energy = -2010.34872274222039
 Total Coulomb        Energy = 1353.49025906299630
    2   -2520.1189974549      9.20e-03  
 Alpha HF Exchange    Energy = -10.29663098704288
 Beta HF Exchange     Energy = -10.29663098704286
 DFT Correlation      Energy =  -3.07603033086531
 DFT Exchange         Energy = -81.92275650941596
 One-Electron (alpha) Energy = -1992.43708940180159
 One-Electron (beta)  Energy = -1992.43708940179954
 Total Coulomb        Energy = 1316.67504307949025
    3   -2519.8503663462      6.71e-03  
 Alpha HF Exchange    Energy = -10.40982028090504
 Beta HF Exchange     Energy = -10.40982028090504
 DFT Correlation      Energy =  -3.12921063433660
 DFT Exchange         Energy = -82.82894647936851
 One-Electron (alpha) Energy = -2011.40715042967690
 One-Electron (beta)  Energy = -2011.40715042967668
 Total Coulomb        Energy = 1355.60488769361791
    4   -2520.0463926490      4.44e-03  
 Alpha HF Exchange    Energy = -10.35260722040612
 Beta HF Exchange     Energy = -10.35260722040613
 DFT Correlation      Energy =  -3.10365500531862
 DFT Exchange         Energy = -82.40757574489486
 One-Electron (alpha) Energy = -2001.30773701229327
 One-Electron (beta)  Energy = -2001.30773701229350
 Total Coulomb        Energy = 1334.58759296927747
    5   -2520.3035080541      1.77e-03  
 Alpha HF Exchange    Energy = -10.35393538744884
 Beta HF Exchange     Energy = -10.35393538744883
 DFT Correlation      Energy =  -3.10481786498347
 DFT Exchange         Energy = -82.41686622461290
 One-Electron (alpha) Energy = -2003.41643704882222
 One-Electron (beta)  Energy = -2003.41643704882176
 Total Coulomb        Energy = 1338.78540517493411
    6   -2520.3362055950      4.99e-04  
 Alpha HF Exchange    Energy = -10.35517369981688
 Beta HF Exchange     Energy = -10.35517369981689
 DFT Correlation      Energy =  -3.10494693113359
 DFT Exchange         Energy = -82.42959491640545
 One-Electron (alpha) Energy = -2002.93398723373002
 One-Electron (beta)  Energy = -2002.93398723373048
 Total Coulomb        Energy = 1337.83440048911825
    7   -2520.3376450333      3.08e-04  
 Alpha HF Exchange    Energy = -10.35592182931215
 Beta HF Exchange     Energy = -10.35592182931214
 DFT Correlation      Energy =  -3.10540544582833
 DFT Exchange         Energy = -82.43515275487934
 One-Electron (alpha) Energy = -2003.20218282190626
 One-Electron (beta)  Energy = -2003.20218282190649
 Total Coulomb        Energy = 1338.37714064862257
    8   -2520.3388086623      6.99e-05  
 Alpha HF Exchange    Energy = -10.35624097011334
 Beta HF Exchange     Energy = -10.35624097011335
 DFT Correlation      Energy =  -3.10564996337293
 DFT Exchange         Energy = -82.43758549728754
 One-Electron (alpha) Energy = -2003.30702788960002
 One-Electron (beta)  Energy = -2003.30702788960161
 Total Coulomb        Energy = 1338.59007739002800
    9   -2520.3388775978      2.00e-05  
 Alpha HF Exchange    Energy = -10.35618922687849
 Beta HF Exchange     Energy = -10.35618922687847
 DFT Correlation      Energy =  -3.10556258616027
 DFT Exchange         Energy = -82.43714170711964
 One-Electron (alpha) Energy = -2003.28304495289808
 One-Electron (beta)  Energy = -2003.28304495289694
 Total Coulomb        Energy = 1338.54147451032486
   10   -2520.3388799503      9.52e-06  
 Alpha HF Exchange    Energy = -10.35622190791429
 Beta HF Exchange     Energy = -10.35622190791430
 DFT Correlation      Energy =  -3.10559247873585
 DFT Exchange         Energy = -82.43739989159106
 One-Electron (alpha) Energy = -2003.29559119713235
 One-Electron (beta)  Energy = -2003.29559119713281
 Total Coulomb        Energy = 1338.56691898050303
   11   -2520.3388814077      1.09e-06  
 Alpha HF Exchange    Energy = -10.35622696173332
 Beta HF Exchange     Energy = -10.35622696173332
 DFT Correlation      Energy =  -3.10559439551227
 DFT Exchange         Energy = -82.43743958440331
 One-Electron (alpha) Energy = -2003.29681552040688
 One-Electron (beta)  Energy = -2003.29681552040688
 Total Coulomb        Energy = 1338.56941933160897
   12   -2520.3388814203      3.76e-07  Convergence criterion met
 ---------------------------------------
 SCF time:   CPU 36.91s  wall 3.00s 
<S^2> =         -0.000000000
 Alpha HF Exchange    Energy = -10.35622696173332
 Beta HF Exchange     Energy = -10.35622696173332
 DFT Correlation      Energy =  -3.10559439551227
 DFT Exchange         Energy = -82.43743958440331
 One-Electron (alpha) Energy = -2003.29681552040688
 One-Electron (beta)  Energy = -2003.29681552040688
 Total Coulomb        Energy = 1338.56941933160897
 Nuclear repulsion Energy = 253.94081819224783
 SCF   energy in the final basis set =    -2520.3388814203
 Total energy in the final basis set =    -2520.3388814203
 
 --------------------------------------------------------------
 
                    Orbital Energies (a.u.)
 --------------------------------------------------------------
 
 Alpha MOs
 -- Occupied --
******* -58.106 -52.165 -52.163 -52.160 -10.235 -10.187 -10.187
 -7.838  -5.785  -5.779  -5.768  -2.118  -2.117  -2.108  -2.104
 -2.102  -0.810  -0.695  -0.673  -0.569  -0.465  -0.438  -0.418
 -0.393  -0.360  -0.357  -0.313  -0.281  -0.228
 -- Virtual --
 -0.137   0.019   0.086   0.130   0.147   0.150   0.166   0.178
  0.185   0.198   0.228   0.232   0.313   0.325   0.345   0.456
  0.468   0.487   0.504   0.557   0.583   0.586   0.672   0.680
  0.699   0.757   0.768   0.787   0.824   0.847   0.866   0.866
  0.905   0.907   0.932   0.954   0.959   1.073   1.312   1.384
  1.388   1.474   1.544   1.659   1.727   1.782   1.831   1.856
  1.892   2.018   2.025   2.037   2.038   2.043   2.066   2.095
  2.103   2.103   2.128   2.263   2.307   2.346   2.373   2.509
  2.559   2.619   2.657   2.700   2.717   2.861   2.864   2.895
  2.901   3.167   3.217   3.298   3.413   3.445   3.455   3.494
  4.224   4.234   4.249   4.333   4.346   4.453   4.502   4.613
  5.454  89.730
 
 Beta MOs
 -- Occupied --
******* -58.106 -52.165 -52.163 -52.160 -10.235 -10.187 -10.187
 -7.838  -5.785  -5.779  -5.768  -2.118  -2.117  -2.108  -2.104
 -2.102  -0.810  -0.695  -0.673  -0.569  -0.465  -0.438  -0.418
 -0.393  -0.360  -0.357  -0.313  -0.281  -0.228
 -- Virtual --
 -0.137   0.019   0.086   0.130   0.147   0.150   0.166   0.178
  0.185   0.198   0.228   0.232   0.313   0.325   0.345   0.456
  0.468   0.487   0.504   0.557   0.583   0.586   0.672   0.680
  0.699   0.757   0.768   0.787   0.824   0.847   0.866   0.866
  0.905   0.907   0.932   0.954   0.959   1.073   1.312   1.384
  1.388   1.474   1.544   1.659   1.727   1.782   1.831   1.856
  1.892   2.018   2.025   2.037   2.038   2.043   2.066   2.095
  2.103   2.103   2.128   2.263   2.307   2.346   2.373   2.509
  2.559   2.619   2.657   2.700   2.717   2.861   2.864   2.895
  2.901   3.167   3.217   3.298   3.413   3.445   3.455   3.494
  4.224   4.234   4.249   4.333   4.346   4.453   4.502   4.613
  5.454  89.730
 --------------------------------------------------------------
 
          Ground-State Mulliken Net Atomic Charges

     Atom                 Charge (a.u.)    Spin (a.u.)
  --------------------------------------------------------
      1 C                    -0.299024       0.000000
      2 C                    -0.156449      -0.000000
      3 Se                   -0.059260      -0.000000
      4 H                    -0.013549      -0.000000
      5 C                    -0.299024      -0.000000
      6 H                     0.123543       0.000000
      7 H                     0.104920      -0.000000
      8 H                     0.119847       0.000000
      9 H                     0.130686       0.000000
     10 H                     0.104920       0.000000
     11 H                     0.123543       0.000000
     12 H                     0.119847       0.000000
  --------------------------------------------------------
  Sum of atomic charges =    -0.000000
  Sum of spin   charges =    -0.000000

 -----------------------------------------------------------------
                    Cartesian Multipole Moments
 -----------------------------------------------------------------
    Charge (ESU x 10^10)
                -0.0000
    Dipole Moment (Debye)
         X      -1.9242      Y       0.0000      Z      -0.4717
       Tot       1.9812
    Quadrupole Moments (Debye-Ang)
        XX     -38.9055     XY       0.0000     YY     -41.3312
        XZ       0.5655     YZ       0.0000     ZZ     -37.8540
    Octopole Moments (Debye-Ang^2)
       XXX      44.9129    XXY       0.0000    XYY      12.6718
       YYY       0.0000    XXZ       3.6609    XYZ      -0.0000
       YYZ       4.3621    XZZ      15.6753    YZZ       0.0000
       ZZZ      14.0272
    Hexadecapole Moments (Debye-Ang^3)
      XXXX    -457.6422   XXXY      -0.0000   XXYY    -119.5953
      XYYY      -0.0000   YYYY    -220.5689   XXXZ      10.8705
      XXYZ      -0.0000   XYYZ       3.9128   YYYZ      -0.0000
      XXZZ     -99.5446   XYZZ      -0.0000   YYZZ     -58.8816
      XZZZ      10.2939   YZZZ      -0.0000   ZZZZ    -111.8446
 -----------------------------------------------------------------
 Calculating analytic gradient of the SCF energy
 Gradient of SCF Energy
            1           2           3           4           5           6
    1   0.0001034  -0.0002177  -0.0008079   0.0008580   0.0001034  -0.0000215
    2  -0.0000250   0.0000000   0.0000000   0.0000000   0.0000250   0.0000158
    3   0.0000510  -0.0002856  -0.0511092   0.0512408   0.0000510  -0.0000147
            7           8           9          10          11          12
    1  -0.0000094   0.0000013   0.0000201  -0.0000094  -0.0000215   0.0000013
    2  -0.0000138   0.0000258  -0.0000000   0.0000138  -0.0000158  -0.0000258
    3   0.0000165  -0.0000087   0.0000656   0.0000165  -0.0000147  -0.0000087
 Max gradient component =       5.124E-02
 RMS gradient           =       1.206E-02
 Gradient time:  CPU 11.59 s  wall 0.97 s
 Geometry Optimization Parameters
   NAtoms,    NIC,     NZ,  NCons,   NDum,   NFix, NCnnct, MaxDiis
       12      75       0       1       0       0       0       0

 Cartesian Hessian Update
 Hessian Updated using BFGS Update


** CONSTRAINED OPTIMIZATION IN DELOCALIZED INTERNAL COORDINATES **
   Searching for a Minimum

   Optimization Cycle:   3

                       Coordinates (Angstroms)
     ATOM                X               Y               Z
      1  C        -1.7327941051    1.2737502688    0.1136282636
      2  C        -1.1179801142    0.0000000000   -0.4632635470
      3  Se        0.8632590149    0.0000000000   -0.3504475706
      4  H         0.9045026542    0.0000000000    2.1492120390
      5  C        -1.7327941051   -1.2737502688    0.1136282636
      6  H        -1.3018445968    2.1716840114   -0.3347970413
      7  H        -2.8155277616    1.2811873574   -0.0639900355
      8  H        -1.5672318718    1.3207872981    1.1948743386
      9  H        -1.2367818842    0.0000000000   -1.5584389721
     10  H        -2.8155277617   -1.2811873574   -0.0639900355
     11  H        -1.3018445969   -2.1716840115   -0.3347970413
     12  H        -1.5672318718   -1.3207872982    1.1948743386
   Point Group: c1    Number of degrees of freedom:    30


   Energy is  -2520.338881420

              Constraints and their Current Values
                                        Value     Constraint
   Distance(Angs):        3   4             2.500000     2.500000
 Hessian Updated using BFGS Update

 15 Hessian modes will be used to form the next step
  Hessian Eigenvalues:
     0.038464    0.056176    0.077596    0.082785    0.084053    0.147923
     0.159091    0.159999    0.172064    0.219482    0.296495    0.331167
     0.339914    0.342979    0.346121

 Minimum Search - Taking Simple RFO Step
 Searching for Lamda that Minimizes Along All modes
 Value Taken    Lamda =   0.00000000
 Step Taken.  Stepsize is  0.004108

                             Maximum     Tolerance    Cnvgd?
         Gradient           0.000119      0.000300     YES
         Displacement       0.002285      0.001200      NO
         Energy change      0.000210      0.000001      NO


 New Cartesian Coordinates Obtained by Inverse Iteration

 Displacement from previous Coordinates is:  0.004018
 ----------------------------------------------------------------
             Standard Nuclear Orientation (Angstroms)
    I     Atom           X                Y                Z
 ----------------------------------------------------------------
    1      C      -1.7329013553     1.2737456790     0.1138089557
    2      C      -1.1175511784     0.0000000000    -0.4626187217
    3      Se      0.8632549855     0.0000000000    -0.3513780058
    4      H       0.9043397409     0.0000000000     2.1482842203
    5      C      -1.7329013553    -1.2737456790     0.1138089557
    6      H      -1.3016314005     2.1716003597    -0.3344156369
    7      H      -2.8155182372     1.2811560447    -0.0644245408
    8      H      -1.5677674814     1.3205956881     1.1951405966
    9      H      -1.2362035993     0.0000000000    -1.5580132421
   10      H      -2.8155182371    -1.2811560447    -0.0644245408
   11      H      -1.3016314005    -2.1716003597    -0.3344156369
   12      H      -1.5677674814    -1.3205956881     1.1951405966
 ----------------------------------------------------------------
 Nuclear Repulsion Energy =   253.9500742546 hartrees
 There are       30 alpha and       30 beta electrons

                       Distance Matrix (Angstroms)
             C (  1)   C (  2)   Se(  3)   H (  4)   C (  5)   H (  6)
   C (  2)  1.527532
   Se(  3)  2.928968  1.983927
   H (  4)  3.566028  3.302250  2.500000
   C (  5)  2.547491  1.527532  2.928968  3.566028
   H (  6)  1.092265  2.183156  3.066410  3.968117  3.501044
   H (  7)  1.097215  2.164027  3.906031  4.513844  2.780530  1.776975
   H (  8)  1.094871  2.166756  3.169474  2.960367  2.815520  1.770474
   H (  9)  2.159659  1.101802  2.421507  4.280019  2.159659  2.493455
   H ( 10)  2.780530  2.164027  3.906031  4.513844  1.097215  3.779719
   H ( 11)  3.501044  2.183156  3.066410  3.968117  1.092265  4.343201
   H ( 12)  2.815520  2.166756  3.169474  2.960367  1.094871  3.821754
             H (  7)   H (  8)   H (  9)   H ( 10)   H ( 11)
   H (  8)  1.773398
   H (  9)  2.523173  3.071443
   H ( 10)  2.562312  3.148412  2.523173
   H ( 11)  3.779719  3.821754  2.493455  1.776975
   H ( 12)  3.148412  2.641191  3.071443  1.773398  1.770474
 
 Applying Cartesian multipole field
    Component          Value
    ---------          -----
     (2,0,0)        1.00000E-11
     (0,2,0)        2.00000E-11
     (0,0,2)       -3.00000E-11
 Nucleus-field energy     =     0.0000000043 hartrees
 Requested basis set is 6-31G(d,p)
 There are 44 shells and 120 basis functions
 A cutoff of  1.0D-14 yielded    955 shell pairs
 There are      7194 function pairs
 Smallest overlap matrix eigenvalue = 6.75E-04
 Guess from superposition of atomic densities
 Warning:  Energy on first SCF cycle will be non-variational
 SAD guess density has 59.968191 electrons

 -----------------------------------------------------------------------
  General SCF calculation program by
  Eric Jon Sundstrom, Paul Horn, Yuezhi Mao, Dmitri Zuev, Alec White,
  David Stuck, Shaama M.S., Shane Yost, Joonho Lee, David Small,
  Daniel Levine, Susi Lehtola, Hugh Burton, Evgeny Epifanovsky
 -----------------------------------------------------------------------
 Exchange:     0.2000 Hartree-Fock + 0.0800 Slater + 0.7200 B88
 Correlation:  0.1900 VWN1RPA + 0.8100 LYP
 Using SG-1 standard quadrature grid
 using 12 threads for integral computing
 -------------------------------------------------------
 OpenMP Integral computing Module                
 Release: version 1.0, May 2013, Q-Chem Inc. Pittsburgh 
 -------------------------------------------------------
 -------------------------------------------------------
 OpenMP BLAS3 based DFT computing Module                
 Release: version 1.0, May 2013, Q-Chem Inc. Pittsburgh 
 -------------------------------------------------------
 A unrestricted SCF calculation will be
 performed using DIIS
 SCF converges when DIIS error is below 1.0e-06
 Alpha HF Exchange    Energy = -10.34492794985654
 Beta HF Exchange     Energy = -10.34492794985654
 DFT Correlation      Energy =  -3.08258656218583
 DFT Exchange         Energy = -81.98258947746464
 One-Electron (alpha) Energy = -2001.21619590711975
 One-Electron (beta)  Energy = -2001.21619590711975
 Total Coulomb        Energy = 1331.05715431581893
 ---------------------------------------
  Cycle       Energy         DIIS error
 ---------------------------------------
    1   -2523.1801951789      1.38e-01  
 Alpha HF Exchange    Energy = -10.41430149087429
 Beta HF Exchange     Energy = -10.41430149087429
 DFT Correlation      Energy =  -3.13024121380587
 DFT Exchange         Energy = -82.89379721810806
 One-Electron (alpha) Energy = -2010.35610094241724
 One-Electron (beta)  Energy = -2010.35610094241656
 Total Coulomb        Energy = 1353.49571038841759
    2   -2520.1190586512      9.20e-03  
 Alpha HF Exchange    Energy = -10.29663527644288
 Beta HF Exchange     Energy = -10.29663527644285
 DFT Correlation      Energy =  -3.07603953962014
 DFT Exchange         Energy = -81.92280102246819
 One-Electron (alpha) Energy = -1992.44931154545134
 One-Electron (beta)  Energy = -1992.44931154544793
 Total Coulomb        Energy = 1316.69005790468327
    3   -2519.8506020423      6.71e-03  
 Alpha HF Exchange    Energy = -10.40982386568505
 Beta HF Exchange     Energy = -10.40982386568505
 DFT Correlation      Energy =  -3.12921665737230
 DFT Exchange         Energy = -82.82898197341235
 One-Electron (alpha) Energy = -2011.41442038826995
 One-Electron (beta)  Energy = -2011.41442038827017
 Total Coulomb        Energy = 1355.61018407571009
    4   -2520.0464288041      4.44e-03  
 Alpha HF Exchange    Energy = -10.35261217314846
 Beta HF Exchange     Energy = -10.35261217314845
 DFT Correlation      Energy =  -3.10366123437301
 DFT Exchange         Energy = -82.40760838421703
 One-Electron (alpha) Energy = -2001.31646087530771
 One-Electron (beta)  Energy = -2001.31646087530703
 Total Coulomb        Energy = 1334.59585597033174
    5   -2520.3034854863      1.77e-03  
 Alpha HF Exchange    Energy = -10.35393889364364
 Beta HF Exchange     Energy = -10.35393889364365
 DFT Correlation      Energy =  -3.10482441850984
 DFT Exchange         Energy = -82.41689522028994
 One-Electron (alpha) Energy = -2003.42510429708932
 One-Electron (beta)  Energy = -2003.42510429709000
 Total Coulomb        Energy = 1338.79352426936111
    6   -2520.3362074920      4.99e-04  
 Alpha HF Exchange    Energy = -10.35517667620731
 Beta HF Exchange     Energy = -10.35517667620730
 DFT Correlation      Energy =  -3.10495341499454
 DFT Exchange         Energy = -82.42961696975017
 One-Electron (alpha) Energy = -2002.94289621617213
 One-Electron (beta)  Energy = -2002.94289621617190
 Total Coulomb        Energy = 1337.84299615040572
    7   -2520.3376457602      3.08e-04  
 Alpha HF Exchange    Energy = -10.35592548037404
 Beta HF Exchange     Energy = -10.35592548037403
 DFT Correlation      Energy =  -3.10541197674509
 DFT Exchange         Energy = -82.43518129470215
 One-Electron (alpha) Energy = -2003.21103327703941
 One-Electron (beta)  Energy = -2003.21103327703850
 Total Coulomb        Energy = 1338.38562740781822
    8   -2520.3388091196      6.99e-05  
 Alpha HF Exchange    Energy = -10.35624456426754
 Beta HF Exchange     Energy = -10.35624456426753
 DFT Correlation      Energy =  -3.10565642216428
 DFT Exchange         Energy = -82.43761363243732
 One-Electron (alpha) Energy = -2003.31585566671652
 One-Electron (beta)  Energy = -2003.31585566671583
 Total Coulomb        Energy = 1338.59851819939672
    9   -2520.3388780583      1.99e-05  
 Alpha HF Exchange    Energy = -10.35619291419935
 Beta HF Exchange     Energy = -10.35619291419935
 DFT Correlation      Energy =  -3.10556916956213
 DFT Exchange         Energy = -82.43717062565720
 One-Electron (alpha) Energy = -2003.29190755189165
 One-Electron (beta)  Energy = -2003.29190755189211
 Total Coulomb        Energy = 1338.54998606671370
   10   -2520.3388804018      9.52e-06  
 Alpha HF Exchange    Energy = -10.35622558128766
 Beta HF Exchange     Energy = -10.35622558128767
 DFT Correlation      Energy =  -3.10559903393205
 DFT Exchange         Energy = -82.43742872766391
 One-Electron (alpha) Energy = -2003.30444135772973
 One-Electron (beta)  Energy = -2003.30444135773155
 Total Coulomb        Energy = 1338.57540552413820
   11   -2520.3388818566      1.09e-06  
 Alpha HF Exchange    Energy = -10.35623063345259
 Beta HF Exchange     Energy = -10.35623063345260
 DFT Correlation      Energy =  -3.10560094912692
 DFT Exchange         Energy = -82.43746841091317
 One-Electron (alpha) Energy = -2003.30566526690950
 One-Electron (beta)  Energy = -2003.30566526691086
 Total Coulomb        Energy = 1338.57790503259935
   12   -2520.3388818693      3.77e-07  Convergence criterion met
 ---------------------------------------
 SCF time:   CPU 37.73s  wall 3.00s 
<S^2> =          0.000000000
 Alpha HF Exchange    Energy = -10.35623063345259
 Beta HF Exchange     Energy = -10.35623063345260
 DFT Correlation      Energy =  -3.10560094912692
 DFT Exchange         Energy = -82.43746841091317
 One-Electron (alpha) Energy = -2003.30566526690950
 One-Electron (beta)  Energy = -2003.30566526691086
 Total Coulomb        Energy = 1338.57790503259935
 Nuclear repulsion Energy = 253.95007425888767
 SCF   energy in the final basis set =    -2520.3388818693
 Total energy in the final basis set =    -2520.3388818693
 
 --------------------------------------------------------------
 
                    Orbital Energies (a.u.)
 --------------------------------------------------------------
 
 Alpha MOs
 -- Occupied --
******* -58.106 -52.165 -52.163 -52.160 -10.235 -10.187 -10.187
 -7.838  -5.785  -5.779  -5.768  -2.118  -2.117  -2.108  -2.104
 -2.102  -0.810  -0.695  -0.673  -0.569  -0.465  -0.438  -0.418
 -0.393  -0.360  -0.357  -0.313  -0.281  -0.228
 -- Virtual --
 -0.137   0.019   0.086   0.130   0.147   0.150   0.166   0.178
  0.185   0.198   0.228   0.232   0.313   0.325   0.345   0.456
  0.468   0.487   0.504   0.557   0.583   0.586   0.672   0.680
  0.699   0.757   0.768   0.787   0.824   0.847   0.866   0.866
  0.905   0.907   0.932   0.954   0.959   1.072   1.312   1.384
  1.388   1.474   1.544   1.659   1.726   1.782   1.831   1.856
  1.892   2.019   2.025   2.037   2.038   2.043   2.066   2.095
  2.103   2.103   2.128   2.263   2.307   2.346   2.373   2.509
  2.559   2.619   2.657   2.700   2.717   2.861   2.864   2.895
  2.901   3.167   3.217   3.298   3.413   3.445   3.455   3.494
  4.224   4.234   4.249   4.333   4.346   4.453   4.502   4.613
  5.454  89.730
 
 Beta MOs
 -- Occupied --
******* -58.106 -52.165 -52.163 -52.160 -10.235 -10.187 -10.187
 -7.838  -5.785  -5.779  -5.768  -2.118  -2.117  -2.108  -2.104
 -2.102  -0.810  -0.695  -0.673  -0.569  -0.465  -0.438  -0.418
 -0.393  -0.360  -0.357  -0.313  -0.281  -0.228
 -- Virtual --
 -0.137   0.019   0.086   0.130   0.147   0.150   0.166   0.178
  0.185   0.198   0.228   0.232   0.313   0.325   0.345   0.456
  0.468   0.487   0.504   0.557   0.583   0.586   0.672   0.680
  0.699   0.757   0.768   0.787   0.824   0.847   0.866   0.866
  0.905   0.907   0.932   0.954   0.959   1.072   1.312   1.384
  1.388   1.474   1.544   1.659   1.726   1.782   1.831   1.856
  1.892   2.019   2.025   2.037   2.038   2.043   2.066   2.095
  2.103   2.103   2.128   2.263   2.307   2.346   2.373   2.509
  2.559   2.619   2.657   2.700   2.717   2.861   2.864   2.895
  2.901   3.167   3.217   3.298   3.413   3.445   3.455   3.494
  4.224   4.234   4.249   4.333   4.346   4.453   4.502   4.613
  5.454  89.730
 --------------------------------------------------------------
 
          Ground-State Mulliken Net Atomic Charges

     Atom                 Charge (a.u.)    Spin (a.u.)
  --------------------------------------------------------
      1 C                    -0.299025      -0.000000
      2 C                    -0.156399       0.000000
      3 Se                   -0.059184      -0.000000
      4 H                    -0.013620      -0.000000
      5 C                    -0.299025       0.000000
      6 H                     0.123547      -0.000000
      7 H                     0.104951       0.000000
      8 H                     0.119828      -0.000000
      9 H                     0.130602      -0.000000
     10 H                     0.104951      -0.000000
     11 H                     0.123547      -0.000000
     12 H                     0.119828      -0.000000
  --------------------------------------------------------
  Sum of atomic charges =     0.000000
  Sum of spin   charges =    -0.000000

 -----------------------------------------------------------------
                    Cartesian Multipole Moments
 -----------------------------------------------------------------
    Charge (ESU x 10^10)
                 0.0000
    Dipole Moment (Debye)
         X      -1.9240      Y      -0.0000      Z      -0.4719
       Tot       1.9810
    Quadrupole Moments (Debye-Ang)
        XX     -38.9035     XY      -0.0000     YY     -41.3313
        XZ       0.5641     YZ       0.0000     ZZ     -37.8574
    Octopole Moments (Debye-Ang^2)
       XXX      44.9077    XXY      -0.0000    XYY      12.6723
       YYY      -0.0000    XXZ       3.6708    XYZ      -0.0000
       YYZ       4.3748    XZZ      15.6738    YZZ      -0.0000
       ZZZ      14.0600
    Hexadecapole Moments (Debye-Ang^3)
      XXXX    -457.6027   XXXY       0.0000   XXYY    -119.5888
      XYYY       0.0000   YYYY    -220.5637   XXXZ      10.9461
      XXYZ      -0.0000   XYYZ       3.9435   YYYZ      -0.0000
      XXZZ     -99.5549   XYZZ       0.0000   YYZZ     -58.8890
      XZZZ      10.3559   YZZZ      -0.0000   ZZZZ    -111.8922
 -----------------------------------------------------------------
 Calculating analytic gradient of the SCF energy
 Gradient of SCF Energy
            1           2           3           4           5           6
    1   0.0000183  -0.0000386  -0.0008556   0.0008314   0.0000183  -0.0000188
    2   0.0000113  -0.0000000   0.0000000   0.0000000  -0.0000113  -0.0000035
    3   0.0000263  -0.0000016  -0.0512160   0.0512338   0.0000263  -0.0000207
            7           8           9          10          11          12
    1  -0.0000125   0.0000147   0.0000593  -0.0000125  -0.0000188   0.0000147
    2  -0.0000037  -0.0000015  -0.0000000   0.0000037   0.0000035   0.0000015
    3   0.0000100  -0.0000119  -0.0000236   0.0000100  -0.0000207  -0.0000119
 Max gradient component =       5.123E-02
 RMS gradient           =       1.208E-02
 Gradient time:  CPU 11.60 s  wall 0.97 s
 Geometry Optimization Parameters
   NAtoms,    NIC,     NZ,  NCons,   NDum,   NFix, NCnnct, MaxDiis
       12      75       0       1       0       0       0       0

 Cartesian Hessian Update
 Hessian Updated using BFGS Update


** CONSTRAINED OPTIMIZATION IN DELOCALIZED INTERNAL COORDINATES **
   Searching for a Minimum

   Optimization Cycle:   4

                       Coordinates (Angstroms)
     ATOM                X               Y               Z
      1  C        -1.7329013553    1.2737456790    0.1138089557
      2  C        -1.1175511784    0.0000000000   -0.4626187217
      3  Se        0.8632549855    0.0000000000   -0.3513780058
      4  H         0.9043397409    0.0000000000    2.1482842203
      5  C        -1.7329013553   -1.2737456790    0.1138089557
      6  H        -1.3016314005    2.1716003597   -0.3344156369
      7  H        -2.8155182372    1.2811560447   -0.0644245408
      8  H        -1.5677674814    1.3205956881    1.1951405966
      9  H        -1.2362035993    0.0000000000   -1.5580132421
     10  H        -2.8155182371   -1.2811560447   -0.0644245408
     11  H        -1.3016314005   -2.1716003597   -0.3344156369
     12  H        -1.5677674814   -1.3205956881    1.1951405966
   Point Group: c1    Number of degrees of freedom:    30


   Energy is  -2520.338881869

              Constraints and their Current Values
                                        Value     Constraint
   Distance(Angs):        3   4             2.500000     2.500000
 Hessian Updated using BFGS Update

 16 Hessian modes will be used to form the next step
  Hessian Eigenvalues:
     0.026140    0.060576    0.078714    0.082639    0.084078    0.158479
     0.159832    0.160000    0.168173    0.175864    0.218366    0.296766
     0.334347    0.340554    0.343567    0.346128

 Minimum Search - Taking Simple RFO Step
 Searching for Lamda that Minimizes Along All modes
 Value Taken    Lamda =   0.00000000
 Step Taken.  Stepsize is  0.001927

                             Maximum     Tolerance    Cnvgd?
         Gradient           0.000051      0.000300     YES
         Displacement       0.001077      0.001200     YES
         Energy change     -0.000000      0.000001     YES


                       Distance Matrix (Angstroms)
             C (  1)   C (  2)   Se(  3)   H (  4)   C (  5)   H (  6)
   C (  2)  1.527532
   Se(  3)  2.928968  1.983927
   H (  4)  3.566028  3.302250  2.500000
   C (  5)  2.547491  1.527532  2.928968  3.566028
   H (  6)  1.092265  2.183156  3.066410  3.968117  3.501044
   H (  7)  1.097215  2.164027  3.906031  4.513844  2.780530  1.776975
   H (  8)  1.094871  2.166756  3.169474  2.960367  2.815520  1.770474
   H (  9)  2.159659  1.101802  2.421507  4.280019  2.159659  2.493455
   H ( 10)  2.780530  2.164027  3.906031  4.513844  1.097215  3.779719
   H ( 11)  3.501044  2.183156  3.066410  3.968117  1.092265  4.343201
   H ( 12)  2.815520  2.166756  3.169474  2.960367  1.094871  3.821754
             H (  7)   H (  8)   H (  9)   H ( 10)   H ( 11)
   H (  8)  1.773398
   H (  9)  2.523173  3.071443
   H ( 10)  2.562312  3.148412  2.523173
   H ( 11)  3.779719  3.821754  2.493455  1.776975
   H ( 12)  3.148412  2.641191  3.071443  1.773398  1.770474
 
 Final energy is   -2520.33888186928     


 ******************************
 **  OPTIMIZATION CONVERGED  **
 ******************************

                       Coordinates (Angstroms)
     ATOM                X               Y               Z
      1  C        -1.7329013553    1.2737456790    0.1138089557
      2  C        -1.1175511784    0.0000000000   -0.4626187217
      3  Se        0.8632549855    0.0000000000   -0.3513780058
      4  H         0.9043397409    0.0000000000    2.1482842203
      5  C        -1.7329013553   -1.2737456790    0.1138089557
      6  H        -1.3016314005    2.1716003597   -0.3344156369
      7  H        -2.8155182372    1.2811560447   -0.0644245408
      8  H        -1.5677674814    1.3205956881    1.1951405966
      9  H        -1.2362035993    0.0000000000   -1.5580132421
     10  H        -2.8155182371   -1.2811560447   -0.0644245408
     11  H        -1.3016314005   -2.1716003597   -0.3344156369
     12  H        -1.5677674814   -1.3205956881    1.1951405966

Z-matrix Print:
$molecule
0 1
Se
C  1 1.983927
H  2 1.101802 1 99.396454
C  2 1.527532 1 112.398548 3 115.590759 0
H  4 1.092265 2 111.810052 1 -53.317250 0
H  4 1.094871 2 110.341532 1 67.021603 0
H  4 1.097215 2 109.987352 1 -173.934827 0
C  2 1.527532 1 112.398548 3 -115.590759 0
H  8 1.092265 2 111.810052 1 53.317250 0
H  8 1.094871 2 110.341532 1 -67.021603 0
H  8 1.097215 2 109.987352 1 173.934827 0
H  1 2.500000 2 94.155951 3 -180.000000 0
$end

PES scan, value:    2.5000 energy: -2520.3388818693
------- Summary of potential scan: ------ 
    2.5000     -2520.3388818693
----------------------------------------- 
Archival summary:
1\1\hpc0248\JobtypUnspecified\ProcedureUnspecified\6-31G**\e138\knomura\WedMar1316:26:342019WedMar1316:26:342019\0\\#,JobtypUnspecified,ProcedureUnspecified,6-31G**,\\0,1\Se\C,1,1.98393\H,2,1.1018,1,99.3965\C,2,1.52753,1,112.399,3,115.591,0\H,4,1.09226,2,111.81,1,-53.3173,0\H,4,1.09487,2,110.342,1,67.0216,0\H,4,1.09722,2,109.987,1,-173.935,0\C,2,1.52753,1,112.399,3,-115.591,0\H,8,1.09226,2,111.81,1,53.3173,0\H,8,1.09487,2,110.342,1,-67.0216,0\H,8,1.09722,2,109.987,1,173.935,0\H,1,2.5,2,94.156,3,-180,0\\\@

 Total job time:  19.03s(wall), 215.70s(cpu) 
 Wed Mar 13 16:26:34 2019

        *************************************************************
        *                                                           *
        *  Thank you very much for using Q-Chem.  Have a nice day.  *
        *                                                           *
        *************************************************************


