
Running Job 1 of 1 thiol/04/S-H.xyz.data/inputs/bond_singlet_3.6.in
qchem thiol/04/S-H.xyz.data/inputs/bond_singlet_3.6.in_11188.0 /staging/scratch/2868767/qchem11188/ 1
/usr/usc/qchem/5.1.1/exe/qcprog.exe_s thiol/04/S-H.xyz.data/inputs/bond_singlet_3.6.in_11188.0 /staging/scratch/2868767/qchem11188/
Check license passed

                  Welcome to Q-Chem
     A Quantum Leap Into The Future Of Chemistry


 Q-Chem 5.1, Q-Chem, Inc., Pleasanton, CA (2018)

 Yihan Shao,  Zhengting Gan,  E. Epifanovsky,  A. T. B. Gilbert,  M. Wormit,  
 J. Kussmann,  A. W. Lange,  A. Behn,  Jia Deng,  Xintian Feng,  D. Ghosh,  
 M. Goldey,  P. R. Horn,  L. D. Jacobson,  I. Kaliman,  T. Kus,  A. Landau,  
 Jie Liu,  E. I. Proynov,  R. M. Richard,  R. P. Steele,  E. J. Sundstrom,  
 H. L. Woodcock III,  P. M. Zimmerman,  D. Zuev,  B. Albrecht,  E. Alguire,  
 S. A. Baeppler,  D. Barton,  Z. Benda,  Y. A. Bernard,  E. J. Berquist,  
 K. B. Bravaya,  H. Burton,  D. Casanova,  Chun-Min Chang,  Yunqing Chen,  
 A. Chien,  K. D. Closser,  M. P. Coons,  S. Coriani,  S. Dasgupta,  
 A. L. Dempwolff,  M. Diedenhofen,  Hainam Do,  R. G. Edgar,  Po-Tung Fang,  
 S. Faraji,  S. Fatehi,  Qingguo Feng,  K. D. Fenk,  J. Fosso-Tande,  
 Qinghui Ge,  A. Ghysels,  G. Gidofalvi,  J. Gomes,  J. Gonthier,  A. Gunina,  
 D. Hait,  M. W. D. Hanson-Heine,  P. H. P. Harbach,  A. W. Hauser,  
 J. E. Herr,  E. G. Hohenstein,  Z. C. Holden,  Kerwin Hui,  B. C. Huynh,  
 T.-C. Jagau,  Hyunjun Ji,  B. Kaduk,  K. Khistyaev,  Jaehoon Kim,  
 P. Klunzinger,  K. Koh,  D. Kosenkov,  L. Koulias,  T. Kowalczyk,  
 C. M. Krauter,  A. Kunitsa,  Ka Un Lao,  A. Laurent,  K. V. Lawler,  
 Joonho Lee,  D. Lefrancois,  S. Lehtola,  D. S. Levine,  Yi-Pei Li,  
 You-Sheng Lin,  Fenglai Liu,  E. Livshits,  A. Luenser,  P. Manohar,  
 E. Mansoor,  S. F. Manzer,  Shan-Ping Mao,  Yuezhi Mao,  N. Mardirossian,  
 A. V. Marenich,  T. Markovich,  L. A. Martinez-Martinez,  S. A. Maurer,  
 N. J. Mayhall,  S. C. McKenzie,  J.-M. Mewes,  A. F. Morrison,  
 J. W. Mullinax,  K. Nanda,  T. S. Nguyen-Beck,  R. Olivares-Amaya,  
 J. A. Parkhill,  T. M. Perrine,  F. Plasser,  P. Pokhilko,  S. Prager,  
 A. Prociuk,  E. Ramos,  D. R. Rehn,  F. Rob,  M. Schneider,  N. Sergueev,  
 S. M. Sharada,  S. Sharma,  D. W. Small,  T. Stauch,  T. Stein,  
 Yu-Chuan Su,  A. J. W. Thom,  A. Tkatchenko,  T. Tsuchimochi,  N. M. Tubman,  
 L. Vogt,  M. L. Vidal,  O. Vydrov,  M. A. Watson,  J. Wenzel,  
 M. de Wergifosse,  T. A. Wesolowski,  A. White,  J. Witte,  A. Yamada,  
 Jun Yang,  K. Yao,  S. Yeganeh,  S. R. Yost,  Zhi-Qiang You,  A. Zech,  
 Igor Ying Zhang,  Xing Zhang,  Yan Zhao,  Ying Zhu,  B. R. Brooks,  
 G. K. L. Chan,  C. J. Cramer,  M. S. Gordon,  W. J. Hehre,  A. Klamt,  
 M. W. Schmidt,  C. D. Sherrill,  D. G. Truhlar,  A. Aspuru-Guzik,  R. Baer,  
 A. T. Bell,  N. A. Besley,  Jeng-Da Chai,  A. E. DePrince, III,  
 R. A. DiStasio Jr.,  A. Dreuw,  B. D. Dunietz,  T. R. Furlani,  
 Chao-Ping Hsu,  Yousung Jung,  Jing Kong,  D. S. Lambrecht,  WanZhen Liang,  
 C. Ochsenfeld,  V. A. Rassolov,  L. V. Slipchenko,  J. E. Subotnik,  
 T. Van Voorhis,  J. M. Herbert,  A. I. Krylov,  P. M. W. Gill,  M. Head-Gordon

 Contributors to earlier versions of Q-Chem not listed above: 
 R. D. Adamson,  B. Austin,  J. Baker,  G. J. O. Beran,  K. Brandhorst,  
 S. T. Brown,  E. F. C. Byrd,  A. K. Chakraborty,  C.-L. Cheng,  
 Siu Hung Chien,  D. M. Chipman,  D. L. Crittenden,  H. Dachsel,  
 R. J. Doerksen,  A. D. Dutoi,  L. Fusti-Molnar,  W. A. Goddard III,  
 A. Golubeva-Zadorozhnaya,  S. R. Gwaltney,  G. Hawkins,  A. Heyden,  
 S. Hirata,  G. Kedziora,  F. J. Keil,  C. Kelley,  Jihan Kim,  R. A. King,  
 R. Z. Khaliullin,  P. P. Korambath,  W. Kurlancheek,  A. M. Lee,  M. S. Lee,  
 S. V. Levchenko,  Ching Yeh Lin,  D. Liotard,  R. C. Lochan,  I. Lotan,  
 P. E. Maslen,  N. Nair,  D. P. O'Neill,  D. Neuhauser,  E. Neuscamman,  
 C. M. Oana,  R. Olson,  B. Peters,  R. Peverati,  P. A. Pieniazek,  
 Y. M. Rhee,  J. Ritchie,  M. A. Rohrdanz,  E. Rosta,  N. J. Russ,  
 H. F. Schaefer III,  N. E. Schultz,  N. Shenvi,  A. C. Simmonett,  A. Sodt,  
 D. Stuck,  K. S. Thanthiriwatte,  V. Vanovschi,  Tao Wang,  A. Warshel,  
 C. F. Williams,  Q. Wu,  X. Xu,  W. Zhang

 Please cite Q-Chem as follows:
 Y. Shao et al., Mol. Phys. 113, 184-215 (2015)
 DOI: 10.1080/00268976.2014.952696

 Q-Chem 5.1.1 for Intel X86 EM64T Linux

 Parts of Q-Chem use Armadillo 8.300.2 (Tropical Shenanigans).
 http://arma.sourceforge.net/

 Q-Chem begins on Thu Mar 14 09:39:18 2019  

Host: 
0

     Scratch files written to /staging/scratch/2868767/qchem11188//
 Aug318 |scratch|qcdevops|jenkins|workspace|build_RNUM 6013   
Processing $rem in /usr/usc/qchem/5.1.1/config/preferences.
 MEM_TOTAL  2000 
Input Ideriv = 2
Curr. Ideriv = -1
Max.  Ideriv = 2

Checking the input file for inconsistencies... 	...done.

--------------------------------------------------------------
User input:
--------------------------------------------------------------

$comment
potential surface scanner
$end

$rem
JOBTYPE  PES_SCAN
UNRESTRICTED TRUE
SYM_IGNORE  TRUE
GEOM_OPT_MAX_CYCLES 400
SCF_MAX_CYCLES 400
METHOD   B3LYP
BASIS   6-31G**
PDB_PRINT 2
SCF_CONVERGENCE 6
THRESH 14
SCF_PRINT 1
$end
$molecule
0 1
S 2.418688 -0.039210 1.122016
S -2.539107 -0.259148 -0.364849
C 0.207698 -0.310599 -0.501307
C 1.569436 -0.896553 -0.298951
C -0.917939 -0.975563 -0.220567
H -1.282699 3.143196 1.534986
H 0.165402 0.710699 -0.874605
H 1.508461 -1.966672 -0.086837
H 2.188112 -0.746803 -1.188486
H -0.884574 -1.990779 0.165935
H -3.215591 -1.421162 -0.432597
H 3.674936 -0.419300 0.809719
H -1.784619 2.595498 1.514446
$end
$scan
stre 2 13 3.600000 3.601000 0.100000
$end
--------------------------------------------------------------
 ----------------------------------------------------------------
             Standard Nuclear Orientation (Angstroms)
    I     Atom           X                Y                Z
 ----------------------------------------------------------------
    1      S       2.4186880000    -0.0392100000     1.1220160000
    2      S      -2.5391070000    -0.2591480000    -0.3648490000
    3      C       0.2076980000    -0.3105990000    -0.5013070000
    4      C       1.5694360000    -0.8965530000    -0.2989510000
    5      C      -0.9179390000    -0.9755630000    -0.2205670000
    6      H      -1.2826990000     3.1431960000     1.5349860000
    7      H       0.1654020000     0.7106990000    -0.8746050000
    8      H       1.5084610000    -1.9666720000    -0.0868370000
    9      H       2.1881120000    -0.7468030000    -1.1884860000
   10      H      -0.8845740000    -1.9907790000     0.1659350000
   11      H      -3.2155910000    -1.4211620000    -0.4325970000
   12      H       3.6749360000    -0.4193000000     0.8097190000
   13      H      -1.7846190000     2.5954980000     1.5144460000
 ----------------------------------------------------------------
 Nuclear Repulsion Energy =   261.2508375896 hartrees
 There are       29 alpha and       29 beta electrons
 Requested basis set is 6-31G(d,p)
 There are 46 shells and 123 basis functions

 Total QAlloc Memory Limit   2000 MB
 Mega-Array Size       188 MB
 MEM_STATIC part       192 MB
A total of 1 constraints
  
            1
    1   1.0100000
    2   2.0100000
    3  13.0100000
    4   3.6000000
    5   3.6010000
    6   0.1000000
    7   0.0000000
    8   0.0000000
    9   0.0000000
   10   0.0000000

                       Distance Matrix (Angstroms)
             S (  1)   S (  2)   C (  3)   C (  4)   C (  5)   H (  6)
   S (  2)  5.180625
   C (  3)  2.756321  2.750674
   C (  4)  1.864246  4.158215  1.496202
   C (  5)  3.716499  1.778273  1.337180  2.489864
   H (  6)  4.898828  4.094372  4.277438  5.274237  4.492126
   H (  7)  3.102605  2.918017  1.088205  2.210418  2.108287  3.717549
   H (  8)  2.450500  4.401788  2.146240  1.092641  2.624423  6.044141
   H (  9)  2.427400  4.823151  2.141151  1.093827  3.261403  5.881830
   H ( 10)  3.954017  2.453112  2.112173  2.726832  1.086812  5.328274
   H ( 11)  6.005973  1.346290  3.599580  4.815554  2.350047  5.332993
   H ( 12)  1.349132  6.326104  3.708415  2.426942  4.739770  6.147807
   H ( 13)  4.976292  3.500001  4.059309  5.170349  4.063727  0.743181
             H (  7)   H (  8)   H (  9)   H ( 10)   H ( 11)   H ( 12)
   H (  8)  3.097209
   H (  9)  2.512805  1.778661
   H ( 10)  3.079473  2.406469  3.580968
   H ( 11)  4.021357  4.767997  5.497830  2.473124
   H ( 12)  4.053477  2.809232  2.512116  4.865505  7.072937
   H ( 13)  3.614224  5.849947  5.853154  4.864412  4.687453  6.276336

 
 A cutoff of  1.0D-14 yielded    940 shell pairs
 There are      6982 function pairs
 
 -------------------------------------------------------
 OpenMP Integral Computing Module                       
 Release: version 1.0, May 2013, Q-Chem Inc. Pittsburgh 
 -------------------------------------------------------
 Integral Job Info:
 Integral job number is                      11
 Integral operator is                         1
 short-range coefficients                     0
 long-range coefficients              100000000
 Omega coefficients                           0
 if combine SR and LR in K                    0
 Integral screening is                        0
 Integral computing path is                   2
 max size of driver memory is            800000
 size of driver memory is                593474
 size of scratch memory is             15267112
 max col of scratch BK array               1296
 max len of scratch array in speh3          155
 max len of scratch index in speh4           18
 max int batch size is                      520
 min int batch size is                       52
 fixed nKL is                                52
 max L of basis functions is                  2
 order of int derivative is                   0
 number of shells is                         46
 number of basis is                         123
 number of cartesian basis is               123
 number of contracted shell pairs           940
 number of primitive shell pairs           3476
 maxK2 (contraction) of shell pair           36
 max number of K2 of shell pair               1
 max number of CS2 of shell pair             87
 max number of PS2 of shell pair            324
 mem total for path MDJ                  517212
 -------------------------------------------------------
 Smallest overlap matrix eigenvalue = 3.98E-03

 Scale SEOQF with 1.000000e-01/1.000000e-01/1.000000e-01

 Standard Electronic Orientation quadrupole field applied
 Nucleus-field energy     =     0.0000000084 hartrees
 Guess from superposition of atomic densities
 Warning:  Energy on first SCF cycle will be non-variational
 SAD guess density has 58.000000 electrons

 -----------------------------------------------------------------------
  General SCF calculation program by
  Eric Jon Sundstrom, Paul Horn, Yuezhi Mao, Dmitri Zuev, Alec White,
  David Stuck, Shaama M.S., Shane Yost, Joonho Lee, David Small,
  Daniel Levine, Susi Lehtola, Hugh Burton, Evgeny Epifanovsky
 -----------------------------------------------------------------------
 Exchange:     0.2000 Hartree-Fock + 0.0800 Slater + 0.7200 B88
 Correlation:  0.1900 VWN1RPA + 0.8100 LYP
 Using SG-1 standard quadrature grid
 using 12 threads for integral computing
 -------------------------------------------------------
 OpenMP Integral computing Module                
 Release: version 1.0, May 2013, Q-Chem Inc. Pittsburgh 
 -------------------------------------------------------
 -------------------------------------------------------
 OpenMP BLAS3 based DFT computing Module                
 Release: version 1.0, May 2013, Q-Chem Inc. Pittsburgh 
 -------------------------------------------------------
 A unrestricted SCF calculation will be
 performed using DIIS
 SCF converges when DIIS error is below 1.0e-06
 Alpha HF Exchange    Energy =  -6.83817960170129
 Beta HF Exchange     Energy =  -6.83817960170129
 DFT Correlation      Energy =  -2.69791602544819
 DFT Exchange         Energy = -53.84278479044095
 One-Electron (alpha) Energy = -887.14254452853424
 One-Electron (beta)  Energy = -887.14254452853424
 Total Coulomb        Energy = 667.28691707577252
 ---------------------------------------
  Cycle       Energy         DIIS error
 ---------------------------------------
    1    -915.9643944026      2.79e-02  
 Alpha HF Exchange    Energy =  -6.85616283411435
 Beta HF Exchange     Energy =  -6.85616283411436
 DFT Correlation      Energy =  -2.72526194950009
 DFT Exchange         Energy = -54.42168052006551
 One-Electron (alpha) Energy = -890.91209075637914
 One-Electron (beta)  Energy = -890.91209075637937
 Total Coulomb        Energy = 676.02867780364022
    2    -915.4039342489      2.67e-03  
 Alpha HF Exchange    Energy =  -6.80933244969695
 Beta HF Exchange     Energy =  -6.80933244969695
 DFT Correlation      Energy =  -2.70292320920249
 DFT Exchange         Energy = -54.01614846937402
 One-Electron (alpha) Energy = -887.17372278598691
 One-Electron (beta)  Energy = -887.17372278598702
 Total Coulomb        Energy = 668.06182355570809
    3    -915.3725209962      3.29e-03  
 Alpha HF Exchange    Energy =  -6.82861086695846
 Beta HF Exchange     Energy =  -6.82861086695846
 DFT Correlation      Energy =  -2.71333048121567
 DFT Exchange         Energy = -54.18320162390891
 One-Electron (alpha) Energy = -888.93382448090597
 One-Electron (beta)  Energy = -888.93382448090631
 Total Coulomb        Energy = 671.70606179797619
    4    -915.4645034049      5.75e-04  
 Alpha HF Exchange    Energy =  -6.83154723667461
 Beta HF Exchange     Energy =  -6.83154723667459
 DFT Correlation      Energy =  -2.71412089490079
 DFT Exchange         Energy = -54.20605300851471
 One-Electron (alpha) Energy = -889.11632400782798
 One-Electron (beta)  Energy = -889.11632400782719
 Total Coulomb        Energy = 672.09812777826835
    5    -915.4669510161      2.40e-04  
 Alpha HF Exchange    Energy =  -6.83121671177857
 Beta HF Exchange     Energy =  -6.83121671177857
 DFT Correlation      Energy =  -2.71390889511300
 DFT Exchange         Energy = -54.20293813953602
 One-Electron (alpha) Energy = -889.06916921124457
 One-Electron (beta)  Energy = -889.06916921124434
 Total Coulomb        Energy = 671.99942372660553
    6    -915.4673575561      8.14e-05  
 Alpha HF Exchange    Energy =  -6.83091127504224
 Beta HF Exchange     Energy =  -6.83091127504224
 DFT Correlation      Energy =  -2.71383296395827
 DFT Exchange         Energy = -54.20059455142768
 One-Electron (alpha) Energy = -889.04700787862703
 One-Electron (beta)  Energy = -889.04700787862726
 Total Coulomb        Energy = 671.95201618402575
    7    -915.4674120407      1.44e-05  
 Alpha HF Exchange    Energy =  -6.83099038828349
 Beta HF Exchange     Energy =  -6.83099038828349
 DFT Correlation      Energy =  -2.71386131127084
 DFT Exchange         Energy = -54.20118703770649
 One-Electron (alpha) Energy = -889.05645113887078
 One-Electron (beta)  Energy = -889.05645113887067
 Total Coulomb        Energy = 671.97168007534333
    8    -915.4674137299      3.38e-06  
 Alpha HF Exchange    Energy =  -6.83099066095420
 Beta HF Exchange     Energy =  -6.83099066095420
 DFT Correlation      Energy =  -2.71386161463900
 DFT Exchange         Energy = -54.20118756599192
 One-Electron (alpha) Energy = -889.05602767954156
 One-Electron (beta)  Energy = -889.05602767954156
 Total Coulomb        Energy = 671.97083444391512
    9    -915.4674138197      9.87e-07  Convergence criterion met
 ---------------------------------------
 SCF time:   CPU 26.99s  wall 2.00s 
<S^2> =          0.000000000
 Alpha HF Exchange    Energy =  -6.83099066095420
 Beta HF Exchange     Energy =  -6.83099066095420
 DFT Correlation      Energy =  -2.71386161463900
 DFT Exchange         Energy = -54.20118756599192
 One-Electron (alpha) Energy = -889.05602767954156
 One-Electron (beta)  Energy = -889.05602767954156
 Total Coulomb        Energy = 671.97083444391512
 Nuclear repulsion Energy = 261.25083759800560
 SCF   energy in the final basis set =     -915.4674138197
 Total energy in the final basis set =     -915.4674138197
 
 --------------------------------------------------------------
 
                    Orbital Energies (a.u.)
 --------------------------------------------------------------
 
 Alpha MOs
 -- Occupied --
-88.895 -88.876 -10.231 -10.229 -10.204  -7.957  -7.938  -5.922
 -5.919  -5.912  -5.903  -5.899  -5.892  -0.831  -0.783  -0.716
 -0.639  -0.566  -0.479  -0.461  -0.443  -0.422  -0.391  -0.389
 -0.348  -0.337  -0.313  -0.240  -0.227
 -- Virtual --
 -0.008   0.016   0.025   0.066   0.088   0.104   0.117   0.130
  0.160   0.175   0.251   0.288   0.316   0.346   0.352   0.367
  0.373   0.384   0.387   0.416   0.489   0.520   0.550   0.588
  0.607   0.617   0.633   0.647   0.720   0.727   0.734   0.744
  0.791   0.800   0.809   0.835   0.855   0.874   0.887   0.896
  0.950   0.985   0.998   1.077   1.082   1.123   1.129   1.210
  1.264   1.339   1.362   1.431   1.606   1.635   1.685   1.687
  1.815   1.881   1.908   1.952   2.029   2.051   2.073   2.087
  2.109   2.129   2.147   2.199   2.257   2.309   2.389   2.433
  2.502   2.535   2.559   2.575   2.607   2.625   2.627   2.721
  2.747   2.794   2.836   2.924   3.237   3.374   3.434   3.479
  3.977   3.981   4.162   4.190   4.327   4.536
 
 Beta MOs
 -- Occupied --
-88.895 -88.876 -10.231 -10.229 -10.204  -7.957  -7.938  -5.922
 -5.919  -5.912  -5.903  -5.899  -5.892  -0.831  -0.783  -0.716
 -0.639  -0.566  -0.479  -0.461  -0.443  -0.422  -0.391  -0.389
 -0.348  -0.337  -0.313  -0.240  -0.227
 -- Virtual --
 -0.008   0.016   0.025   0.066   0.088   0.104   0.117   0.130
  0.160   0.175   0.251   0.288   0.316   0.346   0.352   0.367
  0.373   0.384   0.387   0.416   0.489   0.520   0.550   0.588
  0.607   0.617   0.633   0.647   0.720   0.727   0.734   0.744
  0.791   0.800   0.809   0.835   0.855   0.874   0.887   0.896
  0.950   0.985   0.998   1.077   1.082   1.123   1.129   1.210
  1.264   1.339   1.362   1.431   1.606   1.635   1.685   1.687
  1.815   1.881   1.908   1.952   2.029   2.051   2.073   2.087
  2.109   2.129   2.147   2.199   2.257   2.309   2.389   2.433
  2.502   2.535   2.559   2.575   2.607   2.625   2.627   2.721
  2.747   2.794   2.836   2.924   3.237   3.374   3.434   3.479
  3.977   3.981   4.162   4.190   4.327   4.536
 --------------------------------------------------------------
 
          Ground-State Mulliken Net Atomic Charges

     Atom                 Charge (a.u.)    Spin (a.u.)
  --------------------------------------------------------
      1 S                    -0.035601      -0.000000
      2 S                     0.029317       0.000000
      3 C                    -0.042513      -0.000000
      4 C                    -0.358590       0.000000
      5 C                    -0.235701       0.000000
      6 H                    -0.009234       0.000000
      7 H                     0.115556      -0.000000
      8 H                     0.137542      -0.000000
      9 H                     0.146951       0.000000
     10 H                     0.128574      -0.000000
     11 H                     0.062752       0.000000
     12 H                     0.051868       0.000000
     13 H                     0.009080      -0.000000
  --------------------------------------------------------
  Sum of atomic charges =    -0.000000
  Sum of spin   charges =     0.000000

 -----------------------------------------------------------------
                    Cartesian Multipole Moments
 -----------------------------------------------------------------
    Charge (ESU x 10^10)
                 0.0000
    Dipole Moment (Debye)
         X       0.3218      Y      -2.1555      Z      -1.3596
       Tot       2.5687
    Quadrupole Moments (Debye-Ang)
        XX     -42.0609     XY       1.6805     YY     -44.2599
        XZ      -2.5007     YZ       0.0445     ZZ     -51.7229
    Octopole Moments (Debye-Ang^2)
       XXX       1.2954    XXY      -4.9159    XYY      -8.8788
       YYY      34.1197    XXZ     -10.1270    XYZ       0.4259
       YYZ      -7.2722    XZZ      -1.0849    YZZ      16.2960
       ZZZ     -22.3234
    Hexadecapole Moments (Debye-Ang^3)
      XXXX   -1112.9585   XXXY      30.5860   XXYY    -245.5222
      XYYY      22.5188   YYYY    -239.7311   XXXZ    -106.2837
      XXYZ      -5.6335   XYYZ     -41.5536   YYYZ     -37.5311
      XXZZ    -259.8254   XYZZ       8.9306   YYZZ     -83.5188
      XZZZ    -138.6786   YZZZ     -35.5215   ZZZZ    -232.8217
 -----------------------------------------------------------------
 Calculating analytic gradient of the SCF energy
 Gradient of SCF Energy
            1           2           3           4           5           6
    1  -0.0000189  -0.0001968   0.0000627   0.0000871  -0.0001778   0.0000604
    2  -0.0000297   0.0000647   0.0001005  -0.0000300  -0.0000103  -0.0000055
    3   0.0000305  -0.0000745  -0.0000140   0.0000383   0.0000542  -0.0000755
            7           8           9          10          11          12
    1   0.0000327   0.0000096   0.0000248   0.0000368   0.0001333  -0.0000130
    2  -0.0000329   0.0000041   0.0000275  -0.0000334  -0.0000951   0.0000361
    3  -0.0000017  -0.0000259   0.0000173  -0.0000238   0.0000374  -0.0000344
           13
    1  -0.0000409
    2   0.0000041
    3   0.0000720
 Max gradient component =       1.968E-04
 RMS gradient           =       6.489E-05
 Gradient time:  CPU 10.32 s  wall 0.90 s
 Geometry Optimization Parameters
   NAtoms,    NIC,     NZ,  NCons,   NDum,   NFix, NCnnct, MaxDiis
       13      93       0       1       0       0       0       0


** CONSTRAINED OPTIMIZATION IN DELOCALIZED INTERNAL COORDINATES **
   Searching for a Minimum

   Optimization Cycle:   1

                       Coordinates (Angstroms)
     ATOM                X               Y               Z
      1  S         2.4186880000   -0.0392100000    1.1220160000
      2  S        -2.5391070000   -0.2591480000   -0.3648490000
      3  C         0.2076980000   -0.3105990000   -0.5013070000
      4  C         1.5694360000   -0.8965530000   -0.2989510000
      5  C        -0.9179390000   -0.9755630000   -0.2205670000
      6  H        -1.2826990000    3.1431960000    1.5349860000
      7  H         0.1654020000    0.7106990000   -0.8746050000
      8  H         1.5084610000   -1.9666720000   -0.0868370000
      9  H         2.1881120000   -0.7468030000   -1.1884860000
     10  H        -0.8845740000   -1.9907790000    0.1659350000
     11  H        -3.2155910000   -1.4211620000   -0.4325970000
     12  H         3.6749360000   -0.4193000000    0.8097190000
     13  H        -1.7846190000    2.5954980000    1.5144460000
   Point Group: c1    Number of degrees of freedom:    33


   Energy is   -915.467413820

              Constraints and their Current Values
                                        Value     Constraint
   Distance(Angs):        2  13             3.500001     3.600000

 Attempting to Generate Delocalized Internal Coordinates

   Using Lagrange Multiplier Algorithm


 34 Hessian modes will be used to form the next step
  Hessian Eigenvalues:
    -0.995901    0.010051    0.045000    0.045000    0.045003    0.045025
     0.045419    0.047004    0.055439    0.061704    0.086748    0.094522
     0.097662    0.121528    0.125382    0.144050    0.147142    0.159864
     0.160000    0.181832    0.211159    0.216453    0.221284    0.257049
     0.259253    0.268367    0.327791    0.332582    0.343741    0.345092
     0.351837    0.368284    0.557775    1.004116

 Minimum Search - Taking P-RFO Step
 Searching for Lamda that Maximizes Along the Constraint modes Only
 Value Taken    Lamda =   0.01769803


 ********************************************
 ** ERROR IN DETERMINING Lamda IN CONFormD **
 ********************************************


 ** Scaling Hessian by  3.521633 **


 34 Hessian modes will be used to form the next step
  Hessian Eigenvalues:
    -0.985639    0.035396    0.158473    0.158473    0.158485    0.158563
     0.159949    0.165532    0.195235    0.217298    0.305495    0.332872
     0.343929    0.427979    0.441548    0.507293    0.518182    0.562982
     0.563461    0.640344    0.743626    0.762268    0.779282    0.905231
     0.912994    0.945089    1.014570    1.154358    1.171233    1.210529
     1.215287    1.239039    1.296963    1.964279

 Minimum Search - Taking P-RFO Step
 Searching for Lamda that Maximizes Along the Constraint modes Only
 Value Taken    Lamda =   0.01805688
 Searching for Lamda that Minimizes Along All other modes
 Value Taken    Lamda =  -0.01704769
 Step Taken.  Stepsize is  0.185711

                             Maximum     Tolerance    Cnvgd?
         Gradient            0.188971       0.000300      NO
         Displacement        0.185708       0.001200      NO
         Energy change     *********       0.000001      NO


 New Cartesian Coordinates Obtained by Inverse Iteration

 Displacement from previous Coordinates is:  0.209375
 ----------------------------------------------------------------
             Standard Nuclear Orientation (Angstroms)
    I     Atom           X                Y                Z
 ----------------------------------------------------------------
    1      S       2.4055083035    -0.0407091801     1.1299763392
    2      S      -2.5503712725    -0.3010567650    -0.3823566882
    3      C       0.1987602851    -0.3107325246    -0.4993148239
    4      C       1.5631007778    -0.8912591836    -0.2991485405
    5      C      -0.9217349266    -0.9919916087    -0.2239105537
    6      H      -1.2468323187     3.1800788180     1.5438015606
    7      H       0.1591448550     0.7177671131    -0.8671585012
    8      H       1.5072091148    -1.9632972764    -0.0954842642
    9      H       2.1825262412    -0.7314301337    -1.1864040905
   10      H      -0.8761877674    -2.0070250850     0.1618031468
   11      H      -3.2256900360    -1.4636129836    -0.4523474579
   12      H       3.6642489377    -0.4120650633     0.8171832157
   13      H      -1.7514781939     2.6389378729     1.5322636577
 ----------------------------------------------------------------
 Nuclear Repulsion Energy =   261.0508432575 hartrees
 There are       29 alpha and       29 beta electrons

                       Distance Matrix (Angstroms)
             S (  1)   S (  2)   C (  3)   C (  4)   C (  5)   H (  6)
   S (  2)  5.188032
   C (  3)  2.756309  2.751635
   C (  4)  1.864265  4.156431  1.496163
   C (  5)  3.715978  1.776219  1.339952  2.488015
   H (  6)  4.887159  4.186598  4.295326  5.279013  4.542760
   H (  7)  3.099997  2.935049  1.093019  2.209682  2.122580  3.721892
   H (  8)  2.450518  4.394235  2.146180  1.092643  2.619102  6.060224
   H (  9)  2.427434  4.819962  2.141122  1.093826  3.260479  5.874898
   H ( 10)  3.946300  2.451393  2.114237  2.721679  1.086804  5.380831
   H ( 11)  6.019867  1.346288  3.613613  4.825306  2.362799  5.428109
   H ( 12)  1.349138  6.330302  3.708510  2.427066  4.738295  6.127821
   H ( 13)  4.962145  3.598273  4.078149  5.177142  4.117799  0.740023
             H (  7)   H (  8)   H (  9)   H ( 10)   H ( 11)   H ( 12)
   H (  8)  3.098526
   H (  9)  2.509216  1.778667
   H ( 10)  3.091144  2.397643  3.577784
   H ( 11)  4.048159  4.772564  5.506699  2.488501
   H ( 12)  4.049603  2.809289  2.512341  4.856849  7.084400
   H ( 13)  3.619199  5.869342  5.850378  4.922323  4.789875  6.257001

 
 Applying Cartesian multipole field
    Component          Value
    ---------          -----
     (2,0,0)        1.00000E-11
     (0,2,0)        2.00000E-11
     (0,0,2)       -3.00000E-11
 Nucleus-field energy     =     0.0000000084 hartrees
 Requested basis set is 6-31G(d,p)
 There are 46 shells and 123 basis functions
 A cutoff of  1.0D-14 yielded    938 shell pairs
 There are      6976 function pairs
 Smallest overlap matrix eigenvalue = 3.99E-03
 Guess from superposition of atomic densities
 Warning:  Energy on first SCF cycle will be non-variational
 SAD guess density has 58.000000 electrons

 -----------------------------------------------------------------------
  General SCF calculation program by
  Eric Jon Sundstrom, Paul Horn, Yuezhi Mao, Dmitri Zuev, Alec White,
  David Stuck, Shaama M.S., Shane Yost, Joonho Lee, David Small,
  Daniel Levine, Susi Lehtola, Hugh Burton, Evgeny Epifanovsky
 -----------------------------------------------------------------------
 Exchange:     0.2000 Hartree-Fock + 0.0800 Slater + 0.7200 B88
 Correlation:  0.1900 VWN1RPA + 0.8100 LYP
 Using SG-1 standard quadrature grid
 using 12 threads for integral computing
 -------------------------------------------------------
 OpenMP Integral computing Module                
 Release: version 1.0, May 2013, Q-Chem Inc. Pittsburgh 
 -------------------------------------------------------
 -------------------------------------------------------
 OpenMP BLAS3 based DFT computing Module                
 Release: version 1.0, May 2013, Q-Chem Inc. Pittsburgh 
 -------------------------------------------------------
 A unrestricted SCF calculation will be
 performed using DIIS
 SCF converges when DIIS error is below 1.0e-06
 Alpha HF Exchange    Energy =  -6.83771032222414
 Beta HF Exchange     Energy =  -6.83771032222414
 DFT Correlation      Energy =  -2.69771612126901
 DFT Exchange         Energy = -53.84192027674200
 One-Electron (alpha) Energy = -886.94532944650075
 One-Electron (beta)  Energy = -886.94532944650075
 Total Coulomb        Energy = 667.09479739108428
 ---------------------------------------
  Cycle       Energy         DIIS error
 ---------------------------------------
    1    -915.9600752785      2.78e-02  
 Alpha HF Exchange    Energy =  -6.85590416123325
 Beta HF Exchange     Energy =  -6.85590416123327
 DFT Correlation      Energy =  -2.72506983023697
 DFT Exchange         Energy = -54.41988072277859
 One-Electron (alpha) Energy = -890.71226624315568
 One-Electron (beta)  Energy = -890.71226624315625
 Total Coulomb        Energy = 675.82613143864853
    2    -915.4043166572      2.66e-03  
 Alpha HF Exchange    Energy =  -6.80912159991068
 Beta HF Exchange     Energy =  -6.80912159991068
 DFT Correlation      Energy =  -2.70273477645386
 DFT Exchange         Energy = -54.01475528463473
 One-Electron (alpha) Energy = -886.97288954507803
 One-Electron (beta)  Energy = -886.97288954507792
 Total Coulomb        Energy = 667.85770291155802
    3    -915.3729661736      3.28e-03  
 Alpha HF Exchange    Energy =  -6.82839000124411
 Beta HF Exchange     Energy =  -6.82839000124411
 DFT Correlation      Energy =  -2.71314157168121
 DFT Exchange         Energy = -54.18173471061344
 One-Electron (alpha) Energy = -888.73478235429161
 One-Electron (beta)  Energy = -888.73478235429116
 Total Coulomb        Energy = 671.50599588475200
    4    -915.4643818427      5.78e-04  
 Alpha HF Exchange    Energy =  -6.83132641566881
 Beta HF Exchange     Energy =  -6.83132641566880
 DFT Correlation      Energy =  -2.71393451806767
 DFT Exchange         Energy = -54.20458557212906
 One-Electron (alpha) Energy = -888.91746153456393
 One-Electron (beta)  Energy = -888.91746153456381
 Total Coulomb        Energy = 671.89839646558403
    5    -915.4668562592      2.41e-04  
 Alpha HF Exchange    Energy =  -6.83099932538995
 Beta HF Exchange     Energy =  -6.83099932538995
 DFT Correlation      Energy =  -2.71372200961609
 DFT Exchange         Energy = -54.20149325469234
 One-Electron (alpha) Energy = -888.87029964208466
 One-Electron (beta)  Energy = -888.87029964208443
 Total Coulomb        Energy = 671.79970338125383
    6    -915.4672665521      8.14e-05  
 Alpha HF Exchange    Energy =  -6.83069226297301
 Beta HF Exchange     Energy =  -6.83069226297301
 DFT Correlation      Energy =  -2.71364559888449
 DFT Exchange         Energy = -54.19913791867386
 One-Electron (alpha) Energy = -888.84802961445882
 One-Electron (beta)  Energy = -888.84802961445860
 Total Coulomb        Energy = 671.75206287663093
    7    -915.4673211299      1.43e-05  
 Alpha HF Exchange    Energy =  -6.83077224685601
 Beta HF Exchange     Energy =  -6.83077224685601
 DFT Correlation      Energy =  -2.71367436239085
 DFT Exchange         Energy = -54.19973746032729
 One-Electron (alpha) Energy = -888.85754484952668
 One-Electron (beta)  Energy = -888.85754484952747
 Total Coulomb        Energy = 671.77187995253769
    8    -915.4673227970      3.35e-06  
 Alpha HF Exchange    Energy =  -6.83077199721781
 Beta HF Exchange     Energy =  -6.83077199721781
 DFT Correlation      Energy =  -2.71367442815879
 DFT Exchange         Energy = -54.19973364599414
 One-Electron (alpha) Energy = -888.85707196911039
 One-Electron (beta)  Energy = -888.85707196911017
 Total Coulomb        Energy = 671.77092985508386
    9    -915.4673228858      9.83e-07  Convergence criterion met
 ---------------------------------------
 SCF time:   CPU 26.46s  wall 3.00s 
<S^2> =         -0.000000000
 Alpha HF Exchange    Energy =  -6.83077199721781
 Beta HF Exchange     Energy =  -6.83077199721781
 DFT Correlation      Energy =  -2.71367442815879
 DFT Exchange         Energy = -54.19973364599414
 One-Electron (alpha) Energy = -888.85707196911039
 One-Electron (beta)  Energy = -888.85707196911017
 Total Coulomb        Energy = 671.77092985508386
 Nuclear repulsion Energy = 261.05084326592385
 SCF   energy in the final basis set =     -915.4673228858
 Total energy in the final basis set =     -915.4673228858
 
 --------------------------------------------------------------
 
                    Orbital Energies (a.u.)
 --------------------------------------------------------------
 
 Alpha MOs
 -- Occupied --
-88.895 -88.876 -10.231 -10.230 -10.205  -7.957  -7.938  -5.922
 -5.918  -5.912  -5.903  -5.899  -5.892  -0.831  -0.783  -0.716
 -0.639  -0.566  -0.480  -0.461  -0.443  -0.423  -0.391  -0.389
 -0.348  -0.337  -0.313  -0.240  -0.226
 -- Virtual --
 -0.009   0.017   0.026   0.066   0.088   0.104   0.116   0.129
  0.160   0.174   0.251   0.286   0.317   0.345   0.352   0.367
  0.371   0.384   0.387   0.416   0.490   0.521   0.550   0.588
  0.604   0.616   0.632   0.647   0.719   0.727   0.732   0.744
  0.791   0.799   0.808   0.835   0.853   0.874   0.887   0.896
  0.950   0.985   0.997   1.076   1.081   1.123   1.129   1.209
  1.260   1.338   1.362   1.430   1.606   1.635   1.684   1.685
  1.817   1.878   1.908   1.952   2.030   2.051   2.073   2.087
  2.109   2.125   2.146   2.198   2.255   2.308   2.395   2.433
  2.501   2.533   2.555   2.576   2.605   2.628   2.629   2.719
  2.747   2.793   2.828   2.922   3.237   3.366   3.433   3.476
  3.977   3.981   4.177   4.190   4.326   4.535
 
 Beta MOs
 -- Occupied --
-88.895 -88.876 -10.231 -10.230 -10.205  -7.957  -7.938  -5.922
 -5.918  -5.912  -5.903  -5.899  -5.892  -0.831  -0.783  -0.716
 -0.639  -0.566  -0.480  -0.461  -0.443  -0.423  -0.391  -0.389
 -0.348  -0.337  -0.313  -0.240  -0.226
 -- Virtual --
 -0.009   0.017   0.026   0.066   0.088   0.104   0.116   0.129
  0.160   0.174   0.251   0.286   0.317   0.345   0.352   0.367
  0.371   0.384   0.387   0.416   0.490   0.521   0.550   0.588
  0.604   0.616   0.632   0.647   0.719   0.727   0.732   0.744
  0.791   0.799   0.808   0.835   0.853   0.874   0.887   0.896
  0.950   0.985   0.997   1.076   1.081   1.123   1.129   1.209
  1.260   1.338   1.362   1.430   1.606   1.635   1.684   1.685
  1.817   1.878   1.908   1.952   2.030   2.051   2.073   2.087
  2.109   2.125   2.146   2.198   2.255   2.308   2.395   2.433
  2.501   2.533   2.555   2.576   2.605   2.628   2.629   2.719
  2.747   2.793   2.828   2.922   3.237   3.366   3.433   3.476
  3.977   3.981   4.177   4.190   4.326   4.535
 --------------------------------------------------------------
 
          Ground-State Mulliken Net Atomic Charges

     Atom                 Charge (a.u.)    Spin (a.u.)
  --------------------------------------------------------
      1 S                    -0.036137      -0.000000
      2 S                     0.028442       0.000000
      3 C                    -0.043105      -0.000000
      4 C                    -0.358301       0.000000
      5 C                    -0.235397      -0.000000
      6 H                    -0.008333       0.000000
      7 H                     0.116076      -0.000000
      8 H                     0.137419       0.000000
      9 H                     0.146977      -0.000000
     10 H                     0.129324      -0.000000
     11 H                     0.062989       0.000000
     12 H                     0.051738       0.000000
     13 H                     0.008309      -0.000000
  --------------------------------------------------------
  Sum of atomic charges =    -0.000000
  Sum of spin   charges =    -0.000000

 -----------------------------------------------------------------
                    Cartesian Multipole Moments
 -----------------------------------------------------------------
    Charge (ESU x 10^10)
                 0.0000
    Dipole Moment (Debye)
         X       0.3344      Y      -2.1483      Z      -1.3663
       Tot       2.5678
    Quadrupole Moments (Debye-Ang)
        XX     -42.1011     XY       1.7777     YY     -44.1539
        XZ      -2.4914     YZ       0.0630     ZZ     -51.7448
    Octopole Moments (Debye-Ang^2)
       XXX       2.3795    XXY      -4.4154    XYY      -8.8772
       YYY      35.5512    XXZ     -10.0810    XYZ       0.3103
       YYZ      -7.2709    XZZ      -0.7560    YZZ      16.9270
       ZZZ     -21.8623
    Hexadecapole Moments (Debye-Ang^3)
      XXXX   -1111.4171   XXXY      27.0361   XXYY    -244.9687
      XYYY      18.1291   YYYY    -244.5643   XXXZ    -108.2231
      XXYZ      -5.6595   XYYZ     -42.2155   YYYZ     -38.8759
      XXZZ    -259.6668   XYZZ       7.0625   YYZZ     -85.0738
      XZZZ    -141.4778   YZZZ     -37.0324   ZZZZ    -235.8818
 -----------------------------------------------------------------
 Calculating analytic gradient of the SCF energy
 Gradient of SCF Energy
            1           2           3           4           5           6
    1  -0.0001426   0.0007655   0.0014605  -0.0000488  -0.0021002  -0.0014811
    2  -0.0000209  -0.0018114  -0.0005358  -0.0000706  -0.0013302  -0.0016473
    3   0.0000352  -0.0002300   0.0002155  -0.0004598   0.0012784  -0.0000989
            7           8           9          10          11          12
    1   0.0011931  -0.0000501   0.0000613  -0.0002426  -0.0008891  -0.0000376
    2   0.0032457  -0.0000012   0.0000173  -0.0000046   0.0005030   0.0000154
    3  -0.0009166  -0.0000144   0.0000420   0.0002357  -0.0001203  -0.0000641
           13
    1   0.0015115
    2   0.0016406
    3   0.0000974
 Max gradient component =       3.246E-03
 RMS gradient           =       9.914E-04
 Gradient time:  CPU 10.41 s  wall 0.92 s
 Geometry Optimization Parameters
   NAtoms,    NIC,     NZ,  NCons,   NDum,   NFix, NCnnct, MaxDiis
       13      93       0       1       0       0       0       0

 Cartesian Hessian Update
 Hessian Updated using BFGS Update


** CONSTRAINED OPTIMIZATION IN DELOCALIZED INTERNAL COORDINATES **
   Searching for a Minimum

   Optimization Cycle:   2

                       Coordinates (Angstroms)
     ATOM                X               Y               Z
      1  S         2.4055083035   -0.0407091801    1.1299763392
      2  S        -2.5503712725   -0.3010567650   -0.3823566882
      3  C         0.1987602851   -0.3107325246   -0.4993148239
      4  C         1.5631007778   -0.8912591836   -0.2991485405
      5  C        -0.9217349266   -0.9919916087   -0.2239105537
      6  H        -1.2468323187    3.1800788180    1.5438015606
      7  H         0.1591448550    0.7177671131   -0.8671585012
      8  H         1.5072091148   -1.9632972764   -0.0954842642
      9  H         2.1825262412   -0.7314301337   -1.1864040905
     10  H        -0.8761877674   -2.0070250850    0.1618031468
     11  H        -3.2256900360   -1.4636129836   -0.4523474579
     12  H         3.6642489377   -0.4120650633    0.8171832157
     13  H        -1.7514781939    2.6389378729    1.5322636577
   Point Group: c1    Number of degrees of freedom:    33


   Energy is   -915.467322886

              Constraints and their Current Values
                                        Value     Constraint
   Distance(Angs):        2  13             3.598273     3.600000
 Hessian Updated using BFGS Update

   Using Lagrange Multiplier Algorithm


 34 Hessian modes will be used to form the next step
  Hessian Eigenvalues:
    -0.997832    0.035828    0.158467    0.158474    0.158554    0.159182
     0.159969    0.166704    0.197029    0.222386    0.305557    0.332883
     0.345535    0.428290    0.441549    0.507313    0.533618    0.563425
     0.564907    0.642213    0.745365    0.762318    0.779608    0.905232
     0.912994    0.945265    1.001749    1.154507    1.210529    1.211911
     1.215293    1.239070    1.322250    2.021950

 Minimum Search - Taking P-RFO Step
 Searching for Lamda that Maximizes Along the Constraint modes Only
 Value Taken    Lamda =   0.00000067
 Searching for Lamda that Minimizes Along All other modes
 Value Taken    Lamda =  -0.00005632
 Step Taken.  Stepsize is  0.010800

                             Maximum     Tolerance    Cnvgd?
         Gradient            0.004366       0.000300      NO
         Displacement        0.006045       0.001200      NO
         Energy change      0.000091       0.000001      NO


 New Cartesian Coordinates Obtained by Inverse Iteration

 Displacement from previous Coordinates is:  0.009879
 ----------------------------------------------------------------
             Standard Nuclear Orientation (Angstroms)
    I     Atom           X                Y                Z
 ----------------------------------------------------------------
    1      S       2.4054331147    -0.0403514601     1.1296887991
    2      S      -2.5502286450    -0.3005755310    -0.3822210690
    3      C       0.1984629205    -0.3115969359    -0.4997004903
    4      C       1.5630012275    -0.8917044700    -0.2990392789
    5      C      -0.9216913959    -0.9922602962    -0.2247468051
    6      H      -1.2469796652     3.1824189135     1.5448128837
    7      H       0.1579862171     0.7158734574    -0.8674470889
    8      H       1.5074404693    -1.9636746634    -0.0949383691
    9      H       2.1823401034    -0.7320938955    -1.1863935988
   10      H      -0.8760111830    -2.0074920300     0.1603490630
   11      H      -3.2238635781    -1.4640758221    -0.4526524524
   12      H       3.6643188570    -0.4116364468     0.8173474867
   13      H      -1.7520044422     2.6407731802     1.5338439200
 ----------------------------------------------------------------
 Nuclear Repulsion Energy =   261.0576435901 hartrees
 There are       29 alpha and       29 beta electrons

                       Distance Matrix (Angstroms)
             S (  1)   S (  2)   C (  3)   C (  4)   C (  5)   H (  6)
   S (  2)  5.187694
   C (  3)  2.756665  2.751223
   C (  4)  1.864338  4.156322  1.496247
   C (  5)  3.716232  1.776333  1.339271  2.487836
   H (  6)  4.888629  4.188457  4.298545  5.281502  4.545888
   H (  7)  3.100233  2.933094  1.092049  2.209403  2.120492  3.725154
   H (  8)  2.450566  4.394668  2.146303  1.092641  2.619385  6.062829
   H (  9)  2.427450  4.819762  2.141059  1.093825  3.259979  5.877341
   H ( 10)  3.946788  2.451724  2.113343  2.721176  1.086775  5.384193
   H ( 11)  6.018287  1.346283  3.611473  4.823410  2.361048  5.430272
   H ( 12)  1.349149  6.330237  3.709013  2.427410  4.738626  6.129216
   H ( 13)  4.963472  3.600000  4.081190  5.179490  4.120800  0.740642
             H (  7)   H (  8)   H (  9)   H ( 10)   H ( 11)   H ( 12)
   H (  8)  3.098028
   H (  9)  2.509252  1.778639
   H ( 10)  3.089051  2.397485  3.576852
   H ( 11)  4.044891  4.771037  5.504654  2.486661
   H ( 12)  4.050207  2.809486  2.512754  4.857262  7.082908
   H ( 13)  3.622085  5.871784  5.852776  4.925467  4.791902  6.258365

 
 Applying Cartesian multipole field
    Component          Value
    ---------          -----
     (2,0,0)        1.00000E-11
     (0,2,0)        2.00000E-11
     (0,0,2)       -3.00000E-11
 Nucleus-field energy     =     0.0000000084 hartrees
 Requested basis set is 6-31G(d,p)
 There are 46 shells and 123 basis functions
 A cutoff of  1.0D-14 yielded    938 shell pairs
 There are      6976 function pairs
 Smallest overlap matrix eigenvalue = 3.99E-03
 Guess from superposition of atomic densities
 Warning:  Energy on first SCF cycle will be non-variational
 SAD guess density has 58.000000 electrons

 -----------------------------------------------------------------------
  General SCF calculation program by
  Eric Jon Sundstrom, Paul Horn, Yuezhi Mao, Dmitri Zuev, Alec White,
  David Stuck, Shaama M.S., Shane Yost, Joonho Lee, David Small,
  Daniel Levine, Susi Lehtola, Hugh Burton, Evgeny Epifanovsky
 -----------------------------------------------------------------------
 Exchange:     0.2000 Hartree-Fock + 0.0800 Slater + 0.7200 B88
 Correlation:  0.1900 VWN1RPA + 0.8100 LYP
 Using SG-1 standard quadrature grid
 using 12 threads for integral computing
 -------------------------------------------------------
 OpenMP Integral computing Module                
 Release: version 1.0, May 2013, Q-Chem Inc. Pittsburgh 
 -------------------------------------------------------
 -------------------------------------------------------
 OpenMP BLAS3 based DFT computing Module                
 Release: version 1.0, May 2013, Q-Chem Inc. Pittsburgh 
 -------------------------------------------------------
 A unrestricted SCF calculation will be
 performed using DIIS
 SCF converges when DIIS error is below 1.0e-06
 Alpha HF Exchange    Energy =  -6.83782763984787
 Beta HF Exchange     Energy =  -6.83782763984787
 DFT Correlation      Energy =  -2.69773688470045
 DFT Exchange         Energy = -53.84215908371593
 One-Electron (alpha) Energy = -886.95139560841926
 One-Electron (beta)  Energy = -886.95139560841926
 Total Coulomb        Energy = 667.09950577306574
 ---------------------------------------
  Cycle       Energy         DIIS error
 ---------------------------------------
    1    -915.9611930933      2.78e-02  
 Alpha HF Exchange    Energy =  -6.85597689278122
 Beta HF Exchange     Energy =  -6.85597689278122
 DFT Correlation      Energy =  -2.72510084334338
 DFT Exchange         Energy = -54.42039858568418
 One-Electron (alpha) Energy = -890.71961874122769
 One-Electron (beta)  Energy = -890.71961874122712
 Total Coulomb        Energy = 675.83482326276908
    2    -915.4042238357      2.66e-03  
 Alpha HF Exchange    Energy =  -6.80917048018615
 Beta HF Exchange     Energy =  -6.80917048018614
 DFT Correlation      Energy =  -2.70275786592023
 DFT Exchange         Energy = -54.01508125197471
 One-Electron (alpha) Energy = -886.97923837405301
 One-Electron (beta)  Energy = -886.97923837405278
 Total Coulomb        Energy = 667.86416013712790
    3    -915.3728530907      3.28e-03  
 Alpha HF Exchange    Energy =  -6.82844848494521
 Beta HF Exchange     Energy =  -6.82844848494521
 DFT Correlation      Energy =  -2.71316775589560
 DFT Exchange         Energy = -54.18213332536769
 One-Electron (alpha) Energy = -888.74148125349257
 One-Electron (beta)  Energy = -888.74148125349234
 Total Coulomb        Energy = 671.51310623254926
    4    -915.4644107270      5.77e-04  
 Alpha HF Exchange    Energy =  -6.83138528920438
 Beta HF Exchange     Energy =  -6.83138528920438
 DFT Correlation      Energy =  -2.71396038506327
 DFT Exchange         Energy = -54.20498645678689
 One-Electron (alpha) Energy = -888.92411138361251
 One-Electron (beta)  Energy = -888.92411138361217
 Total Coulomb        Energy = 671.90541751481953
    5    -915.4668790741      2.41e-04  
 Alpha HF Exchange    Energy =  -6.83105701322413
 Beta HF Exchange     Energy =  -6.83105701322414
 DFT Correlation      Energy =  -2.71374789105420
 DFT Exchange         Energy = -54.20188609710463
 One-Electron (alpha) Energy = -888.87690055121709
 One-Electron (beta)  Energy = -888.87690055121720
 Total Coulomb        Energy = 671.80661729402664
    6    -915.4672882245      8.14e-05  
 Alpha HF Exchange    Energy =  -6.83075054478551
 Beta HF Exchange     Energy =  -6.83075054478550
 DFT Correlation      Energy =  -2.71367166193269
 DFT Exchange         Energy = -54.19953523288661
 One-Electron (alpha) Energy = -888.85469317286800
 One-Electron (beta)  Energy = -888.85469317286766
 Total Coulomb        Energy = 671.75910795194864
    7    -915.4673427796      1.43e-05  
 Alpha HF Exchange    Energy =  -6.83083031628123
 Beta HF Exchange     Energy =  -6.83083031628123
 DFT Correlation      Energy =  -2.71370032635152
 DFT Exchange         Energy = -54.20013306475710
 One-Electron (alpha) Energy = -888.86418653557280
 One-Electron (beta)  Energy = -888.86418653557280
 Total Coulomb        Energy = 671.77887904722570
    8    -915.4673444490      3.36e-06  
 Alpha HF Exchange    Energy =  -6.83083017384078
 Beta HF Exchange     Energy =  -6.83083017384079
 DFT Correlation      Energy =  -2.71370044117598
 DFT Exchange         Energy = -54.20013013957927
 One-Electron (alpha) Energy = -888.86372431960092
 One-Electron (beta)  Energy = -888.86372431960160
 Total Coulomb        Energy = 671.77795143101207
    9    -915.4673445381      9.84e-07  Convergence criterion met
 ---------------------------------------
 SCF time:   CPU 26.41s  wall 2.00s 
<S^2> =         -0.000000000
 Alpha HF Exchange    Energy =  -6.83083017384078
 Beta HF Exchange     Energy =  -6.83083017384079
 DFT Correlation      Energy =  -2.71370044117598
 DFT Exchange         Energy = -54.20013013957927
 One-Electron (alpha) Energy = -888.86372431960092
 One-Electron (beta)  Energy = -888.86372431960160
 Total Coulomb        Energy = 671.77795143101207
 Nuclear repulsion Energy = 261.05764359854396
 SCF   energy in the final basis set =     -915.4673445381
 Total energy in the final basis set =     -915.4673445381
 
 --------------------------------------------------------------
 
                    Orbital Energies (a.u.)
 --------------------------------------------------------------
 
 Alpha MOs
 -- Occupied --
-88.895 -88.876 -10.231 -10.230 -10.204  -7.957  -7.938  -5.922
 -5.918  -5.912  -5.903  -5.899  -5.892  -0.831  -0.783  -0.716
 -0.639  -0.566  -0.480  -0.461  -0.443  -0.423  -0.391  -0.389
 -0.348  -0.337  -0.313  -0.240  -0.226
 -- Virtual --
 -0.008   0.017   0.026   0.066   0.088   0.104   0.116   0.129
  0.160   0.174   0.251   0.287   0.317   0.345   0.352   0.367
  0.371   0.384   0.387   0.416   0.490   0.521   0.550   0.588
  0.604   0.616   0.632   0.647   0.719   0.727   0.732   0.744
  0.791   0.799   0.808   0.835   0.853   0.874   0.887   0.896
  0.950   0.985   0.997   1.076   1.081   1.123   1.129   1.209
  1.261   1.338   1.362   1.430   1.606   1.635   1.684   1.685
  1.817   1.878   1.908   1.952   2.030   2.051   2.073   2.087
  2.109   2.126   2.146   2.198   2.255   2.309   2.394   2.433
  2.501   2.534   2.556   2.576   2.605   2.628   2.629   2.720
  2.747   2.793   2.829   2.923   3.237   3.367   3.433   3.477
  3.977   3.981   4.174   4.190   4.326   4.535
 
 Beta MOs
 -- Occupied --
-88.895 -88.876 -10.231 -10.230 -10.204  -7.957  -7.938  -5.922
 -5.918  -5.912  -5.903  -5.899  -5.892  -0.831  -0.783  -0.716
 -0.639  -0.566  -0.480  -0.461  -0.443  -0.423  -0.391  -0.389
 -0.348  -0.337  -0.313  -0.240  -0.226
 -- Virtual --
 -0.008   0.017   0.026   0.066   0.088   0.104   0.116   0.129
  0.160   0.174   0.251   0.287   0.317   0.345   0.352   0.367
  0.371   0.384   0.387   0.416   0.490   0.521   0.550   0.588
  0.604   0.616   0.632   0.647   0.719   0.727   0.732   0.744
  0.791   0.799   0.808   0.835   0.853   0.874   0.887   0.896
  0.950   0.985   0.997   1.076   1.081   1.123   1.129   1.209
  1.261   1.338   1.362   1.430   1.606   1.635   1.684   1.685
  1.817   1.878   1.908   1.952   2.030   2.051   2.073   2.087
  2.109   2.126   2.146   2.198   2.255   2.309   2.394   2.433
  2.501   2.534   2.556   2.576   2.605   2.628   2.629   2.720
  2.747   2.793   2.829   2.923   3.237   3.367   3.433   3.477
  3.977   3.981   4.174   4.190   4.326   4.535
 --------------------------------------------------------------
 
          Ground-State Mulliken Net Atomic Charges

     Atom                 Charge (a.u.)    Spin (a.u.)
  --------------------------------------------------------
      1 S                    -0.036160       0.000000
      2 S                     0.028551       0.000000
      3 C                    -0.042962       0.000000
      4 C                    -0.358346       0.000000
      5 C                    -0.235386      -0.000000
      6 H                    -0.008297      -0.000000
      7 H                     0.115999       0.000000
      8 H                     0.137407      -0.000000
      9 H                     0.146962      -0.000000
     10 H                     0.129200      -0.000000
     11 H                     0.062988       0.000000
     12 H                     0.051767      -0.000000
     13 H                     0.008277       0.000000
  --------------------------------------------------------
  Sum of atomic charges =    -0.000000
  Sum of spin   charges =     0.000000

 -----------------------------------------------------------------
                    Cartesian Multipole Moments
 -----------------------------------------------------------------
    Charge (ESU x 10^10)
                -0.0000
    Dipole Moment (Debye)
         X       0.3351      Y      -2.1476      Z      -1.3666
       Tot       2.5675
    Quadrupole Moments (Debye-Ang)
        XX     -42.1041     XY       1.7703     YY     -44.1529
        XZ      -2.4869     YZ       0.0661     ZZ     -51.7434
    Octopole Moments (Debye-Ang^2)
       XXX       2.4303    XXY      -4.3991    XYY      -8.8705
       YYY      35.5339    XXZ     -10.0644    XYZ       0.3075
       YYZ      -7.2675    XZZ      -0.7541    YZZ      16.9187
       ZZZ     -21.8523
    Hexadecapole Moments (Debye-Ang^3)
      XXXX   -1111.4007   XXXY      27.0117   XXYY    -244.9934
      XYYY      18.1903   YYYY    -244.7441   XXXZ    -108.1777
      XXYZ      -5.6841   XYYZ     -42.1827   YYYZ     -38.9535
      XXZZ    -259.6441   XYZZ       7.0833   YYZZ     -85.1163
      XZZZ    -141.4378   YZZZ     -37.1287   ZZZZ    -235.9046
 -----------------------------------------------------------------
 Calculating analytic gradient of the SCF energy
 Gradient of SCF Energy
            1           2           3           4           5           6
    1  -0.0000980   0.0007023   0.0009007  -0.0000583  -0.0016409  -0.0011728
    2  -0.0000265  -0.0015845  -0.0004133  -0.0000894  -0.0009840  -0.0013165
    3   0.0000340  -0.0002201   0.0001500  -0.0003860   0.0010748  -0.0000900
            7           8           9          10          11          12
    1   0.0010816  -0.0000362   0.0000463  -0.0001533  -0.0007574  -0.0000174
    2   0.0026158  -0.0000019   0.0000228   0.0000165   0.0004248   0.0000267
    3  -0.0007191  -0.0000184   0.0000385   0.0001901  -0.0001004  -0.0000415
           13
    1   0.0012034
    2   0.0013096
    3   0.0000882
 Max gradient component =       2.616E-03
 RMS gradient           =       7.957E-04
 Gradient time:  CPU 10.40 s  wall 0.92 s
 Geometry Optimization Parameters
   NAtoms,    NIC,     NZ,  NCons,   NDum,   NFix, NCnnct, MaxDiis
       13      93       0       1       0       0       0       0

 Cartesian Hessian Update
 Hessian Updated using BFGS Update


** CONSTRAINED OPTIMIZATION IN DELOCALIZED INTERNAL COORDINATES **
   Searching for a Minimum

   Optimization Cycle:   3

                       Coordinates (Angstroms)
     ATOM                X               Y               Z
      1  S         2.4054331147   -0.0403514601    1.1296887991
      2  S        -2.5502286450   -0.3005755310   -0.3822210690
      3  C         0.1984629205   -0.3115969359   -0.4997004903
      4  C         1.5630012275   -0.8917044700   -0.2990392789
      5  C        -0.9216913959   -0.9922602962   -0.2247468051
      6  H        -1.2469796652    3.1824189135    1.5448128837
      7  H         0.1579862171    0.7158734574   -0.8674470889
      8  H         1.5074404693   -1.9636746634   -0.0949383691
      9  H         2.1823401034   -0.7320938955   -1.1863935988
     10  H        -0.8760111830   -2.0074920300    0.1603490630
     11  H        -3.2238635781   -1.4640758221   -0.4526524524
     12  H         3.6643188570   -0.4116364468    0.8173474867
     13  H        -1.7520044422    2.6407731802    1.5338439200
   Point Group: c1    Number of degrees of freedom:    33


   Energy is   -915.467344538

              Constraints and their Current Values
                                        Value     Constraint
   Distance(Angs):        2  13             3.600000     3.600000
 Hessian Updated using BFGS Update

 32 Hessian modes will be used to form the next step
  Hessian Eigenvalues:
     0.023474    0.104742    0.158474    0.158519    0.158610    0.159925
     0.161497    0.182083    0.201998    0.305349    0.332330    0.334633
     0.404144    0.436353    0.441550    0.507378    0.563161    0.565065
     0.632985    0.735362    0.762460    0.779167    0.905243    0.912985
     0.940527    1.014876    1.154572    1.210536    1.215287    1.239122
     1.275035    1.846570

 Minimum Search - Taking Simple RFO Step
 Searching for Lamda that Minimizes Along All modes
 Value Taken    Lamda =  -0.00010060
 Step Taken.  Stepsize is  0.049437

                             Maximum     Tolerance    Cnvgd?
         Gradient           0.002237      0.000300      NO
         Displacement       0.028779      0.001200      NO
         Energy change     -0.000022      0.000001      NO


 New Cartesian Coordinates Obtained by Inverse Iteration

 Displacement from previous Coordinates is:  0.045739
 ----------------------------------------------------------------
             Standard Nuclear Orientation (Angstroms)
    I     Atom           X                Y                Z
 ----------------------------------------------------------------
    1      S       2.4060636508    -0.0381312954     1.1274918545
    2      S      -2.5486792447    -0.2945946075    -0.3799938725
    3      C       0.1982893689    -0.3159792176    -0.5017786067
    4      C       1.5635414736    -0.8943270505    -0.2985707941
    5      C      -0.9212463290    -0.9925069711    -0.2284881454
    6      H      -1.2510513412     3.1903986642     1.5491220112
    7      H       0.1531829772     0.7064698386    -0.8696900177
    8      H       1.5091514911    -1.9657609930    -0.0914129867
    9      H       2.1825697341    -0.7367653612    -1.1865175146
   10      H      -0.8768422016    -2.0087597514     0.1538313712
   11      H      -3.2146818060    -1.4623316887    -0.4523785978
   12      H       3.6652812527    -0.4101335623     0.8172334056
   13      H      -1.7573750260     2.6460259959     1.5400548929
 ----------------------------------------------------------------
 Nuclear Repulsion Energy =   261.0925581782 hartrees
 There are       29 alpha and       29 beta electrons

                       Distance Matrix (Angstroms)
             S (  1)   S (  2)   C (  3)   C (  4)   C (  5)   H (  6)
   S (  2)  5.185341
   C (  3)  2.757896  2.749750
   C (  4)  1.864556  4.156521  1.496560
   C (  5)  3.717594  1.777238  1.336315  2.487714
   H (  6)  4.896495  4.189332  4.312942  5.293476  4.556903
   H (  7)  3.101393  2.922669  1.087564  2.208583  2.109991  3.740645
   H (  8)  2.450701  4.397962  2.146751  1.092631  2.621611  6.074212
   H (  9)  2.427484  4.819825  2.140864  1.093833  3.258358  5.890339
   H ( 10)  3.950805  2.453237  2.109796  2.720680  1.086697  5.396121
   H ( 11)  6.009752  1.346257  3.600686  4.814323  2.351746  5.432288
   H ( 12)  1.349176  6.329298  3.710619  2.428327  4.740140  6.137574
   H ( 13)  4.970828  3.600000  4.094775  5.190677  4.131075  0.743497
             H (  7)   H (  8)   H (  9)   H ( 10)   H ( 11)   H ( 12)
   H (  8)  3.095995
   H (  9)  2.510322  1.778532
   H ( 10)  3.079126  2.398950  3.574144
   H ( 11)  4.027451  4.764277  5.495064  2.476200
   H ( 12)  4.053067  2.809717  2.513989  4.860719  7.074809
   H ( 13)  3.635792  5.882216  5.865206  4.935989  4.792926  6.266401

 
 Applying Cartesian multipole field
    Component          Value
    ---------          -----
     (2,0,0)        1.00000E-11
     (0,2,0)        2.00000E-11
     (0,0,2)       -3.00000E-11
 Nucleus-field energy     =     0.0000000084 hartrees
 Requested basis set is 6-31G(d,p)
 There are 46 shells and 123 basis functions
 A cutoff of  1.0D-14 yielded    938 shell pairs
 There are      6976 function pairs
 Smallest overlap matrix eigenvalue = 3.96E-03
 Guess from superposition of atomic densities
 Warning:  Energy on first SCF cycle will be non-variational
 SAD guess density has 58.000000 electrons

 -----------------------------------------------------------------------
  General SCF calculation program by
  Eric Jon Sundstrom, Paul Horn, Yuezhi Mao, Dmitri Zuev, Alec White,
  David Stuck, Shaama M.S., Shane Yost, Joonho Lee, David Small,
  Daniel Levine, Susi Lehtola, Hugh Burton, Evgeny Epifanovsky
 -----------------------------------------------------------------------
 Exchange:     0.2000 Hartree-Fock + 0.0800 Slater + 0.7200 B88
 Correlation:  0.1900 VWN1RPA + 0.8100 LYP
 Using SG-1 standard quadrature grid
 using 12 threads for integral computing
 -------------------------------------------------------
 OpenMP Integral computing Module                
 Release: version 1.0, May 2013, Q-Chem Inc. Pittsburgh 
 -------------------------------------------------------
 -------------------------------------------------------
 OpenMP BLAS3 based DFT computing Module                
 Release: version 1.0, May 2013, Q-Chem Inc. Pittsburgh 
 -------------------------------------------------------
 A unrestricted SCF calculation will be
 performed using DIIS
 SCF converges when DIIS error is below 1.0e-06
 Alpha HF Exchange    Energy =  -6.83833510523317
 Beta HF Exchange     Energy =  -6.83833510523317
 DFT Correlation      Energy =  -2.69783273611541
 DFT Exchange         Energy = -53.84318112165994
 One-Electron (alpha) Energy = -886.98310933237428
 One-Electron (beta)  Energy = -886.98310933237428
 Total Coulomb        Energy = 667.12537376162197
 ---------------------------------------
  Cycle       Energy         DIIS error
 ---------------------------------------
    1    -915.9659707848      2.79e-02  
 Alpha HF Exchange    Energy =  -6.85628885715994
 Beta HF Exchange     Energy =  -6.85628885715993
 DFT Correlation      Energy =  -2.72523800168004
 DFT Exchange         Energy = -54.42262225750661
 One-Electron (alpha) Energy = -890.75649930326529
 One-Electron (beta)  Energy = -890.75649930326495
 Total Coulomb        Energy = 675.87711437412793
    2    -915.4037640193      2.68e-03  
 Alpha HF Exchange    Energy =  -6.80938650563301
 Beta HF Exchange     Energy =  -6.80938650563301
 DFT Correlation      Energy =  -2.70286461234072
 DFT Exchange         Energy = -54.01652747307558
 One-Electron (alpha) Energy = -887.01290904160828
 One-Electron (beta)  Energy = -887.01290904160862
 Total Coulomb        Energy = 667.89911592240560
    3    -915.3723090709      3.29e-03  
 Alpha HF Exchange    Energy =  -6.82869989572972
 Beta HF Exchange     Energy =  -6.82869989572971
 DFT Correlation      Energy =  -2.71328517251754
 DFT Exchange         Energy = -54.18384748153022
 One-Electron (alpha) Energy = -888.77586785686617
 One-Electron (beta)  Energy = -888.77586785686583
 Total Coulomb        Energy = 671.54921707062874
    4    -915.4644929020      5.74e-04  
 Alpha HF Exchange    Energy =  -6.83163843679129
 Beta HF Exchange     Energy =  -6.83163843679130
 DFT Correlation      Energy =  -2.71407651566351
 DFT Exchange         Energy = -54.20671227916258
 One-Electron (alpha) Energy = -888.95827854009110
 One-Electron (beta)  Energy = -888.95827854009133
 Total Coulomb        Energy = 671.94112907043075
    5    -915.4669354916      2.39e-04  
 Alpha HF Exchange    Energy =  -6.83130552999927
 Beta HF Exchange     Energy =  -6.83130552999927
 DFT Correlation      Energy =  -2.71386427089939
 DFT Exchange         Energy = -54.20358076799193
 One-Electron (alpha) Energy = -888.91093692237098
 One-Electron (beta)  Energy = -888.91093692237109
 Total Coulomb        Energy = 671.84203184914668
    6    -915.4673399079      8.14e-05  
 Alpha HF Exchange    Energy =  -6.83100140551939
 Beta HF Exchange     Energy =  -6.83100140551938
 DFT Correlation      Energy =  -2.71378873807649
 DFT Exchange         Energy = -54.20124746050688
 One-Electron (alpha) Energy = -888.88896458134718
 One-Electron (beta)  Energy = -888.88896458134730
 Total Coulomb        Energy = 671.79501561065047
    7    -915.4673943751      1.43e-05  
 Alpha HF Exchange    Energy =  -6.83108023159331
 Beta HF Exchange     Energy =  -6.83108023159330
 DFT Correlation      Energy =  -2.71381696015403
 DFT Exchange         Energy = -54.20183766200822
 One-Electron (alpha) Energy = -888.89836369972579
 One-Electron (beta)  Energy = -888.89836369972522
 Total Coulomb        Energy = 671.81458824077015
    8    -915.4673960574      3.39e-06  
 Alpha HF Exchange    Energy =  -6.83108057416973
 Beta HF Exchange     Energy =  -6.83108057416973
 DFT Correlation      Energy =  -2.71381729671869
 DFT Exchange         Energy = -54.20183876530993
 One-Electron (alpha) Energy = -888.89794914284573
 One-Electron (beta)  Energy = -888.89794914284619
 Total Coulomb        Energy = 671.81376116188812
    9    -915.4673961476      9.90e-07  Convergence criterion met
 ---------------------------------------
 SCF time:   CPU 26.86s  wall 2.00s 
<S^2> =         -0.000000000
 Alpha HF Exchange    Energy =  -6.83108057416973
 Beta HF Exchange     Energy =  -6.83108057416973
 DFT Correlation      Energy =  -2.71381729671869
 DFT Exchange         Energy = -54.20183876530993
 One-Electron (alpha) Energy = -888.89794914284573
 One-Electron (beta)  Energy = -888.89794914284619
 Total Coulomb        Energy = 671.81376116188812
 Nuclear repulsion Energy = 261.09255818659994
 SCF   energy in the final basis set =     -915.4673961476
 Total energy in the final basis set =     -915.4673961476
 
 --------------------------------------------------------------
 
                    Orbital Energies (a.u.)
 --------------------------------------------------------------
 
 Alpha MOs
 -- Occupied --
-88.895 -88.876 -10.231 -10.229 -10.204  -7.957  -7.938  -5.922
 -5.919  -5.912  -5.903  -5.899  -5.892  -0.831  -0.783  -0.716
 -0.639  -0.566  -0.479  -0.461  -0.443  -0.422  -0.391  -0.389
 -0.348  -0.337  -0.313  -0.240  -0.227
 -- Virtual --
 -0.008   0.017   0.026   0.066   0.088   0.103   0.116   0.130
  0.161   0.175   0.251   0.287   0.316   0.346   0.352   0.367
  0.371   0.384   0.387   0.416   0.489   0.521   0.550   0.588
  0.604   0.616   0.632   0.648   0.720   0.727   0.733   0.744
  0.792   0.800   0.809   0.835   0.855   0.874   0.887   0.896
  0.950   0.985   0.998   1.074   1.081   1.123   1.129   1.210
  1.264   1.339   1.362   1.430   1.606   1.635   1.684   1.686
  1.815   1.881   1.908   1.954   2.030   2.051   2.073   2.087
  2.110   2.129   2.147   2.199   2.257   2.309   2.388   2.433
  2.502   2.537   2.559   2.576   2.607   2.624   2.625   2.721
  2.747   2.794   2.835   2.926   3.237   3.374   3.434   3.481
  3.977   3.981   4.160   4.190   4.326   4.536
 
 Beta MOs
 -- Occupied --
-88.895 -88.876 -10.231 -10.229 -10.204  -7.957  -7.938  -5.922
 -5.919  -5.912  -5.903  -5.899  -5.892  -0.831  -0.783  -0.716
 -0.639  -0.566  -0.479  -0.461  -0.443  -0.422  -0.391  -0.389
 -0.348  -0.337  -0.313  -0.240  -0.227
 -- Virtual --
 -0.008   0.017   0.026   0.066   0.088   0.103   0.116   0.130
  0.161   0.175   0.251   0.287   0.316   0.346   0.352   0.367
  0.371   0.384   0.387   0.416   0.489   0.521   0.550   0.588
  0.604   0.616   0.632   0.648   0.720   0.727   0.733   0.744
  0.792   0.800   0.809   0.835   0.855   0.874   0.887   0.896
  0.950   0.985   0.998   1.074   1.081   1.123   1.129   1.210
  1.264   1.339   1.362   1.430   1.606   1.635   1.684   1.686
  1.815   1.881   1.908   1.954   2.030   2.051   2.073   2.087
  2.110   2.129   2.147   2.199   2.257   2.309   2.388   2.433
  2.502   2.537   2.559   2.576   2.607   2.624   2.625   2.721
  2.747   2.794   2.835   2.926   3.237   3.374   3.434   3.481
  3.977   3.981   4.160   4.190   4.326   4.536
 --------------------------------------------------------------
 
          Ground-State Mulliken Net Atomic Charges

     Atom                 Charge (a.u.)    Spin (a.u.)
  --------------------------------------------------------
      1 S                    -0.036094       0.000000
      2 S                     0.029143       0.000000
      3 C                    -0.042329       0.000000
      4 C                    -0.358570      -0.000000
      5 C                    -0.235467      -0.000000
      6 H                    -0.008211       0.000000
      7 H                     0.115588       0.000000
      8 H                     0.137388      -0.000000
      9 H                     0.146906      -0.000000
     10 H                     0.128586       0.000000
     11 H                     0.062968       0.000000
     12 H                     0.051893      -0.000000
     13 H                     0.008200      -0.000000
  --------------------------------------------------------
  Sum of atomic charges =    -0.000000
  Sum of spin   charges =     0.000000

 -----------------------------------------------------------------
                    Cartesian Multipole Moments
 -----------------------------------------------------------------
    Charge (ESU x 10^10)
                -0.0000
    Dipole Moment (Debye)
         X       0.3377      Y      -2.1456      Z      -1.3665
       Tot       2.5661
    Quadrupole Moments (Debye-Ang)
        XX     -42.1115     XY       1.7265     YY     -44.1572
        XZ      -2.4661     YZ       0.0784     ZZ     -51.7351
    Octopole Moments (Debye-Ang^2)
       XXX       2.5645    XXY      -4.3723    XYY      -8.8395
       YYY      35.3210    XXZ      -9.9874    XYZ       0.3058
       YYZ      -7.2448    XZZ      -0.7701    YZZ      16.8245
       ZZZ     -21.8312
    Hexadecapole Moments (Debye-Ang^3)
      XXXX   -1111.5115   XXXY      27.1813   XXYY    -245.1630
      XYYY      18.8283   YYYY    -245.1976   XXXZ    -107.7742
      XXYZ      -5.8033   XYYZ     -41.9573   YYYZ     -39.2331
      XXZZ    -259.5532   XYZZ       7.3324   YYZZ     -85.1802
      XZZZ    -140.9623   YZZZ     -37.4752   ZZZZ    -235.7238
 -----------------------------------------------------------------
 Calculating analytic gradient of the SCF energy
 Gradient of SCF Energy
            1           2           3           4           5           6
    1   0.0000748   0.0002378  -0.0013593  -0.0000361   0.0003742   0.0002318
    2  -0.0000406  -0.0003536   0.0002108  -0.0001487   0.0005198   0.0001913
    3   0.0000335  -0.0001476  -0.0001443  -0.0000106   0.0000825  -0.0000589
            7           8           9          10          11          12
    1   0.0004375   0.0000271  -0.0000110   0.0002187  -0.0000435   0.0000494
    2  -0.0003723   0.0000004   0.0000421   0.0000734   0.0000115   0.0000640
    3   0.0001948  -0.0000350   0.0000172  -0.0000255   0.0000048   0.0000332
           13
    1  -0.0002014
    2  -0.0001982
    3   0.0000559
 Max gradient component =       1.359E-03
 RMS gradient           =       2.854E-04
 Gradient time:  CPU 10.30 s  wall 0.92 s
 Geometry Optimization Parameters
   NAtoms,    NIC,     NZ,  NCons,   NDum,   NFix, NCnnct, MaxDiis
       13      93       0       1       0       0       0       0

 Cartesian Hessian Update
 Hessian Updated using BFGS Update


** CONSTRAINED OPTIMIZATION IN DELOCALIZED INTERNAL COORDINATES **
   Searching for a Minimum

   Optimization Cycle:   4

                       Coordinates (Angstroms)
     ATOM                X               Y               Z
      1  S         2.4060636508   -0.0381312954    1.1274918545
      2  S        -2.5486792447   -0.2945946075   -0.3799938725
      3  C         0.1982893689   -0.3159792176   -0.5017786067
      4  C         1.5635414736   -0.8943270505   -0.2985707941
      5  C        -0.9212463290   -0.9925069711   -0.2284881454
      6  H        -1.2510513412    3.1903986642    1.5491220112
      7  H         0.1531829772    0.7064698386   -0.8696900177
      8  H         1.5091514911   -1.9657609930   -0.0914129867
      9  H         2.1825697341   -0.7367653612   -1.1865175146
     10  H        -0.8768422016   -2.0087597514    0.1538313712
     11  H        -3.2146818060   -1.4623316887   -0.4523785978
     12  H         3.6652812527   -0.4101335623    0.8172334056
     13  H        -1.7573750260    2.6460259959    1.5400548929
   Point Group: c1    Number of degrees of freedom:    33


   Energy is   -915.467396148

              Constraints and their Current Values
                                        Value     Constraint
   Distance(Angs):        2  13             3.600000     3.600000
 Hessian Updated using BFGS Update

 32 Hessian modes will be used to form the next step
  Hessian Eigenvalues:
     0.021881    0.101730    0.158474    0.158522    0.158651    0.159924
     0.161502    0.183201    0.201569    0.305522    0.332674    0.335613
     0.402037    0.435671    0.441550    0.507415    0.563324    0.567202
     0.633098    0.735366    0.762648    0.779872    0.905252    0.912987
     0.941049    1.065154    1.154791    1.210543    1.215287    1.239231
     1.276837    1.878166

 Minimum Search - Taking Simple RFO Step
 Searching for Lamda that Minimizes Along All modes
 Value Taken    Lamda =  -0.00000223
 Step Taken.  Stepsize is  0.005036

                             Maximum     Tolerance    Cnvgd?
         Gradient           0.000593      0.000300      NO
         Displacement       0.002456      0.001200      NO
         Energy change     -0.000052      0.000001      NO


 New Cartesian Coordinates Obtained by Inverse Iteration

 Displacement from previous Coordinates is:  0.005090
 ----------------------------------------------------------------
             Standard Nuclear Orientation (Angstroms)
    I     Atom           X                Y                Z
 ----------------------------------------------------------------
    1      S       2.4060765932    -0.0376411244     1.1271500005
    2      S      -2.5485737172    -0.2939451031    -0.3797240750
    3      C       0.1986313994    -0.3165637854    -0.5020310241
    4      C       1.5639255690    -0.8946039042    -0.2985896838
    5      C      -0.9212415693    -0.9927796728    -0.2288479059
    6      H      -1.2516888804     3.1910415469     1.5496961064
    7      H       0.1528784457     0.7058196939    -0.8700875608
    8      H       1.5096338980    -1.9659486772    -0.0909400996
    9      H       2.1830283958    -0.7373727632    -1.1865516390
   10      H      -0.8775831580    -2.0091526796     0.1533152008
   11      H      -3.2141902835    -1.4618869293    -0.4523085343
   12      H       3.6652386723    -0.4099542168     0.8170964359
   13      H      -1.7579313650     2.6465916150     1.5407257791
 ----------------------------------------------------------------
 Nuclear Repulsion Energy =   261.0849421875 hartrees
 There are       29 alpha and       29 beta electrons

                       Distance Matrix (Angstroms)
             S (  1)   S (  2)   C (  3)   C (  4)   C (  5)   H (  6)
   S (  2)  5.185067
   C (  3)  2.757688  2.750019
   C (  4)  1.864494  4.156925  1.496512
   C (  5)  3.717804  1.777454  1.336418  2.488083
   H (  6)  4.897161  4.189237  4.314662  5.294936  4.558155
   H (  7)  3.101386  2.921956  1.087578  2.208850  2.109541  3.742257
   H (  8)  2.450658  4.398641  2.146670  1.092632  2.622066  6.075454
   H (  9)  2.427466  4.820338  2.140906  1.093840  3.258669  5.892094
   H ( 10)  3.951915  2.453218  2.110112  2.721654  1.086724  5.397393
   H ( 11)  6.009207  1.346255  3.600221  4.814128  2.351087  5.432235
   H ( 12)  1.349162  6.329084  3.710281  2.427995  4.740199  6.138408
   H ( 13)  4.971430  3.600000  4.096496  5.192098  4.132368  0.743497
             H (  7)   H (  8)   H (  9)   H ( 10)   H ( 11)   H ( 12)
   H (  8)  3.096159
   H (  9)  2.510869  1.778545
   H ( 10)  3.079006  2.400069  3.574914
   H ( 11)  4.026244  4.764366  5.494907  2.475078
   H ( 12)  4.053174  2.809320  2.513714  4.861612  7.074213
   H ( 13)  3.637281  5.883438  5.866892  4.937193  4.792961  6.267127

 
 Applying Cartesian multipole field
    Component          Value
    ---------          -----
     (2,0,0)        1.00000E-11
     (0,2,0)        2.00000E-11
     (0,0,2)       -3.00000E-11
 Nucleus-field energy     =     0.0000000084 hartrees
 Requested basis set is 6-31G(d,p)
 There are 46 shells and 123 basis functions
 A cutoff of  1.0D-14 yielded    938 shell pairs
 There are      6976 function pairs
 Smallest overlap matrix eigenvalue = 3.96E-03
 Guess from superposition of atomic densities
 Warning:  Energy on first SCF cycle will be non-variational
 SAD guess density has 58.000000 electrons

 -----------------------------------------------------------------------
  General SCF calculation program by
  Eric Jon Sundstrom, Paul Horn, Yuezhi Mao, Dmitri Zuev, Alec White,
  David Stuck, Shaama M.S., Shane Yost, Joonho Lee, David Small,
  Daniel Levine, Susi Lehtola, Hugh Burton, Evgeny Epifanovsky
 -----------------------------------------------------------------------
 Exchange:     0.2000 Hartree-Fock + 0.0800 Slater + 0.7200 B88
 Correlation:  0.1900 VWN1RPA + 0.8100 LYP
 Using SG-1 standard quadrature grid
 using 12 threads for integral computing
 -------------------------------------------------------
 OpenMP Integral computing Module                
 Release: version 1.0, May 2013, Q-Chem Inc. Pittsburgh 
 -------------------------------------------------------
 -------------------------------------------------------
 OpenMP BLAS3 based DFT computing Module                
 Release: version 1.0, May 2013, Q-Chem Inc. Pittsburgh 
 -------------------------------------------------------
 A unrestricted SCF calculation will be
 performed using DIIS
 SCF converges when DIIS error is below 1.0e-06
 Alpha HF Exchange    Energy =  -6.83831122469294
 Beta HF Exchange     Energy =  -6.83831122469294
 DFT Correlation      Energy =  -2.69782672868029
 DFT Exchange         Energy = -53.84312966503109
 One-Electron (alpha) Energy = -886.97564464122706
 One-Electron (beta)  Energy = -886.97564464122706
 Total Coulomb        Energy = 667.11819621179268
 ---------------------------------------
  Cycle       Energy         DIIS error
 ---------------------------------------
    1    -915.9657297178      2.79e-02  
 Alpha HF Exchange    Energy =  -6.85627371128686
 Beta HF Exchange     Energy =  -6.85627371128688
 DFT Correlation      Energy =  -2.72523022890012
 DFT Exchange         Energy = -54.42251488157547
 One-Electron (alpha) Energy = -890.74859504259837
 One-Electron (beta)  Energy = -890.74859504259939
 Total Coulomb        Energy = 675.86875916894201
    2    -915.4037812534      2.68e-03  
 Alpha HF Exchange    Energy =  -6.80937971388014
 Beta HF Exchange     Energy =  -6.80937971388014
 DFT Correlation      Energy =  -2.70285996213174
 DFT Exchange         Energy = -54.01648367614985
[...]
    2      S      -2.5480849741    -0.2915063371    -0.3787076722
    3      C       0.2002993036    -0.3189117402    -0.5030489678
    4      C       1.5656770016    -0.8956636867    -0.2987729087
    5      C      -0.9211560191    -0.9940985309    -0.2301438013
    6      H      -1.2544325202     3.1932366054     1.5520982403
    7      H       0.1519173544     0.7037163663    -0.8717976898
    8      H       1.5116690987    -1.9666141531    -0.0889672494
    9      H       2.1851186034    -0.7399287114    -1.1867955122
   10      H      -0.8809414348    -2.0108811134     0.1516481999
   11      H      -3.2130308409    -1.4597724003    -0.4520888256
   12      H       3.6651084155    -0.4092659423     0.8165944020
   13      H      -1.7601345973     2.6487396298     1.5432931132
 ----------------------------------------------------------------
 Nuclear Repulsion Energy =   261.0473387892 hartrees
 There are       29 alpha and       29 beta electrons

                       Distance Matrix (Angstroms)
             S (  1)   S (  2)   C (  3)   C (  4)   C (  5)   H (  6)
   S (  2)  5.183953
   C (  3)  2.756592  2.751332
   C (  4)  1.864205  4.158658  1.496204
   C (  5)  3.718642  1.778371  1.337167  2.489726
   H (  6)  4.899642  4.188673  4.321465  5.300740  4.563029
   H (  7)  3.101240  2.919524  1.088157  2.210224  2.108502  3.748440
   H (  8)  2.450457  4.401311  2.146177  1.092644  2.623806  6.080171
   H (  9)  2.427407  4.822583  2.141091  1.093867  3.260173  5.899308
   H ( 10)  3.956788  2.452936  2.111983  2.726267  1.086844  5.402184
   H ( 11)  6.007785  1.346248  3.599303  4.814330  2.349213  5.431700
   H ( 12)  1.349105  6.328221  3.708709  2.426569  4.740413  6.141732
   H ( 13)  4.973693  3.600000  4.103385  5.197790  4.137540  0.743162
             H (  7)   H (  8)   H (  9)   H ( 10)   H ( 11)   H ( 12)
   H (  8)  3.097162
   H (  9)  2.513412  1.778628
   H ( 10)  3.079493  2.405086  3.578753
   H ( 11)  4.022402  4.765662  5.495269  2.471206
   H ( 12)  4.053629  2.807610  2.512624  4.865583  7.072618
   H ( 13)  3.643037  5.888163  5.873796  4.941834  4.792946  6.269988

 
 Applying Cartesian multipole field
    Component          Value
    ---------          -----
     (2,0,0)        1.00000E-11
     (0,2,0)        2.00000E-11
     (0,0,2)       -3.00000E-11
 Nucleus-field energy     =     0.0000000085 hartrees
 Requested basis set is 6-31G(d,p)
 There are 46 shells and 123 basis functions
 A cutoff of  1.0D-14 yielded    938 shell pairs
 There are      6976 function pairs
 Smallest overlap matrix eigenvalue = 3.97E-03
 Guess from superposition of atomic densities
 Warning:  Energy on first SCF cycle will be non-variational
 SAD guess density has 58.000000 electrons

 -----------------------------------------------------------------------
  General SCF calculation program by
  Eric Jon Sundstrom, Paul Horn, Yuezhi Mao, Dmitri Zuev, Alec White,
  David Stuck, Shaama M.S., Shane Yost, Joonho Lee, David Small,
  Daniel Levine, Susi Lehtola, Hugh Burton, Evgeny Epifanovsky
 -----------------------------------------------------------------------
 Exchange:     0.2000 Hartree-Fock + 0.0800 Slater + 0.7200 B88
 Correlation:  0.1900 VWN1RPA + 0.8100 LYP
 Using SG-1 standard quadrature grid
 using 12 threads for integral computing
 -------------------------------------------------------
 OpenMP Integral computing Module                
 Release: version 1.0, May 2013, Q-Chem Inc. Pittsburgh 
 -------------------------------------------------------
 -------------------------------------------------------
 OpenMP BLAS3 based DFT computing Module                
 Release: version 1.0, May 2013, Q-Chem Inc. Pittsburgh 
 -------------------------------------------------------
 A unrestricted SCF calculation will be
 performed using DIIS
 SCF converges when DIIS error is below 1.0e-06
 Alpha HF Exchange    Energy =  -6.83815336886891
 Beta HF Exchange     Energy =  -6.83815336886891
 DFT Correlation      Energy =  -2.69778984248031
 DFT Exchange         Energy = -53.84279715763431
 One-Electron (alpha) Energy = -886.93903624440509
 One-Electron (beta)  Energy = -886.93903624440509
 Total Coulomb        Energy = 667.08346161978272
 ---------------------------------------
  Cycle       Energy         DIIS error
 ---------------------------------------
    1    -915.9641658092      2.79e-02  
 Alpha HF Exchange    Energy =  -6.85617492911794
 Beta HF Exchange     Energy =  -6.85617492911795
 DFT Correlation      Energy =  -2.72518145462787
 DFT Exchange         Energy = -54.42181264667677
 One-Electron (alpha) Energy = -890.70950777770008
 One-Electron (beta)  Energy = -890.70950777770065
 Total Coulomb        Energy = 675.82711199336620
    2    -915.4039087239      2.67e-03  
 Alpha HF Exchange    Energy =  -6.80932716928017
 Beta HF Exchange     Energy =  -6.80932716928018
 DFT Correlation      Energy =  -2.70282784305490
 DFT Exchange         Energy = -54.01613960105563
 One-Electron (alpha) Energy = -886.97066164958983
 One-Electron (beta)  Energy = -886.97066164959040
 Total Coulomb        Energy = 667.85910665112885
    3    -915.3724996330      3.29e-03  
 Alpha HF Exchange    Energy =  -6.82860911257352
 Beta HF Exchange     Energy =  -6.82860911257352
 DFT Correlation      Energy =  -2.71323633339615
 DFT Exchange         Energy = -54.18322291257513
 One-Electron (alpha) Energy = -888.73081253316241
 One-Electron (beta)  Energy = -888.73081253316229
 Total Coulomb        Energy = 671.50347458820863
    4    -915.4644891515      5.75e-04  
 Alpha HF Exchange    Energy =  -6.83154732953058
 Beta HF Exchange     Energy =  -6.83154732953058
 DFT Correlation      Energy =  -2.71402874330969
 DFT Exchange         Energy = -54.20609142199859
 One-Electron (alpha) Energy = -888.91321420083739
 One-Electron (beta)  Energy = -888.91321420083705
 Total Coulomb        Energy = 671.89536415928319
    5    -915.4669402691      2.40e-04  
 Alpha HF Exchange    Energy =  -6.83121756764436
 Beta HF Exchange     Energy =  -6.83121756764436
 DFT Correlation      Energy =  -2.71381702488311
 DFT Exchange         Energy = -54.20298173112718
 One-Electron (alpha) Energy = -888.86620347287078
 One-Electron (beta)  Energy = -888.86620347287078
 Total Coulomb        Energy = 671.79695569652074
    6    -915.4673463428      8.14e-05  
 Alpha HF Exchange    Energy =  -6.83091200601462
 Beta HF Exchange     Energy =  -6.83091200601463
 DFT Correlation      Energy =  -2.71374099050650
 DFT Exchange         Energy = -54.20063740392895
 One-Electron (alpha) Energy = -888.84404538474769
 One-Electron (beta)  Energy = -888.84404538474803
 Total Coulomb        Energy = 671.74955348757271
    7    -915.4674008907      1.44e-05  
 Alpha HF Exchange    Energy =  -6.83099102722249
 Beta HF Exchange     Energy =  -6.83099102722249
 DFT Correlation      Energy =  -2.71376930655834
 DFT Exchange         Energy = -54.20122917155413
 One-Electron (alpha) Energy = -888.85347290151060
 One-Electron (beta)  Energy = -888.85347290151060
 Total Coulomb        Energy = 671.76918496059966
    8    -915.4674025773      3.38e-06  
 Alpha HF Exchange    Energy =  -6.83099128980685
 Beta HF Exchange     Energy =  -6.83099128980686
 DFT Correlation      Energy =  -2.71376960440347
 DFT Exchange         Energy = -54.20122961532411
 One-Electron (alpha) Energy = -888.85304874244662
 One-Electron (beta)  Energy = -888.85304874244696
 Total Coulomb        Energy = 671.76833781950438
    9    -915.4674026670      9.87e-07  Convergence criterion met
 ---------------------------------------
 SCF time:   CPU 26.19s  wall 2.00s 
<S^2> =         -0.000000000
 Alpha HF Exchange    Energy =  -6.83099128980685
 Beta HF Exchange     Energy =  -6.83099128980686
 DFT Correlation      Energy =  -2.71376960440347
 DFT Exchange         Energy = -54.20122961532411
 One-Electron (alpha) Energy = -888.85304874244662
 One-Electron (beta)  Energy = -888.85304874244696
 Total Coulomb        Energy = 671.76833781950438
 Nuclear repulsion Energy = 261.04733879768776
 SCF   energy in the final basis set =     -915.4674026670
 Total energy in the final basis set =     -915.4674026670
 
 --------------------------------------------------------------
 
                    Orbital Energies (a.u.)
 --------------------------------------------------------------
 
 Alpha MOs
 -- Occupied --
-88.895 -88.876 -10.231 -10.229 -10.204  -7.957  -7.938  -5.922
 -5.919  -5.912  -5.903  -5.899  -5.892  -0.831  -0.783  -0.716
 -0.639  -0.566  -0.479  -0.461  -0.443  -0.422  -0.391  -0.389
 -0.348  -0.337  -0.313  -0.240  -0.227
 -- Virtual --
 -0.008   0.016   0.025   0.067   0.089   0.104   0.116   0.130
  0.160   0.175   0.251   0.288   0.316   0.346   0.352   0.367
  0.371   0.384   0.387   0.416   0.489   0.520   0.550   0.588
  0.605   0.616   0.632   0.647   0.720   0.727   0.733   0.744
  0.791   0.800   0.809   0.835   0.855   0.875   0.887   0.896
  0.950   0.985   0.998   1.074   1.081   1.123   1.129   1.210
  1.264   1.339   1.362   1.431   1.606   1.635   1.684   1.686
  1.815   1.881   1.907   1.952   2.029   2.051   2.073   2.087
  2.109   2.129   2.147   2.199   2.257   2.309   2.389   2.433
  2.502   2.535   2.559   2.575   2.607   2.625   2.626   2.721
  2.747   2.794   2.836   2.924   3.237   3.374   3.434   3.479
  3.977   3.981   4.162   4.190   4.327   4.536
 
 Beta MOs
 -- Occupied --
-88.895 -88.876 -10.231 -10.229 -10.204  -7.957  -7.938  -5.922
 -5.919  -5.912  -5.903  -5.899  -5.892  -0.831  -0.783  -0.716
 -0.639  -0.566  -0.479  -0.461  -0.443  -0.422  -0.391  -0.389
 -0.348  -0.337  -0.313  -0.240  -0.227
 -- Virtual --
 -0.008   0.016   0.025   0.067   0.089   0.104   0.116   0.130
  0.160   0.175   0.251   0.288   0.316   0.346   0.352   0.367
  0.371   0.384   0.387   0.416   0.489   0.520   0.550   0.588
  0.605   0.616   0.632   0.647   0.720   0.727   0.733   0.744
  0.791   0.800   0.809   0.835   0.855   0.875   0.887   0.896
  0.950   0.985   0.998   1.074   1.081   1.123   1.129   1.210
  1.264   1.339   1.362   1.431   1.606   1.635   1.684   1.686
  1.815   1.881   1.907   1.952   2.029   2.051   2.073   2.087
  2.109   2.129   2.147   2.199   2.257   2.309   2.389   2.433
  2.502   2.535   2.559   2.575   2.607   2.625   2.626   2.721
  2.747   2.794   2.836   2.924   3.237   3.374   3.434   3.479
  3.977   3.981   4.162   4.190   4.327   4.536
 --------------------------------------------------------------
 
          Ground-State Mulliken Net Atomic Charges

     Atom                 Charge (a.u.)    Spin (a.u.)
  --------------------------------------------------------
      1 S                    -0.035653       0.000000
      2 S                     0.029332      -0.000000
      3 C                    -0.042533       0.000000
      4 C                    -0.358563      -0.000000
      5 C                    -0.235828       0.000000
      6 H                    -0.008209       0.000000
      7 H                     0.115496       0.000000
      8 H                     0.137477       0.000000
      9 H                     0.146963       0.000000
     10 H                     0.128537      -0.000000
     11 H                     0.062914       0.000000
     12 H                     0.051872      -0.000000
     13 H                     0.008195      -0.000000
  --------------------------------------------------------
  Sum of atomic charges =    -0.000000
  Sum of spin   charges =    -0.000000

 -----------------------------------------------------------------
                    Cartesian Multipole Moments
 -----------------------------------------------------------------
    Charge (ESU x 10^10)
                 0.0000
    Dipole Moment (Debye)
         X       0.3403      Y      -2.1484      Z      -1.3618
       Tot       2.5663
    Quadrupole Moments (Debye-Ang)
        XX     -42.0991     XY       1.7073     YY     -44.1589
        XZ      -2.4547     YZ       0.0787     ZZ     -51.7322
    Octopole Moments (Debye-Ang^2)
       XXX       2.5222    XXY      -4.4110    XYY      -8.8379
       YYY      35.1838    XXZ      -9.9365    XYZ       0.3092
       YYZ      -7.1999    XZZ      -0.7711    YZZ      16.7760
       ZZZ     -21.7554
    Hexadecapole Moments (Debye-Ang^3)
      XXXX   -1111.7634   XXXY      27.1747   XXYY    -245.2664
      XYYY      18.9843   YYYY    -245.4352   XXXZ    -107.4453
      XXYZ      -5.8754   XYYZ     -41.7986   YYYZ     -39.4608
      XXZZ    -259.5207   XYZZ       7.3979   YYZZ     -85.1688
      XZZZ    -140.5529   YZZZ     -37.6994   ZZZZ    -235.4891
 -----------------------------------------------------------------
 Calculating analytic gradient of the SCF energy
 Gradient of SCF Energy
            1           2           3           4           5           6
    1  -0.0000275  -0.0002681   0.0000506   0.0001034  -0.0001822   0.0000686
    2  -0.0000093   0.0000861   0.0001277  -0.0000339   0.0000072   0.0000155
    3   0.0000339  -0.0000894  -0.0000238   0.0000445   0.0000494  -0.0000620
            7           8           9          10          11          12
    1   0.0000643   0.0000098   0.0000225   0.0000356   0.0001814  -0.0000196
    2  -0.0000660   0.0000110   0.0000201  -0.0000470  -0.0001117   0.0000232
    3   0.0000226  -0.0000235   0.0000057  -0.0000166   0.0000423  -0.0000411
           13
    1  -0.0000389
    2  -0.0000230
    3   0.0000581
 Max gradient component =       2.681E-04
 RMS gradient           =       7.790E-05
 Gradient time:  CPU 10.42 s  wall 0.92 s
 Geometry Optimization Parameters
   NAtoms,    NIC,     NZ,  NCons,   NDum,   NFix, NCnnct, MaxDiis
       13      93       0       1       0       0       0       0

 Cartesian Hessian Update
 Hessian Updated using BFGS Update


** CONSTRAINED OPTIMIZATION IN DELOCALIZED INTERNAL COORDINATES **
   Searching for a Minimum

   Optimization Cycle:   6

                       Coordinates (Angstroms)
     ATOM                X               Y               Z
      1  S         2.4061946091   -0.0354459860    1.1255916715
      2  S        -2.5480849741   -0.2915063371   -0.3787076722
      3  C         0.2002993036   -0.3189117402   -0.5030489678
      4  C         1.5656770016   -0.8956636867   -0.2987729087
      5  C        -0.9211560191   -0.9940985309   -0.2301438013
      6  H        -1.2544325202    3.1932366054    1.5520982403
      7  H         0.1519173544    0.7037163663   -0.8717976898
      8  H         1.5116690987   -1.9666141531   -0.0889672494
      9  H         2.1851186034   -0.7399287114   -1.1867955122
     10  H        -0.8809414348   -2.0108811134    0.1516481999
     11  H        -3.2130308409   -1.4597724003   -0.4520888256
     12  H         3.6651084155   -0.4092659423    0.8165944020
     13  H        -1.7601345973    2.6487396298    1.5432931132
   Point Group: c1    Number of degrees of freedom:    33


   Energy is   -915.467402667

              Constraints and their Current Values
                                        Value     Constraint
   Distance(Angs):        2  13             3.600000     3.600000
 Hessian Updated using BFGS Update

 32 Hessian modes will be used to form the next step
  Hessian Eigenvalues:
     0.012153    0.094285    0.146680    0.158475    0.158564    0.159947
     0.161658    0.168331    0.195953    0.291845    0.318481    0.333432
     0.382881    0.429374    0.441521    0.454093    0.509864    0.566778
     0.633388    0.705600    0.737421    0.766323    0.805405    0.905383
     0.912998    0.941370    1.154175    1.210547    1.215307    1.239096
     1.272584    1.767805

 Minimum Search - Taking Simple RFO Step
 Searching for Lamda that Minimizes Along All modes
 Value Taken    Lamda =   0.00000000
 Step Taken.  Stepsize is  0.002477

                             Maximum     Tolerance    Cnvgd?
         Gradient           0.000134      0.000300     YES
         Displacement       0.000995      0.001200     YES
         Energy change     -0.000005      0.000001      NO


                       Distance Matrix (Angstroms)
             S (  1)   S (  2)   C (  3)   C (  4)   C (  5)   H (  6)
   S (  2)  5.183953
   C (  3)  2.756592  2.751332
   C (  4)  1.864205  4.158658  1.496204
   C (  5)  3.718642  1.778371  1.337167  2.489726
   H (  6)  4.899642  4.188673  4.321465  5.300740  4.563029
   H (  7)  3.101240  2.919524  1.088157  2.210224  2.108502  3.748440
   H (  8)  2.450457  4.401311  2.146177  1.092644  2.623806  6.080171
   H (  9)  2.427407  4.822583  2.141091  1.093867  3.260173  5.899308
   H ( 10)  3.956788  2.452936  2.111983  2.726267  1.086844  5.402184
   H ( 11)  6.007785  1.346248  3.599303  4.814330  2.349213  5.431700
   H ( 12)  1.349105  6.328221  3.708709  2.426569  4.740413  6.141732
   H ( 13)  4.973693  3.600000  4.103385  5.197790  4.137540  0.743162
             H (  7)   H (  8)   H (  9)   H ( 10)   H ( 11)   H ( 12)
   H (  8)  3.097162
   H (  9)  2.513412  1.778628
   H ( 10)  3.079493  2.405086  3.578753
   H ( 11)  4.022402  4.765662  5.495269  2.471206
   H ( 12)  4.053629  2.807610  2.512624  4.865583  7.072618
   H ( 13)  3.643037  5.888163  5.873796  4.941834  4.792946  6.269988

 
 Final energy is   -915.467402667043     


 ******************************
 **  OPTIMIZATION CONVERGED  **
 ******************************

                       Coordinates (Angstroms)
     ATOM                X               Y               Z
      1  S         2.4061946091   -0.0354459860    1.1255916715
      2  S        -2.5480849741   -0.2915063371   -0.3787076722
      3  C         0.2002993036   -0.3189117402   -0.5030489678
      4  C         1.5656770016   -0.8956636867   -0.2987729087
      5  C        -0.9211560191   -0.9940985309   -0.2301438013
      6  H        -1.2544325202    3.1932366054    1.5520982403
      7  H         0.1519173544    0.7037163663   -0.8717976898
      8  H         1.5116690987   -1.9666141531   -0.0889672494
      9  H         2.1851186034   -0.7399287114   -1.1867955122
     10  H        -0.8809414348   -2.0108811134    0.1516481999
     11  H        -3.2130308409   -1.4597724003   -0.4520888256
     12  H         3.6651084155   -0.4092659423    0.8165944020
     13  H        -1.7601345973    2.6487396298    1.5432931132

Z-matrix Print:
$molecule
0 1
S 
H  1 1.349105
C  1 1.864205 2 96.769280
H  3 1.092644 1 109.138450 2 76.429525 0
H  3 1.093867 1 107.413213 2 -41.450596 0
C  3 1.496204 1 109.748417 2 -161.682472 0
H  6 1.088157 3 116.686236 1 68.629503 0
C  6 1.337167 3 122.877180 1 -110.110314 0
H  8 1.086844 6 120.867246 3 -0.442586 0
S  8 1.778371 6 123.416483 3 176.367484 0
H  10 1.346248 8 96.521288 6 159.895159 0
H  10 3.600000 8 94.464172 6 -50.450640 0
H  12 0.743162 10 138.909028 8 53.178437 0
$end

PES scan, value:    3.6000 energy: -915.4674026670
------- Summary of potential scan: ------ 
    3.6000      -915.4674026670
----------------------------------------- 
Archival summary:
1\1\hpc0250\JobtypUnspecified\ProcedureUnspecified\6-31G**\238\knomura\ThuMar1409:39:402019ThuMar1409:39:402019\0\\#,JobtypUnspecified,ProcedureUnspecified,6-31G**,\\0,1\S\H,1,1.34911\C,1,1.8642,2,96.7693\H,3,1.09264,1,109.138,2,76.4295,0\H,3,1.09387,1,107.413,2,-41.4506,0\C,3,1.4962,1,109.748,2,-161.682,0\H,6,1.08816,3,116.686,1,68.6295,0\C,6,1.33717,3,122.877,1,-110.11,0\H,8,1.08684,6,120.867,3,-0.442586,0\S,8,1.77837,6,123.416,3,176.367,0\H,10,1.34625,8,96.5213,6,159.895,0\H,10,3.6,8,94.4642,6,-50.4506,0\H,12,0.743162,10,138.909,8,53.1784,0\\\@

 Total job time:  22.58s(wall), 256.19s(cpu) 
 Thu Mar 14 09:39:40 2019

        *************************************************************
        *                                                           *
        *  Thank you very much for using Q-Chem.  Have a nice day.  *
        *                                                           *
        *************************************************************


