
Running Job 1 of 1 thiol/04/S-H.xyz.data/inputs/bond_triplet_3.5.in
qchem thiol/04/S-H.xyz.data/inputs/bond_triplet_3.5.in_11675.0 /staging/scratch/2868767/qchem11675/ 1
/usr/usc/qchem/5.1.1/exe/qcprog.exe_s thiol/04/S-H.xyz.data/inputs/bond_triplet_3.5.in_11675.0 /staging/scratch/2868767/qchem11675/
Check license passed

                  Welcome to Q-Chem
     A Quantum Leap Into The Future Of Chemistry


 Q-Chem 5.1, Q-Chem, Inc., Pleasanton, CA (2018)

 Yihan Shao,  Zhengting Gan,  E. Epifanovsky,  A. T. B. Gilbert,  M. Wormit,  
 J. Kussmann,  A. W. Lange,  A. Behn,  Jia Deng,  Xintian Feng,  D. Ghosh,  
 M. Goldey,  P. R. Horn,  L. D. Jacobson,  I. Kaliman,  T. Kus,  A. Landau,  
 Jie Liu,  E. I. Proynov,  R. M. Richard,  R. P. Steele,  E. J. Sundstrom,  
 H. L. Woodcock III,  P. M. Zimmerman,  D. Zuev,  B. Albrecht,  E. Alguire,  
 S. A. Baeppler,  D. Barton,  Z. Benda,  Y. A. Bernard,  E. J. Berquist,  
 K. B. Bravaya,  H. Burton,  D. Casanova,  Chun-Min Chang,  Yunqing Chen,  
 A. Chien,  K. D. Closser,  M. P. Coons,  S. Coriani,  S. Dasgupta,  
 A. L. Dempwolff,  M. Diedenhofen,  Hainam Do,  R. G. Edgar,  Po-Tung Fang,  
 S. Faraji,  S. Fatehi,  Qingguo Feng,  K. D. Fenk,  J. Fosso-Tande,  
 Qinghui Ge,  A. Ghysels,  G. Gidofalvi,  J. Gomes,  J. Gonthier,  A. Gunina,  
 D. Hait,  M. W. D. Hanson-Heine,  P. H. P. Harbach,  A. W. Hauser,  
 J. E. Herr,  E. G. Hohenstein,  Z. C. Holden,  Kerwin Hui,  B. C. Huynh,  
 T.-C. Jagau,  Hyunjun Ji,  B. Kaduk,  K. Khistyaev,  Jaehoon Kim,  
 P. Klunzinger,  K. Koh,  D. Kosenkov,  L. Koulias,  T. Kowalczyk,  
 C. M. Krauter,  A. Kunitsa,  Ka Un Lao,  A. Laurent,  K. V. Lawler,  
 Joonho Lee,  D. Lefrancois,  S. Lehtola,  D. S. Levine,  Yi-Pei Li,  
 You-Sheng Lin,  Fenglai Liu,  E. Livshits,  A. Luenser,  P. Manohar,  
 E. Mansoor,  S. F. Manzer,  Shan-Ping Mao,  Yuezhi Mao,  N. Mardirossian,  
 A. V. Marenich,  T. Markovich,  L. A. Martinez-Martinez,  S. A. Maurer,  
 N. J. Mayhall,  S. C. McKenzie,  J.-M. Mewes,  A. F. Morrison,  
 J. W. Mullinax,  K. Nanda,  T. S. Nguyen-Beck,  R. Olivares-Amaya,  
 J. A. Parkhill,  T. M. Perrine,  F. Plasser,  P. Pokhilko,  S. Prager,  
 A. Prociuk,  E. Ramos,  D. R. Rehn,  F. Rob,  M. Schneider,  N. Sergueev,  
 S. M. Sharada,  S. Sharma,  D. W. Small,  T. Stauch,  T. Stein,  
 Yu-Chuan Su,  A. J. W. Thom,  A. Tkatchenko,  T. Tsuchimochi,  N. M. Tubman,  
 L. Vogt,  M. L. Vidal,  O. Vydrov,  M. A. Watson,  J. Wenzel,  
 M. de Wergifosse,  T. A. Wesolowski,  A. White,  J. Witte,  A. Yamada,  
 Jun Yang,  K. Yao,  S. Yeganeh,  S. R. Yost,  Zhi-Qiang You,  A. Zech,  
 Igor Ying Zhang,  Xing Zhang,  Yan Zhao,  Ying Zhu,  B. R. Brooks,  
 G. K. L. Chan,  C. J. Cramer,  M. S. Gordon,  W. J. Hehre,  A. Klamt,  
 M. W. Schmidt,  C. D. Sherrill,  D. G. Truhlar,  A. Aspuru-Guzik,  R. Baer,  
 A. T. Bell,  N. A. Besley,  Jeng-Da Chai,  A. E. DePrince, III,  
 R. A. DiStasio Jr.,  A. Dreuw,  B. D. Dunietz,  T. R. Furlani,  
 Chao-Ping Hsu,  Yousung Jung,  Jing Kong,  D. S. Lambrecht,  WanZhen Liang,  
 C. Ochsenfeld,  V. A. Rassolov,  L. V. Slipchenko,  J. E. Subotnik,  
 T. Van Voorhis,  J. M. Herbert,  A. I. Krylov,  P. M. W. Gill,  M. Head-Gordon

 Contributors to earlier versions of Q-Chem not listed above: 
 R. D. Adamson,  B. Austin,  J. Baker,  G. J. O. Beran,  K. Brandhorst,  
 S. T. Brown,  E. F. C. Byrd,  A. K. Chakraborty,  C.-L. Cheng,  
 Siu Hung Chien,  D. M. Chipman,  D. L. Crittenden,  H. Dachsel,  
 R. J. Doerksen,  A. D. Dutoi,  L. Fusti-Molnar,  W. A. Goddard III,  
 A. Golubeva-Zadorozhnaya,  S. R. Gwaltney,  G. Hawkins,  A. Heyden,  
 S. Hirata,  G. Kedziora,  F. J. Keil,  C. Kelley,  Jihan Kim,  R. A. King,  
 R. Z. Khaliullin,  P. P. Korambath,  W. Kurlancheek,  A. M. Lee,  M. S. Lee,  
 S. V. Levchenko,  Ching Yeh Lin,  D. Liotard,  R. C. Lochan,  I. Lotan,  
 P. E. Maslen,  N. Nair,  D. P. O'Neill,  D. Neuhauser,  E. Neuscamman,  
 C. M. Oana,  R. Olson,  B. Peters,  R. Peverati,  P. A. Pieniazek,  
 Y. M. Rhee,  J. Ritchie,  M. A. Rohrdanz,  E. Rosta,  N. J. Russ,  
 H. F. Schaefer III,  N. E. Schultz,  N. Shenvi,  A. C. Simmonett,  A. Sodt,  
 D. Stuck,  K. S. Thanthiriwatte,  V. Vanovschi,  Tao Wang,  A. Warshel,  
 C. F. Williams,  Q. Wu,  X. Xu,  W. Zhang

 Please cite Q-Chem as follows:
 Y. Shao et al., Mol. Phys. 113, 184-215 (2015)
 DOI: 10.1080/00268976.2014.952696

 Q-Chem 5.1.1 for Intel X86 EM64T Linux

 Parts of Q-Chem use Armadillo 8.300.2 (Tropical Shenanigans).
 http://arma.sourceforge.net/

 Q-Chem begins on Thu Mar 14 09:53:06 2019  

Host: 
0

     Scratch files written to /staging/scratch/2868767/qchem11675//
 Aug318 |scratch|qcdevops|jenkins|workspace|build_RNUM 6013   
Processing $rem in /usr/usc/qchem/5.1.1/config/preferences.
 MEM_TOTAL  2000 
Input Ideriv = 2
Curr. Ideriv = -1
Max.  Ideriv = 2

Checking the input file for inconsistencies... 	...done.

--------------------------------------------------------------
User input:
--------------------------------------------------------------

$comment
potential surface scanner
$end

$rem
JOBTYPE  PES_SCAN
UNRESTRICTED TRUE
SYM_IGNORE  TRUE
GEOM_OPT_MAX_CYCLES 400
SCF_MAX_CYCLES 400
METHOD   B3LYP
BASIS   6-31G**
PDB_PRINT 2
SCF_CONVERGENCE 6
THRESH 14
SCF_PRINT 1
$end
$molecule
0 3
S 2.612733 0.623534 0.188585
S -2.902792 0.008227 -0.502383
C -0.094825 0.182953 -0.157697
C 1.216492 -0.578918 0.057078
C -1.274613 -0.780322 -0.328640
H -0.288295 0.850319 0.688950
H -0.012041 0.816619 -1.047837
H 1.167158 -1.171513 0.975478
H 1.406557 -1.255427 -0.781674
H -1.374521 -1.438554 0.547993
H -1.124930 -1.448921 -1.185112
H 3.590770 -0.286562 0.365351
H -1.813491 1.902165 2.358810
$end
$scan
stre 2 13 3.500000 3.501000 0.100000
$end
--------------------------------------------------------------
 ----------------------------------------------------------------
             Standard Nuclear Orientation (Angstroms)
    I     Atom           X                Y                Z
 ----------------------------------------------------------------
    1      S       2.6127330000     0.6235340000     0.1885850000
    2      S      -2.9027920000     0.0082270000    -0.5023830000
    3      C      -0.0948250000     0.1829530000    -0.1576970000
    4      C       1.2164920000    -0.5789180000     0.0570780000
    5      C      -1.2746130000    -0.7803220000    -0.3286400000
    6      H      -0.2882950000     0.8503190000     0.6889500000
    7      H      -0.0120410000     0.8166190000    -1.0478370000
    8      H       1.1671580000    -1.1715130000     0.9754780000
    9      H       1.4065570000    -1.2554270000    -0.7816740000
   10      H      -1.3745210000    -1.4385540000     0.5479930000
   11      H      -1.1249300000    -1.4489210000    -1.1851120000
   12      H       3.5907700000    -0.2865620000     0.3653510000
   13      H      -1.8134910000     1.9021650000     2.3588100000
 ----------------------------------------------------------------
 Nuclear Repulsion Energy =   261.0850275240 hartrees
 There are       30 alpha and       28 beta electrons
 Requested basis set is 6-31G(d,p)
 There are 46 shells and 123 basis functions

 Total QAlloc Memory Limit   2000 MB
 Mega-Array Size       188 MB
 MEM_STATIC part       192 MB
A total of 1 constraints
  
            1
    1   1.0100000
    2   2.0100000
    3  13.0100000
    4   3.5000000
    5   3.5010000
    6   0.1000000
    7   0.0000000
    8   0.0000000
    9   0.0000000
   10   0.0000000

                       Distance Matrix (Angstroms)
             S (  1)   S (  2)   C (  3)   C (  4)   C (  5)   H (  6)
   S (  2)  5.592589
   C (  3)  2.764940  2.834434
   C (  4)  1.847342  4.198361  1.531708
   C (  5)  4.165308  1.817406  1.532651  2.528823
   H (  6)  2.952585  2.993992  1.095271  2.169416  2.160394
   H (  7)  2.907827  3.050813  1.095781  2.162788  2.159063  1.758943
   H (  8)  2.435381  4.487800  2.170545  1.094103  2.795711  2.507638
   H (  9)  2.434493  4.499479  2.170814  1.094209  2.760369  3.077243
   H ( 10)  4.503285  2.352037  2.182866  2.773683  1.100789  2.537458
   H ( 11)  4.489124  2.397956  2.186255  2.789659  1.096802  3.081975
   H ( 12)  1.347619  6.557912  3.752017  2.411991  4.939370  4.055165
   H ( 13)  5.092763  3.600000  3.498901  4.542526  3.835168  2.494200
             H (  7)   H (  8)   H (  9)   H ( 10)   H ( 11)   H ( 12)
   H (  8)  3.071967
   H (  9)  2.525201  1.775369
   H ( 10)  3.080395  2.591175  3.088032
   H ( 11)  2.527852  3.162083  2.570725  1.751016
   H ( 12)  4.024221  2.651281  2.650500  5.100447  5.098317
   H ( 13)  4.003608  4.499486  5.495611  3.825200  4.925777  6.162016

 
 A cutoff of  1.0D-14 yielded    992 shell pairs
 There are      7214 function pairs
 
 -------------------------------------------------------
 OpenMP Integral Computing Module                       
 Release: version 1.0, May 2013, Q-Chem Inc. Pittsburgh 
 -------------------------------------------------------
 Integral Job Info:
 Integral job number is                      11
 Integral operator is                         1
 short-range coefficients                     0
 long-range coefficients              100000000
 Omega coefficients                           0
 if combine SR and LR in K                    0
 Integral screening is                        0
 Integral computing path is                   2
 max size of driver memory is            800000
 size of driver memory is                593474
 size of scratch memory is             15267112
 max col of scratch BK array               1296
 max len of scratch array in speh3          155
 max len of scratch index in speh4           18
 max int batch size is                      520
 min int batch size is                       52
 fixed nKL is                                52
 max L of basis functions is                  2
 order of int derivative is                   0
 number of shells is                         46
 number of basis is                         123
 number of cartesian basis is               123
 number of contracted shell pairs           992
 number of primitive shell pairs           3714
 maxK2 (contraction) of shell pair           36
 max number of K2 of shell pair               1
 max number of CS2 of shell pair             80
 max number of PS2 of shell pair            330
 mem total for path MDJ                  516588
 -------------------------------------------------------
 Smallest overlap matrix eigenvalue = 5.06E-03

 Scale SEOQF with 1.000000e-01/1.000000e-01/1.000000e-01

 Standard Electronic Orientation quadrupole field applied
 Nucleus-field energy     =     0.0000000102 hartrees
 Guess from superposition of atomic densities
 Warning:  Energy on first SCF cycle will be non-variational
 SAD guess density has 58.000000 electrons

 -----------------------------------------------------------------------
  General SCF calculation program by
  Eric Jon Sundstrom, Paul Horn, Yuezhi Mao, Dmitri Zuev, Alec White,
  David Stuck, Shaama M.S., Shane Yost, Joonho Lee, David Small,
  Daniel Levine, Susi Lehtola, Hugh Burton, Evgeny Epifanovsky
 -----------------------------------------------------------------------
 Exchange:     0.2000 Hartree-Fock + 0.0800 Slater + 0.7200 B88
 Correlation:  0.1900 VWN1RPA + 0.8100 LYP
 Using SG-1 standard quadrature grid
 using 12 threads for integral computing
 -------------------------------------------------------
 OpenMP Integral computing Module                
 Release: version 1.0, May 2013, Q-Chem Inc. Pittsburgh 
 -------------------------------------------------------
 -------------------------------------------------------
 OpenMP BLAS3 based DFT computing Module                
 Release: version 1.0, May 2013, Q-Chem Inc. Pittsburgh 
 -------------------------------------------------------
 A unrestricted SCF calculation will be
 performed using DIIS
 SCF converges when DIIS error is below 1.0e-06
 Alpha HF Exchange    Energy =  -6.83589923450575
 Beta HF Exchange     Energy =  -6.83589923450575
 DFT Correlation      Energy =  -2.70117628191499
 DFT Exchange         Energy = -53.82230154720543
 One-Electron (alpha) Energy = -887.09963680079591
 One-Electron (beta)  Energy = -887.09963680079591
 Total Coulomb        Energy = 667.41400624636935
 ---------------------------------------
  Cycle       Energy         DIIS error
 ---------------------------------------
    1    -915.8955161192      2.70e-02  
 Alpha HF Exchange    Energy =  -6.93413066159112
 Beta HF Exchange     Energy =  -6.77541356912818
 DFT Correlation      Energy =  -2.70816324116914
 DFT Exchange         Energy = -54.39242436582067
 One-Electron (alpha) Energy = -902.00763895692569
 One-Electron (beta)  Energy = -879.10936841337173
 Total Coulomb        Energy = 675.52440656902547
    2    -915.3177051048      2.67e-03  
 Alpha HF Exchange    Energy =  -6.89309332996758
 Beta HF Exchange     Energy =  -6.73008953713988
 DFT Correlation      Energy =  -2.68467264670754
 DFT Exchange         Energy = -54.01622768493264
 One-Electron (alpha) Energy = -898.40357227257152
 One-Electron (beta)  Energy = -875.55135519490796
 Total Coulomb        Energy = 667.90059781098557
    3    -915.2933853210      3.25e-03  
 Alpha HF Exchange    Energy =  -6.91354414692406
 Beta HF Exchange     Energy =  -6.75347276913031
 DFT Correlation      Energy =  -2.69526210266124
 DFT Exchange         Energy = -54.19922439722480
 One-Electron (alpha) Energy = -900.22113548174787
 One-Electron (beta)  Energy = -877.37360354709324
 Total Coulomb        Energy = 671.69094993584997
    4    -915.3802649747      4.22e-04  
 Alpha HF Exchange    Energy =  -6.91631002653446
 Beta HF Exchange     Energy =  -6.75579974121305
 DFT Correlation      Energy =  -2.69541516390501
 DFT Exchange         Energy = -54.21804796553022
 One-Electron (alpha) Energy = -900.36301856813657
 One-Electron (beta)  Energy = -877.51032865417926
 Total Coulomb        Energy = 671.99198545670799
    5    -915.3819071286      1.41e-04  
 Alpha HF Exchange    Energy =  -6.91536478687756
 Beta HF Exchange     Energy =  -6.75518363491449
 DFT Correlation      Energy =  -2.69496384459242
 DFT Exchange         Energy = -54.21129892840017
 One-Electron (alpha) Energy = -900.27588491681377
 One-Electron (beta)  Energy = -877.43231900485841
 Total Coulomb        Energy = 671.81788527627077
    6    -915.3821023060      4.90e-05  
 Alpha HF Exchange    Energy =  -6.91534852061100
 Beta HF Exchange     Energy =  -6.75524988699065
 DFT Correlation      Energy =  -2.69490956057076
 DFT Exchange         Energy = -54.21128003185696
 One-Electron (alpha) Energy = -900.27961994662678
 One-Electron (beta)  Energy = -877.43974953529437
 Total Coulomb        Energy = 671.82900506982651
    7    -915.3821248779      1.16e-05  
 Alpha HF Exchange    Energy =  -6.91542293393256
 Beta HF Exchange     Energy =  -6.75536696049721
 DFT Correlation      Energy =  -2.69491575768143
 DFT Exchange         Energy = -54.21199120570615
 One-Electron (alpha) Energy = -900.28539628937460
 One-Electron (beta)  Energy = -877.44708208318332
 Total Coulomb        Energy = 671.84302080266457
    8    -915.3821268935      4.17e-06  
 Alpha HF Exchange    Energy =  -6.91538929175081
 Beta HF Exchange     Energy =  -6.75536377880371
 DFT Correlation      Energy =  -2.69489760051608
 DFT Exchange         Energy = -54.21182197774367
 One-Electron (alpha) Energy = -900.28218185141895
 One-Electron (beta)  Energy = -877.44548675775650
 Total Coulomb        Energy = 671.83798645756144
    9    -915.3821272662      1.77e-06  
 Alpha HF Exchange    Energy =  -6.91538628501780
 Beta HF Exchange     Energy =  -6.75537045659673
 DFT Correlation      Energy =  -2.69489590589509
 DFT Exchange         Energy = -54.21183196741265
 One-Electron (alpha) Energy = -900.28210005429924
 One-Electron (beta)  Energy = -877.44596257797400
 Total Coulomb        Energy = 671.83839230957722
   10    -915.3821274034      1.02e-06  
 Alpha HF Exchange    Energy =  -6.91538672389995
 Beta HF Exchange     Energy =  -6.75537376655188
 DFT Correlation      Energy =  -2.69489596378564
 DFT Exchange         Energy = -54.21184702231075
 One-Electron (alpha) Energy = -900.28214884972851
 One-Electron (beta)  Energy = -877.44629412359802
 Total Coulomb        Energy = 671.83879139864530
   11    -915.3821275170      8.87e-07  Convergence criterion met
 ---------------------------------------
 SCF time:   CPU 34.59s  wall 3.00s 
<S^2> =          2.002754097
 Alpha HF Exchange    Energy =  -6.91538672389995
 Beta HF Exchange     Energy =  -6.75537376655188
 DFT Correlation      Energy =  -2.69489596378564
 DFT Exchange         Energy = -54.21184702231075
 One-Electron (alpha) Energy = -900.28214884972851
 One-Electron (beta)  Energy = -877.44629412359802
 Total Coulomb        Energy = 671.83879139864530
 Nuclear repulsion Energy = 261.08502753419464
 SCF   energy in the final basis set =     -915.3821275170
 Total energy in the final basis set =     -915.3821275170
 
 --------------------------------------------------------------
 
                    Orbital Energies (a.u.)
 --------------------------------------------------------------
 
 Alpha MOs
 -- Occupied --
-88.895 -88.879 -10.235 -10.230 -10.206  -7.955  -7.941  -5.926
 -5.917  -5.908  -5.906  -5.903  -5.896  -0.832  -0.781  -0.708
 -0.626  -0.600  -0.496  -0.456  -0.433  -0.417  -0.388  -0.363
 -0.349  -0.333  -0.313  -0.286  -0.247  -0.241
 -- Virtual --
  0.015   0.041   0.078   0.092   0.112   0.135   0.147   0.156
  0.184   0.205   0.216   0.316   0.344   0.357   0.361   0.368
  0.385   0.388   0.401   0.496   0.511   0.516   0.544   0.586
  0.626   0.635   0.647   0.731   0.736   0.748   0.755   0.776
  0.815   0.823   0.849   0.861   0.867   0.886   0.890   0.900
  0.935   0.940   0.959   1.024   1.106   1.145   1.159   1.339
  1.380   1.396   1.616   1.645   1.652   1.667   1.821   1.847
  1.952   1.953   1.963   1.986   2.045   2.051   2.074   2.093
  2.103   2.109   2.190   2.213   2.240   2.285   2.318   2.376
  2.479   2.562   2.594   2.621   2.702   2.756   2.786   2.794
  2.813   2.863   3.187   3.234   3.315   3.337   3.456   3.538
  3.903   3.980   4.243   4.410   4.616
 
 Beta MOs
 -- Occupied --
-88.890 -88.879 -10.235 -10.230 -10.206  -7.950  -7.941  -5.914
 -5.909  -5.906  -5.905  -5.903  -5.896  -0.829  -0.773  -0.696
 -0.614  -0.591  -0.492  -0.455  -0.427  -0.412  -0.386  -0.360
 -0.342  -0.332  -0.241  -0.235
 -- Virtual --
 -0.156  -0.064   0.017   0.047   0.081   0.094   0.115   0.136
  0.150   0.158   0.189   0.206   0.217   0.328   0.346   0.363
  0.369   0.384   0.394   0.395   0.405   0.498   0.517   0.518
  0.553   0.588   0.629   0.647   0.657   0.732   0.747   0.785
  0.813   0.823   0.831   0.848   0.854   0.868   0.892   0.894
  0.902   0.911   0.942   0.949   0.999   1.034   1.110   1.151
  1.164   1.340   1.382   1.398   1.617   1.647   1.653   1.668
  1.821   1.848   1.968   2.042   2.051   2.073   2.094   2.103
  2.106   2.164   2.165   2.180   2.201   2.215   2.241   2.288
  2.320   2.378   2.480   2.564   2.595   2.622   2.703   2.756
  2.787   2.795   2.814   2.863   3.189   3.236   3.316   3.338
  3.458   3.539   3.920   3.980   4.243   4.410   4.616
 --------------------------------------------------------------
 
          Ground-State Mulliken Net Atomic Charges

     Atom                 Charge (a.u.)    Spin (a.u.)
  --------------------------------------------------------
      1 S                    -0.039303       0.000710
      2 S                     0.011772       0.979561
      3 C                    -0.168941       0.015275
      4 C                    -0.331674      -0.000479
      5 C                    -0.365853      -0.030429
      6 H                     0.129879      -0.006063
      7 H                     0.129568       0.001011
      8 H                     0.136158       0.000200
      9 H                     0.135824       0.000698
     10 H                     0.153304       0.034876
     11 H                     0.150875       0.018551
     12 H                     0.057415      -0.000033
     13 H                     0.000977       0.986122
  --------------------------------------------------------
  Sum of atomic charges =    -0.000000
  Sum of spin   charges =     2.000000

 -----------------------------------------------------------------
                    Cartesian Multipole Moments
 -----------------------------------------------------------------
    Charge (ESU x 10^10)
                -0.0000
    Dipole Moment (Debye)
         X       0.9395      Y      -2.2935      Z       0.1863
       Tot       2.4854
    Quadrupole Moments (Debye-Ang)
        XX     -53.1623     XY      -3.5298     YY     -47.8632
        XZ      -0.9166     YZ      -0.8402     ZZ     -47.4874
    Octopole Moments (Debye-Ang^2)
       XXX      45.1268    XXY     -10.0728    XYY       4.7236
       YYY      -8.4742    XXZ      12.3795    XYZ       1.3462
       YYZ       3.5431    XZZ      -0.8555    YZZ      -4.1338
       ZZZ       8.5568
    Hexadecapole Moments (Debye-Ang^3)
      XXXX   -1434.4982   XXXY     -94.0198   XXYY    -284.4289
      XYYY     -52.8864   YYYY    -183.8308   XXXZ     -75.6439
      XXYZ     -17.6337   XYYZ     -26.2068   YYYZ     -25.6643
      XXZZ    -276.3752   XYZZ     -23.7716   YYZZ     -53.2087
      XZZZ     -72.1766   YZZZ     -26.7271   ZZZZ    -145.9283
 -----------------------------------------------------------------
 Calculating analytic gradient of the SCF energy
 Gradient of SCF Energy
            1           2           3           4           5           6
    1  -0.0000008   0.0000261   0.0000480  -0.0000954   0.0000253  -0.0000633
    2   0.0000005   0.0000268  -0.0001650  -0.0000272  -0.0000331   0.0002155
    3   0.0000063   0.0001623   0.0001425   0.0000446  -0.0001093  -0.0001943
            7           8           9          10          11          12
    1  -0.0000003  -0.0000162   0.0000327  -0.0000236   0.0000394   0.0000084
    2  -0.0000153  -0.0000013   0.0000050   0.0000370   0.0000890   0.0000055
    3   0.0000022  -0.0000275  -0.0000175   0.0000544   0.0000190  -0.0000295
           13
    1   0.0000199
    2  -0.0001373
    3  -0.0000531
 Max gradient component =       2.155E-04
 RMS gradient           =       7.708E-05
 Gradient time:  CPU 11.17 s  wall 0.99 s
 Geometry Optimization Parameters
   NAtoms,    NIC,     NZ,  NCons,   NDum,   NFix, NCnnct, MaxDiis
       13      82       0       1       0       0       0       0


** CONSTRAINED OPTIMIZATION IN DELOCALIZED INTERNAL COORDINATES **
   Searching for a Minimum

   Optimization Cycle:   1

                       Coordinates (Angstroms)
     ATOM                X               Y               Z
      1  S         2.6127330000    0.6235340000    0.1885850000
      2  S        -2.9027920000    0.0082270000   -0.5023830000
      3  C        -0.0948250000    0.1829530000   -0.1576970000
      4  C         1.2164920000   -0.5789180000    0.0570780000
      5  C        -1.2746130000   -0.7803220000   -0.3286400000
      6  H        -0.2882950000    0.8503190000    0.6889500000
      7  H        -0.0120410000    0.8166190000   -1.0478370000
      8  H         1.1671580000   -1.1715130000    0.9754780000
      9  H         1.4065570000   -1.2554270000   -0.7816740000
     10  H        -1.3745210000   -1.4385540000    0.5479930000
     11  H        -1.1249300000   -1.4489210000   -1.1851120000
     12  H         3.5907700000   -0.2865620000    0.3653510000
     13  H        -1.8134910000    1.9021650000    2.3588100000
   Point Group: c1    Number of degrees of freedom:    33


   Energy is   -915.382127517

              Constraints and their Current Values
                                        Value     Constraint
   Distance(Angs):        2  13             3.600000     3.500000

 Attempting to Generate Delocalized Internal Coordinates

   Using Lagrange Multiplier Algorithm


 34 Hessian modes will be used to form the next step
  Hessian Eigenvalues:
    -0.996267    0.015538    0.045000    0.045000    0.045000    0.046984
     0.068937    0.077614    0.079183    0.080239    0.084818    0.085356
     0.095690    0.123854    0.137297    0.142489    0.160000    0.160000
     0.160000    0.187451    0.212790    0.220606    0.227160    0.247884
     0.258219    0.289830    0.292663    0.335950    0.337611    0.340383
     0.341531    0.343307    0.343428    1.003747

 Minimum Search - Taking P-RFO Step
 Searching for Lamda that Maximizes Along the Constraint modes Only
 Value Taken    Lamda =   0.01769479


 ********************************************
 ** ERROR IN DETERMINING Lamda IN CONFormD **
 ********************************************


 ** Scaling Hessian by  2.277674 **


 34 Hessian modes will be used to form the next step
  Hessian Eigenvalues:
    -0.991518    0.035390    0.102495    0.102495    0.102495    0.107015
     0.157016    0.176780    0.180353    0.182758    0.193188    0.194412
     0.217951    0.282098    0.312717    0.324543    0.364428    0.364428
     0.364428    0.426951    0.484667    0.502469    0.517395    0.564598
     0.588139    0.660139    0.666591    0.765185    0.768967    0.775281
     0.777896    0.781941    0.782216    1.008555

 Minimum Search - Taking P-RFO Step
 Searching for Lamda that Maximizes Along the Constraint modes Only
 Value Taken    Lamda =   0.01785968
 Searching for Lamda that Minimizes Along All other modes
 Value Taken    Lamda =  -0.01723943
 Step Taken.  Stepsize is  0.185719

                             Maximum     Tolerance    Cnvgd?
         Gradient            0.188973       0.000300      NO
         Displacement        0.185713       0.001200      NO
         Energy change     *********       0.000001      NO


 New Cartesian Coordinates Obtained by Inverse Iteration

 Displacement from previous Coordinates is:  0.167576
 ----------------------------------------------------------------
             Standard Nuclear Orientation (Angstroms)
    I     Atom           X                Y                Z
 ----------------------------------------------------------------
    1      S       2.6204865604     0.6203951104     0.1813818559
    2      S      -2.8898150196     0.0411652826    -0.4805714243
    3      C      -0.0885826938     0.1820160014    -0.1559576998
    4      C       1.2228143598    -0.5809136007     0.0547930881
    5      C      -1.2735391393    -0.7730770738    -0.3184748049
    6      H      -0.2864893269     0.8476046333     0.6874117571
    7      H      -0.0055948211     0.8145151193    -1.0469161889
    8      H       1.1760160963    -1.1732026299     0.9735359471
    9      H       1.4095012975    -1.2578250103    -0.7843820918
   10      H      -1.3747689478    -1.4279028870     0.5605398993
   11      H      -1.1356789724    -1.4460095308    -1.1735870354
   12      H       3.5982809098    -0.2905029162     0.3553220561
   13      H      -1.8644283028     1.8673375016     2.3258066416
 ----------------------------------------------------------------
 Nuclear Repulsion Energy =   261.3377449418 hartrees
 There are       30 alpha and       28 beta electrons

                       Distance Matrix (Angstroms)
             S (  1)   S (  2)   C (  3)   C (  4)   C (  5)   H (  6)
   S (  2)  5.580064
   C (  3)  2.764965  2.823493
   C (  4)  1.847337  4.193724  1.531744
   C (  5)  4.165940  1.817034  1.530600  2.531410
   H (  6)  2.959425  2.965103  1.092450  2.172296  2.147716
   H (  7)  2.905633  3.039333  1.095787  2.161012  2.158416  1.757239
   H (  8)  2.435364  4.485543  2.170618  1.094114  2.798162  2.510867
   H (  9)  2.434522  4.501533  2.170787  1.094201  2.766000  3.078213
   H ( 10)  4.505702  2.353176  2.181624  2.778599  1.100778  2.525546
   H ( 11)  4.496081  2.401864  2.186881  2.796390  1.096841  3.073289
   H ( 12)  1.347617  6.550123  3.752019  2.411949  4.941812  4.061651
   H ( 13)  5.125220  3.501725  3.486128  4.547802  3.783274  2.492807
             H (  7)   H (  8)   H (  9)   H ( 10)   H ( 11)   H ( 12)
   H (  8)  3.070741
   H (  9)  2.523096  1.775374
   H ( 10)  3.080096  2.596525  3.096757
   H ( 11)  2.530436  3.166780  2.581634  1.750625
   H ( 12)  4.021847  2.651172  2.650546  5.105587  5.107165
   H ( 13)  3.992362  4.507530  5.491678  3.770218  4.873920  6.195182

 
 Applying Cartesian multipole field
    Component          Value
    ---------          -----
     (2,0,0)        1.00000E-11
     (0,2,0)        2.00000E-11
     (0,0,2)       -3.00000E-11
 Nucleus-field energy     =     0.0000000103 hartrees
 Requested basis set is 6-31G(d,p)
 There are 46 shells and 123 basis functions
 A cutoff of  1.0D-14 yielded    992 shell pairs
 There are      7214 function pairs
 Smallest overlap matrix eigenvalue = 5.03E-03
 Guess from superposition of atomic densities
 Warning:  Energy on first SCF cycle will be non-variational
 SAD guess density has 58.000000 electrons

 -----------------------------------------------------------------------
  General SCF calculation program by
  Eric Jon Sundstrom, Paul Horn, Yuezhi Mao, Dmitri Zuev, Alec White,
  David Stuck, Shaama M.S., Shane Yost, Joonho Lee, David Small,
  Daniel Levine, Susi Lehtola, Hugh Burton, Evgeny Epifanovsky
 -----------------------------------------------------------------------
 Exchange:     0.2000 Hartree-Fock + 0.0800 Slater + 0.7200 B88
 Correlation:  0.1900 VWN1RPA + 0.8100 LYP
 Using SG-1 standard quadrature grid
 using 12 threads for integral computing
 -------------------------------------------------------
 OpenMP Integral computing Module                
 Release: version 1.0, May 2013, Q-Chem Inc. Pittsburgh 
 -------------------------------------------------------
 -------------------------------------------------------
 OpenMP BLAS3 based DFT computing Module                
 Release: version 1.0, May 2013, Q-Chem Inc. Pittsburgh 
 -------------------------------------------------------
 A unrestricted SCF calculation will be
 performed using DIIS
 SCF converges when DIIS error is below 1.0e-06
 Alpha HF Exchange    Energy =  -6.83638964608570
 Beta HF Exchange     Energy =  -6.83638964608570
 DFT Correlation      Energy =  -2.70138353652174
 DFT Exchange         Energy = -53.82320857489989
 One-Electron (alpha) Energy = -887.35000597312592
 One-Electron (beta)  Energy = -887.35000597312592
 Total Coulomb        Energy = 667.66015766325847
 ---------------------------------------
  Cycle       Energy         DIIS error
 ---------------------------------------
    1    -915.8994807345      2.70e-02  
 Alpha HF Exchange    Energy =  -6.93448709671221
 Beta HF Exchange     Energy =  -6.77459921200993
 DFT Correlation      Energy =  -2.70878287906896
 DFT Exchange         Energy = -54.39142864485031
 One-Electron (alpha) Energy = -902.30988618334220
 One-Electron (beta)  Energy = -879.24095488767637
 Total Coulomb        Energy = 675.70509760571736
    2    -915.3172963459      2.68e-03  
 Alpha HF Exchange    Energy =  -6.89373224366310
 Beta HF Exchange     Energy =  -6.72989494302259
 DFT Correlation      Energy =  -2.68521246732793
 DFT Exchange         Energy = -54.01845961737433
 One-Electron (alpha) Energy = -898.73555231204637
 One-Electron (beta)  Energy = -875.73830976752959
 Total Coulomb        Energy = 668.17105405606981
    3    -915.2923623428      3.27e-03  
 Alpha HF Exchange    Energy =  -6.91395519900942
 Beta HF Exchange     Energy =  -6.75330653820073
 DFT Correlation      Energy =  -2.69569274456443
 DFT Exchange         Energy = -54.20027740507331
 One-Electron (alpha) Energy = -900.53490606101184
 One-Electron (beta)  Energy = -877.55471978752041
 Total Coulomb        Energy = 671.93493711375265
    4    -915.3801756695      4.20e-04  
 Alpha HF Exchange    Energy =  -6.91669297881177
 Beta HF Exchange     Energy =  -6.75573264240141
 DFT Correlation      Energy =  -2.69577873183100
 DFT Exchange         Energy = -54.21924732534797
 One-Electron (alpha) Energy = -900.67220491371688
 One-Electron (beta)  Energy = -877.69780889886465
 Total Coulomb        Energy = 672.23788949473749
    5    -915.3818310441      1.43e-04  
 Alpha HF Exchange    Energy =  -6.91573459816366
 Beta HF Exchange     Energy =  -6.75514414580562
 DFT Correlation      Energy =  -2.69529836386433
 DFT Exchange         Energy = -54.21250650183637
 One-Electron (alpha) Energy = -900.58199694450832
 One-Electron (beta)  Energy = -877.62127007194897
 Total Coulomb        Energy = 672.06216774475160
    6    -915.3820379293      4.98e-05  
 Alpha HF Exchange    Energy =  -6.91571564590110
 Beta HF Exchange     Energy =  -6.75523575341628
 DFT Correlation      Energy =  -2.69523193788215
 DFT Exchange         Energy = -54.21255177350255
 One-Electron (alpha) Energy = -900.58500907804921
 One-Electron (beta)  Energy = -877.63052002253175
 Total Coulomb        Energy = 672.07445636023272
    7    -915.3820628990      1.21e-05  
 Alpha HF Exchange    Energy =  -6.91578929702496
 Beta HF Exchange     Energy =  -6.75537030621455
 DFT Correlation      Energy =  -2.69523348323012
 DFT Exchange         Energy = -54.21332087218711
 One-Electron (alpha) Energy = -900.59047239671145
 One-Electron (beta)  Energy = -877.63906047715614
 Total Coulomb        Energy = 672.08943635825244
    8    -915.3820655222      4.57e-06  
 Alpha HF Exchange    Energy =  -6.91575022796893
 Beta HF Exchange     Energy =  -6.75537034190313
 DFT Correlation      Energy =  -2.69521196355931
 DFT Exchange         Energy = -54.21313926718125
 One-Electron (alpha) Energy = -900.58673057797785
 One-Electron (beta)  Energy = -877.63769349644542
 Total Coulomb        Energy = 672.08408479935474
    9    -915.3820661236      2.07e-06  
 Alpha HF Exchange    Energy =  -6.91574638063273
 Beta HF Exchange     Energy =  -6.75537897318914
 DFT Correlation      Energy =  -2.69520957204702
 DFT Exchange         Energy = -54.21315277489406
 One-Electron (alpha) Energy = -900.58656800208405
 One-Electron (beta)  Energy = -877.63836603092011
 Total Coulomb        Energy = 672.08461038696169
   10    -915.3820663947      1.40e-06  
 Alpha HF Exchange    Energy =  -6.91574641459249
 Beta HF Exchange     Energy =  -6.75538334863945
 DFT Correlation      Energy =  -2.69520927199960
 DFT Exchange         Energy = -54.21317016945464
 One-Electron (alpha) Energy = -900.58656582544643
 One-Electron (beta)  Energy = -877.63881987646721
 Total Coulomb        Energy = 672.08508331162147
   11    -915.3820666429      1.27e-06  
 Alpha HF Exchange    Energy =  -6.91574390476783
 Beta HF Exchange     Energy =  -6.75538572975454
 DFT Correlation      Energy =  -2.69520790099827
 DFT Exchange         Energy = -54.21316900265110
 One-Electron (alpha) Energy = -900.58629761459622
 One-Electron (beta)  Energy = -877.63909147921390
 Total Coulomb        Energy = 672.08508364792101
   12    -915.3820670320      1.19e-06  
 Alpha HF Exchange    Energy =  -6.91573779069585
 Beta HF Exchange     Energy =  -6.75539348655388
 DFT Correlation      Energy =  -2.69520388995109
 DFT Exchange         Energy = -54.21317256531421
 One-Electron (alpha) Energy = -900.58569607617278
 One-Electron (beta)  Energy = -877.64018232408148
 Total Coulomb        Energy = 672.08557278874605
   13    -915.3820683919      9.27e-07  Convergence criterion met
 ---------------------------------------
 SCF time:   CPU 40.01s  wall 3.00s 
<S^2> =          2.002807072
 Alpha HF Exchange    Energy =  -6.91573779069585
 Beta HF Exchange     Energy =  -6.75539348655388
 DFT Correlation      Energy =  -2.69520388995109
 DFT Exchange         Energy = -54.21317256531421
 One-Electron (alpha) Energy = -900.58569607617278
 One-Electron (beta)  Energy = -877.64018232408148
 Total Coulomb        Energy = 672.08557278874605
 Nuclear repulsion Energy = 261.33774495209218
 SCF   energy in the final basis set =     -915.3820683919
 Total energy in the final basis set =     -915.3820683919
 
 --------------------------------------------------------------
 
                    Orbital Energies (a.u.)
 --------------------------------------------------------------
 
 Alpha MOs
 -- Occupied --
-88.895 -88.879 -10.235 -10.230 -10.206  -7.956  -7.941  -5.927
 -5.917  -5.908  -5.906  -5.903  -5.896  -0.832  -0.781  -0.708
 -0.627  -0.601  -0.496  -0.456  -0.433  -0.417  -0.388  -0.363
 -0.349  -0.333  -0.313  -0.287  -0.247  -0.241
 -- Virtual --
  0.015   0.041   0.078   0.092   0.113   0.135   0.147   0.155
  0.185   0.205   0.216   0.316   0.344   0.357   0.361   0.368
  0.385   0.388   0.401   0.496   0.511   0.516   0.544   0.586
  0.625   0.635   0.646   0.731   0.736   0.748   0.760   0.777
  0.814   0.823   0.849   0.861   0.866   0.886   0.890   0.901
  0.935   0.938   0.958   1.024   1.106   1.145   1.159   1.339
  1.379   1.395   1.618   1.645   1.651   1.667   1.823   1.847
  1.954   1.955   1.967   1.987   2.046   2.052   2.074   2.093
  2.103   2.109   2.192   2.213   2.239   2.285   2.318   2.377
  2.480   2.563   2.594   2.621   2.702   2.755   2.787   2.796
  2.813   2.865   3.188   3.234   3.315   3.340   3.457   3.540
  3.903   3.980   4.243   4.410   4.616
 
 Beta MOs
 -- Occupied --
-88.890 -88.879 -10.235 -10.230 -10.205  -7.950  -7.941  -5.914
 -5.909  -5.906  -5.905  -5.903  -5.896  -0.829  -0.773  -0.696
 -0.615  -0.591  -0.493  -0.455  -0.427  -0.412  -0.386  -0.360
 -0.342  -0.332  -0.241  -0.235
 -- Virtual --
 -0.156  -0.065   0.017   0.047   0.080   0.094   0.115   0.136
  0.150   0.157   0.189   0.206   0.218   0.328   0.345   0.363
  0.369   0.384   0.394   0.396   0.405   0.498   0.517   0.518
  0.553   0.587   0.628   0.647   0.656   0.732   0.747   0.785
  0.814   0.822   0.831   0.850   0.854   0.867   0.892   0.894
  0.903   0.911   0.940   0.950   0.998   1.035   1.111   1.151
  1.165   1.340   1.381   1.398   1.618   1.647   1.652   1.669
  1.823   1.848   1.969   2.043   2.051   2.074   2.093   2.104
  2.106   2.160   2.163   2.179   2.202   2.215   2.240   2.288
  2.320   2.378   2.482   2.564   2.596   2.622   2.703   2.756
  2.789   2.797   2.814   2.865   3.190   3.236   3.316   3.341
  3.458   3.541   3.920   3.980   4.244   4.410   4.616
 --------------------------------------------------------------
 
          Ground-State Mulliken Net Atomic Charges

     Atom                 Charge (a.u.)    Spin (a.u.)
  --------------------------------------------------------
      1 S                    -0.039076       0.000694
      2 S                     0.012752       0.981566
      3 C                    -0.169391       0.015788
      4 C                    -0.331753      -0.000412
      5 C                    -0.365484      -0.030654
      6 H                     0.130934      -0.006056
      7 H                     0.129416       0.000950
      8 H                     0.136028       0.000195
      9 H                     0.135940       0.000694
     10 H                     0.153369       0.035406
     11 H                     0.150299       0.017461
     12 H                     0.057381      -0.000003
     13 H                    -0.000415       0.984370
  --------------------------------------------------------
  Sum of atomic charges =    -0.000000
  Sum of spin   charges =     2.000000

 -----------------------------------------------------------------
                    Cartesian Multipole Moments
 -----------------------------------------------------------------
    Charge (ESU x 10^10)
                 0.0000
    Dipole Moment (Debye)
         X       0.9238      Y      -2.3223      Z       0.1673
       Tot       2.5049
    Quadrupole Moments (Debye-Ang)
        XX     -53.0885     XY      -3.4532     YY     -47.8321
        XZ      -0.8785     YZ      -0.9159     ZZ     -47.5646
    Octopole Moments (Debye-Ang^2)
       XXX      44.0669    XXY     -10.7741    XYY       4.2676
       YYY      -9.7054    XXZ      12.0678    XYZ       1.4977
       YYZ       3.1854    XZZ      -0.9980    YZZ      -4.5335
       ZZZ       7.9961
    Hexadecapole Moments (Debye-Ang^3)
      XXXX   -1433.0578   XXXY     -89.2007   XXYY    -283.1212
      XYYY     -48.2470   YYYY    -182.2845   XXXZ     -72.0615
      XXYZ     -17.3157   XYYZ     -24.4064   YYYZ     -24.3027
      XXZZ    -276.3843   XYZZ     -22.2360   YYZZ     -52.4711
      XZZZ     -68.2145   YZZZ     -25.4788   ZZZZ    -143.0776
 -----------------------------------------------------------------
 Calculating analytic gradient of the SCF energy
 Gradient of SCF Energy
            1           2           3           4           5           6
    1   0.0000222   0.0006160  -0.0007141   0.0001405   0.0003207  -0.0009631
    2  -0.0000206   0.0004756   0.0003424   0.0000106   0.0007653  -0.0011644
    3   0.0000003   0.0002064   0.0010520  -0.0003260   0.0008395  -0.0016397
            7           8           9          10          11          12
    1   0.0002021  -0.0000433   0.0000863   0.0001144   0.0001766   0.0000162
    2  -0.0000318   0.0000152  -0.0000186  -0.0001425  -0.0000892   0.0000109
    3   0.0000286  -0.0000330  -0.0000068  -0.0001479   0.0000775  -0.0000135
           13
    1   0.0000255
    2  -0.0001527
    3  -0.0000374
 Max gradient component =       1.640E-03
 RMS gradient           =       4.818E-04
 Gradient time:  CPU 11.18 s  wall 0.97 s
 Geometry Optimization Parameters
   NAtoms,    NIC,     NZ,  NCons,   NDum,   NFix, NCnnct, MaxDiis
       13      82       0       1       0       0       0       0

 Cartesian Hessian Update
 Hessian Updated using BFGS Update


** CONSTRAINED OPTIMIZATION IN DELOCALIZED INTERNAL COORDINATES **
   Searching for a Minimum

   Optimization Cycle:   2

                       Coordinates (Angstroms)
     ATOM                X               Y               Z
      1  S         2.6204865604    0.6203951104    0.1813818559
      2  S        -2.8898150196    0.0411652826   -0.4805714243
      3  C        -0.0885826938    0.1820160014   -0.1559576998
      4  C         1.2228143598   -0.5809136007    0.0547930881
      5  C        -1.2735391393   -0.7730770738   -0.3184748049
      6  H        -0.2864893269    0.8476046333    0.6874117571
      7  H        -0.0055948211    0.8145151193   -1.0469161889
      8  H         1.1760160963   -1.1732026299    0.9735359471
      9  H         1.4095012975   -1.2578250103   -0.7843820918
     10  H        -1.3747689478   -1.4279028870    0.5605398993
     11  H        -1.1356789724   -1.4460095308   -1.1735870354
     12  H         3.5982809098   -0.2905029162    0.3553220561
     13  H        -1.8644283028    1.8673375016    2.3258066416
   Point Group: c1    Number of degrees of freedom:    33


   Energy is   -915.382068392

              Constraints and their Current Values
                                        Value     Constraint
   Distance(Angs):        2  13             3.501725     3.500000
 Hessian Updated using BFGS Update

   Using Lagrange Multiplier Algorithm


 32 Hessian modes will be used to form the next step
  Hessian Eigenvalues:
    -0.999048    0.035691    0.102482    0.102506    0.107734    0.157039
     0.176781    0.180371    0.184345    0.193188    0.195087    0.218013
     0.282105    0.323782    0.326326    0.364408    0.364566    0.434225
     0.502397    0.513249    0.517414    0.565953    0.588139    0.666414
     0.685375    0.765192    0.775249    0.777894    0.781939    0.782214
     0.809018    1.001489

 Minimum Search - Taking P-RFO Step
 Searching for Lamda that Maximizes Along the Constraint modes Only
 Value Taken    Lamda =   0.00000015
 Searching for Lamda that Minimizes Along All other modes
 Value Taken    Lamda =  -0.00003269
 Step Taken.  Stepsize is  0.006953

                             Maximum     Tolerance    Cnvgd?
         Gradient            0.003261       0.000300      NO
         Displacement        0.003260       0.001200      NO
         Energy change      0.000059       0.000001      NO


 New Cartesian Coordinates Obtained by Inverse Iteration

 Displacement from previous Coordinates is:  0.009770
 ----------------------------------------------------------------
             Standard Nuclear Orientation (Angstroms)
    I     Atom           X                Y                Z
 ----------------------------------------------------------------
    1      S       2.6210539733     0.6199206490     0.1813304508
    2      S      -2.8915360588     0.0390516076    -0.4792195045
    3      C      -0.0880808512     0.1827649177    -0.1557134640
    4      C       1.2228507978    -0.5807787016     0.0550730942
    5      C      -1.2736669151    -0.7728904560    -0.3188376374
    6      H      -0.2847550499     0.8490080200     0.6885009842
    7      H      -0.0053903301     0.8154862598    -1.0465605172
    8      H       1.1760037645    -1.1730420346     0.9738510670
    9      H       1.4088868987    -1.2577693191    -0.7841609346
   10      H      -1.3742664714    -1.4278960772     0.5601470403
   11      H      -1.1361957773    -1.4454720552    -1.1742843073
   12      H       3.5983960837    -0.2914844360     0.3551179927
   13      H      -1.8650980643     1.8667016256     2.3236577357
 ----------------------------------------------------------------
 Nuclear Repulsion Energy =   261.2902910324 hartrees
 There are       30 alpha and       28 beta electrons

                       Distance Matrix (Angstroms)
             S (  1)   S (  2)   C (  3)   C (  4)   C (  5)   H (  6)
   S (  2)  5.582328
   C (  3)  2.764799  2.825716
   C (  4)  1.847320  4.194978  1.531656
   C (  5)  4.166406  1.817271  1.531503  2.531663
   H (  6)  2.958619  2.968991  1.093279  2.172187  2.150170
   H (  7)  2.905886  3.042131  1.095802  2.161418  2.158946  1.757728
   H (  8)  2.435359  4.486141  2.170723  1.094131  2.798580  2.510762
   H (  9)  2.434593  4.502041  2.170483  1.094184  2.765453  3.078257
   H ( 10)  4.505512  2.352515  2.181962  2.778079  1.100803  2.527410
   H ( 11)  4.496717  2.401696  2.187964  2.797162  1.096838  3.075640
   H ( 12)  1.347612  6.551686  3.751796  2.411832  4.941960  4.060878
   H ( 13)  5.125387  3.500000  3.484353  4.546654  3.781537  2.491369
             H (  7)   H (  8)   H (  9)   H ( 10)   H ( 11)   H ( 12)
   H (  8)  3.071156
   H (  9)  2.523375  1.775393
   H ( 10)  3.080275  2.596147  3.095489
   H ( 11)  2.531199  3.167802  2.581642  1.750782
   H ( 12)  4.022109  2.651030  2.650587  5.104982  5.107555
   H ( 13)  3.990230  4.506697  5.489976  3.768987  4.872103  6.195376

 
 Applying Cartesian multipole field
    Component          Value
    ---------          -----
     (2,0,0)        1.00000E-11
     (0,2,0)        2.00000E-11
     (0,0,2)       -3.00000E-11
 Nucleus-field energy     =     0.0000000103 hartrees
 Requested basis set is 6-31G(d,p)
 There are 46 shells and 123 basis functions
 A cutoff of  1.0D-14 yielded    992 shell pairs
 There are      7214 function pairs
 Smallest overlap matrix eigenvalue = 5.04E-03
 Guess from superposition of atomic densities
 Warning:  Energy on first SCF cycle will be non-variational
 SAD guess density has 58.000000 electrons

 -----------------------------------------------------------------------
  General SCF calculation program by
  Eric Jon Sundstrom, Paul Horn, Yuezhi Mao, Dmitri Zuev, Alec White,
  David Stuck, Shaama M.S., Shane Yost, Joonho Lee, David Small,
  Daniel Levine, Susi Lehtola, Hugh Burton, Evgeny Epifanovsky
 -----------------------------------------------------------------------
 Exchange:     0.2000 Hartree-Fock + 0.0800 Slater + 0.7200 B88
 Correlation:  0.1900 VWN1RPA + 0.8100 LYP
 Using SG-1 standard quadrature grid
 using 12 threads for integral computing
 -------------------------------------------------------
 OpenMP Integral computing Module                
 Release: version 1.0, May 2013, Q-Chem Inc. Pittsburgh 
 -------------------------------------------------------
 -------------------------------------------------------
 OpenMP BLAS3 based DFT computing Module                
 Release: version 1.0, May 2013, Q-Chem Inc. Pittsburgh 
 -------------------------------------------------------
 A unrestricted SCF calculation will be
 performed using DIIS
 SCF converges when DIIS error is below 1.0e-06
 Alpha HF Exchange    Energy =  -6.83621505977456
 Beta HF Exchange     Energy =  -6.83621505977456
 DFT Correlation      Energy =  -2.70134553742987
 DFT Exchange         Energy = -53.82286520386233
 One-Electron (alpha) Energy = -887.30338731057145
 One-Electron (beta)  Energy = -887.30338731057145
 Total Coulomb        Energy = 667.61509838063921
 ---------------------------------------
  Cycle       Energy         DIIS error
 ---------------------------------------
    1    -915.8980260587      2.70e-02  
 Alpha HF Exchange    Energy =  -6.93439596426006
 Beta HF Exchange     Energy =  -6.77447558540833
 DFT Correlation      Energy =  -2.70874620242290
 DFT Exchange         Energy = -54.39066475110629
 One-Electron (alpha) Energy = -902.26196706765745
 One-Electron (beta)  Energy = -879.19006756567194
 Total Coulomb        Energy = 675.65262160251120
    2    -915.3174044913      2.67e-03  
 Alpha HF Exchange    Energy =  -6.89368567013082
 Beta HF Exchange     Energy =  -6.72982265589890
 DFT Correlation      Energy =  -2.68518900682304
 DFT Exchange         Energy = -54.01807308504932
 One-Electron (alpha) Energy = -898.69138278285470
 One-Electron (beta)  Energy = -875.69197275994020
 Total Coulomb        Energy = 668.12733883924454
    3    -915.2924960788      3.27e-03  
 Alpha HF Exchange    Energy =  -6.91388271295740
 Beta HF Exchange     Energy =  -6.75321424503729
 DFT Correlation      Energy =  -2.69565802460828
 DFT Exchange         Energy = -54.19970292167453
 One-Electron (alpha) Energy = -900.48847448354582
 One-Electron (beta)  Energy = -877.50645971032793
 Total Coulomb        Energy = 671.88691466532157
    4    -915.3801863902      4.20e-04  
 Alpha HF Exchange    Energy =  -6.91662185206851
 Beta HF Exchange     Energy =  -6.75564383375561
 DFT Correlation      Energy =  -2.69574302712060
 DFT Exchange         Energy = -54.21868975590404
 One-Electron (alpha) Energy = -900.62579701101777
 One-Electron (beta)  Energy = -877.64979263855389
 Total Coulomb        Energy = 672.19015491465041
    5    -915.3818421611      1.43e-04  
 Alpha HF Exchange    Energy =  -6.91566190297767
 Beta HF Exchange     Energy =  -6.75505480252551
 DFT Correlation      Energy =  -2.69526133883257
 DFT Exchange         Energy = -54.21193877723243
 One-Electron (alpha) Energy = -900.53542731998891
 One-Electron (beta)  Energy = -877.57321302877290
 Total Coulomb        Energy = 672.01421705817006
    6    -915.3820490695      4.99e-05  
 Alpha HF Exchange    Energy =  -6.91564345451343
 Beta HF Exchange     Energy =  -6.75514746677485
 DFT Correlation      Energy =  -2.69519483643006
 DFT Exchange         Energy = -54.21198996685098
 One-Electron (alpha) Energy = -900.53845991033256
 One-Electron (beta)  Energy = -877.58254732346495
 Total Coulomb        Energy = 672.02661780437745
    7    -915.3820741113      1.22e-05  
 Alpha HF Exchange    Energy =  -6.91571698722346
 Beta HF Exchange     Energy =  -6.75528238267513
 DFT Correlation      Energy =  -2.69519622404312
 DFT Exchange         Energy = -54.21275978665043
 One-Electron (alpha) Energy = -900.54391053986660
 One-Electron (beta)  Energy = -877.59111290401916
 Total Coulomb        Energy = 672.04161101373336
    8    -915.3820767681      4.60e-06  
 Alpha HF Exchange    Energy =  -6.91567791939580
 Beta HF Exchange     Energy =  -6.75528258850284
 DFT Correlation      Energy =  -2.69517465314730
 DFT Exchange         Energy = -54.21257881926589
 One-Electron (alpha) Energy = -900.54016482972054
 One-Electron (beta)  Energy = -877.58976176556428
 Total Coulomb        Energy = 672.03627214349547
    9    -915.3820773894      2.11e-06  
 Alpha HF Exchange    Energy =  -6.91567391001347
 Beta HF Exchange     Energy =  -6.75529122084348
 DFT Correlation      Energy =  -2.69517217486971
 DFT Exchange         Energy = -54.21259159480556
 One-Electron (alpha) Energy = -900.53998732664297
 One-Electron (beta)  Energy = -877.59043200470819
 Total Coulomb        Energy = 672.03677951462168
   10    -915.3820776746      1.43e-06  
 Alpha HF Exchange    Energy =  -6.91567395160242
 Beta HF Exchange     Energy =  -6.75529569520898
 DFT Correlation      Energy =  -2.69517186299073
 DFT Exchange         Energy = -54.21260938600562
 One-Electron (alpha) Energy = -900.53998623803864
 One-Electron (beta)  Energy = -877.59089665519878
 Total Coulomb        Energy = 672.03726480904982
   11    -915.3820779373      1.31e-06  
 Alpha HF Exchange    Energy =  -6.91567135271270
 Beta HF Exchange     Energy =  -6.75529819023867
 DFT Correlation      Energy =  -2.69517042789498
 DFT Exchange         Energy = -54.21260827547884
 One-Electron (alpha) Energy = -900.53970794908469
 One-Electron (beta)  Energy = -877.59118186609305
 Total Coulomb        Energy = 672.03726866162583
   12    -915.3820783572      1.22e-06  
 Alpha HF Exchange    Energy =  -6.91566492082535
 Beta HF Exchange     Energy =  -6.75530642289990
 DFT Correlation      Energy =  -2.69516615489366
 DFT Exchange         Energy = -54.21261221772025
 One-Electron (alpha) Energy = -900.53907399622722
 One-Electron (beta)  Energy = -877.59233514691709
 Total Coulomb        Energy = 672.03778799020279
   13    -915.3820798266      9.39e-07  Convergence criterion met
 ---------------------------------------
 SCF time:   CPU 40.00s  wall 4.00s 
<S^2> =          2.002808616
 Alpha HF Exchange    Energy =  -6.91566492082535
 Beta HF Exchange     Energy =  -6.75530642289990
 DFT Correlation      Energy =  -2.69516615489366
 DFT Exchange         Energy = -54.21261221772025
 One-Electron (alpha) Energy = -900.53907399622722
 One-Electron (beta)  Energy = -877.59233514691709
 Total Coulomb        Energy = 672.03778799020279
 Nuclear repulsion Energy = 261.29029104267124
 SCF   energy in the final basis set =     -915.3820798266
 Total energy in the final basis set =     -915.3820798266
 
 --------------------------------------------------------------
 
                    Orbital Energies (a.u.)
 --------------------------------------------------------------
 
 Alpha MOs
 -- Occupied --
-88.895 -88.879 -10.235 -10.230 -10.206  -7.956  -7.941  -5.927
 -5.917  -5.908  -5.906  -5.903  -5.896  -0.832  -0.781  -0.708
 -0.626  -0.601  -0.496  -0.456  -0.433  -0.417  -0.388  -0.363
 -0.349  -0.333  -0.313  -0.286  -0.247  -0.241
 -- Virtual --
  0.015   0.041   0.078   0.092   0.113   0.135   0.147   0.155
  0.185   0.205   0.216   0.316   0.344   0.357   0.361   0.368
  0.385   0.388   0.401   0.496   0.511   0.516   0.544   0.586
  0.625   0.635   0.646   0.731   0.736   0.748   0.761   0.776
  0.814   0.823   0.849   0.861   0.866   0.886   0.890   0.901
  0.935   0.938   0.958   1.024   1.106   1.145   1.159   1.339
  1.379   1.395   1.617   1.645   1.651   1.667   1.822   1.847
  1.954   1.955   1.966   1.987   2.046   2.052   2.074   2.093
  2.103   2.109   2.191   2.213   2.239   2.285   2.318   2.377
  2.480   2.563   2.594   2.621   2.702   2.755   2.787   2.796
  2.813   2.864   3.187   3.234   3.315   3.339   3.456   3.539
  3.903   3.980   4.243   4.410   4.616
 
 Beta MOs
 -- Occupied --
-88.890 -88.879 -10.235 -10.230 -10.206  -7.950  -7.941  -5.914
 -5.909  -5.906  -5.905  -5.903  -5.896  -0.829  -0.773  -0.696
 -0.614  -0.591  -0.492  -0.455  -0.427  -0.412  -0.386  -0.360
 -0.342  -0.332  -0.241  -0.235
 -- Virtual --
 -0.156  -0.066   0.017   0.047   0.080   0.094   0.115   0.136
  0.150   0.157   0.189   0.206   0.217   0.328   0.345   0.363
  0.369   0.384   0.394   0.396   0.405   0.498   0.517   0.518
  0.553   0.587   0.628   0.647   0.656   0.732   0.747   0.785
  0.813   0.822   0.831   0.850   0.854   0.867   0.892   0.894
  0.903   0.911   0.940   0.950   0.998   1.035   1.111   1.151
  1.165   1.340   1.381   1.398   1.618   1.647   1.652   1.668
  1.823   1.848   1.969   2.042   2.051   2.074   2.093   2.104
  2.106   2.160   2.163   2.179   2.201   2.215   2.240   2.288
  2.320   2.378   2.481   2.564   2.595   2.622   2.702   2.756
  2.788   2.797   2.814   2.865   3.190   3.235   3.316   3.340
  3.458   3.540   3.920   3.980   4.243   4.410   4.616
 --------------------------------------------------------------
 
          Ground-State Mulliken Net Atomic Charges

     Atom                 Charge (a.u.)    Spin (a.u.)
  --------------------------------------------------------
      1 S                    -0.039062       0.000692
      2 S                     0.012736       0.981614
      3 C                    -0.169439       0.015839
      4 C                    -0.331681      -0.000414
      5 C                    -0.365510      -0.030637
      6 H                     0.130829      -0.006073
      7 H                     0.129438       0.000963
      8 H                     0.136068       0.000194
      9 H                     0.135942       0.000698
     10 H                     0.153375       0.035417
     11 H                     0.150364       0.017411
     12 H                     0.057392      -0.000003
     13 H                    -0.000451       0.984300
  --------------------------------------------------------
  Sum of atomic charges =    -0.000000
  Sum of spin   charges =     2.000000

 -----------------------------------------------------------------
                    Cartesian Multipole Moments
 -----------------------------------------------------------------
    Charge (ESU x 10^10)
                -0.0000
    Dipole Moment (Debye)
         X       0.9254      Y      -2.3209      Z       0.1653
       Tot       2.5040
    Quadrupole Moments (Debye-Ang)
        XX     -53.0981     XY      -3.4545     YY     -47.8311
        XZ      -0.8700     YZ      -0.9186     ZZ     -47.5654
    Octopole Moments (Debye-Ang^2)
       XXX      44.1092    XXY     -10.7551    XYY       4.2934
       YYY      -9.6153    XXZ      12.0292    XYZ       1.5024
       YYZ       3.1691    XZZ      -0.9887    YZZ      -4.5095
       ZZZ       7.9471
    Hexadecapole Moments (Debye-Ang^3)
      XXXX   -1434.1083   XXXY     -89.4320   XXYY    -283.3197
      XYYY     -48.4547   YYYY    -182.2148   XXXZ     -71.9207
      XXYZ     -17.3537   XYYZ     -24.3742   YYYZ     -24.3302
      XXZZ    -276.5248   XYZZ     -22.2908   YYZZ     -52.4327
      XZZZ     -68.1090   YZZZ     -25.5002   ZZZZ    -142.9257
 -----------------------------------------------------------------
 Calculating analytic gradient of the SCF energy
 Gradient of SCF Energy
            1           2           3           4           5           6
    1   0.0000126   0.0004490  -0.0002847   0.0001266   0.0001908  -0.0008730
    2  -0.0000099   0.0004221   0.0002250   0.0000248   0.0005090  -0.0007784
    3   0.0000038   0.0002011   0.0007591  -0.0002355   0.0006127  -0.0012204
            7           8           9          10          11          12
    1   0.0001478  -0.0000214   0.0000459   0.0000838   0.0000865   0.0000086
    2  -0.0000076  -0.0000031  -0.0000002  -0.0001068  -0.0001271   0.0000061
    3   0.0000228  -0.0000201  -0.0000084  -0.0001190   0.0000569  -0.0000166
           13
    1   0.0000275
    2  -0.0001537
    3  -0.0000364
 Max gradient component =       1.220E-03
 RMS gradient           =       3.523E-04
 Gradient time:  CPU 11.06 s  wall 0.95 s
 Geometry Optimization Parameters
   NAtoms,    NIC,     NZ,  NCons,   NDum,   NFix, NCnnct, MaxDiis
       13      82       0       1       0       0       0       0

 Cartesian Hessian Update
 Hessian Updated using BFGS Update


** CONSTRAINED OPTIMIZATION IN DELOCALIZED INTERNAL COORDINATES **
   Searching for a Minimum

   Optimization Cycle:   3

                       Coordinates (Angstroms)
     ATOM                X               Y               Z
      1  S         2.6210539733    0.6199206490    0.1813304508
      2  S        -2.8915360588    0.0390516076   -0.4792195045
      3  C        -0.0880808512    0.1827649177   -0.1557134640
      4  C         1.2228507978   -0.5807787016    0.0550730942
      5  C        -1.2736669151   -0.7728904560   -0.3188376374
      6  H        -0.2847550499    0.8490080200    0.6885009842
      7  H        -0.0053903301    0.8154862598   -1.0465605172
      8  H         1.1760037645   -1.1730420346    0.9738510670
      9  H         1.4088868987   -1.2577693191   -0.7841609346
     10  H        -1.3742664714   -1.4278960772    0.5601470403
     11  H        -1.1361957773   -1.4454720552   -1.1742843073
     12  H         3.5983960837   -0.2914844360    0.3551179927
     13  H        -1.8650980643    1.8667016256    2.3236577357
   Point Group: c1    Number of degrees of freedom:    33


   Energy is   -915.382079827

              Constraints and their Current Values
                                        Value     Constraint
   Distance(Angs):        2  13             3.500000     3.500000
 Hessian Updated using BFGS Update

 32 Hessian modes will be used to form the next step
  Hessian Eigenvalues:
     0.033498    0.079116    0.102496    0.102501    0.105053    0.150469
     0.159779    0.176895    0.180412    0.190819    0.193190    0.205722
     0.219737    0.282148    0.325206    0.364163    0.364428    0.368986
     0.381744    0.452900    0.502476    0.517404    0.565217    0.588139
     0.651233    0.666664    0.746528    0.765278    0.776004    0.777938
     0.781982    0.782327

 Minimum Search - Taking Simple RFO Step
 Searching for Lamda that Minimizes Along All modes
 Value Taken    Lamda =  -0.00003682
 Step Taken.  Stepsize is  0.020626

                             Maximum     Tolerance    Cnvgd?
         Gradient           0.000761      0.000300      NO
         Displacement       0.010434      0.001200      NO
         Energy change     -0.000011      0.000001      NO


 New Cartesian Coordinates Obtained by Inverse Iteration

 Displacement from previous Coordinates is:  0.034547
 ----------------------------------------------------------------
             Standard Nuclear Orientation (Angstroms)
    I     Atom           X                Y                Z
 ----------------------------------------------------------------
    1      S       2.6223895471     0.6180715026     0.1811228430
    2      S      -2.8978160172     0.0293336904    -0.4760223362
    3      C      -0.0871694016     0.1855619329    -0.1546423817
    4      C       1.2221194460    -0.5802853998     0.0560416638
    5      C      -1.2737320745    -0.7723732408    -0.3202049943
    6      H      -0.2788452596     0.8538019068     0.6923342479
    7      H      -0.0054812379     0.8190356227    -1.0450769145
    8      H       1.1748360825    -1.1723099490     0.9749740191
    9      H       1.4061138234    -1.2577104805    -0.7832613973
   10      H      -1.3718873314    -1.4286555480     0.5582299404
   11      H      -1.1355500671    -1.4426353026    -1.1772223732
   12      H       3.5981364761    -0.2950813924     0.3546126980
   13      H      -1.8649119859     1.8668466579     2.3180169848
 ----------------------------------------------------------------
 Nuclear Repulsion Energy =   261.1472544568 hartrees
 There are       30 alpha and       28 beta electrons

                       Distance Matrix (Angstroms)
             S (  1)   S (  2)   C (  3)   C (  4)   C (  5)   H (  6)
   S (  2)  5.590270
   C (  3)  2.764329  2.833271
   C (  4)  1.847285  4.198642  1.531387
   C (  5)  4.167065  1.817873  1.533943  2.531350
   H (  6)  2.955346  2.983926  1.095743  2.171260  2.158583
   H (  7)  2.906829  3.051729  1.095826  2.162768  2.160204  1.759129
   H (  8)  2.435380  4.487297  2.170831  1.094151  2.798736  2.509622
   H (  9)  2.434732  4.502743  2.169814  1.094161  2.762526  3.078141
   H ( 10)  4.503948  2.350291  2.182747  2.775031  1.100904  2.534233
   H ( 11)  4.495968  2.400824  2.189931  2.796997  1.096733  3.082663
   H ( 12)  1.347601  6.556874  3.751245  2.411627  4.941487  4.057706
   H ( 13)  5.124610  3.500000  3.478668  4.542549  3.778252  2.486908
             H (  7)   H (  8)   H (  9)   H ( 10)   H ( 11)   H ( 12)
   H (  8)  3.072330
   H (  9)  2.524683  1.775436
   H ( 10)  3.080548  2.593297  3.089678
   H ( 11)  2.531733  3.169055  2.578654  1.751527
   H ( 12)  4.023239  2.650804  2.650731  5.101724  5.105995
   H ( 13)  3.983189  4.503366  5.484560  3.768323  4.868402  6.194658

 
 Applying Cartesian multipole field
    Component          Value
    ---------          -----
     (2,0,0)        1.00000E-11
     (0,2,0)        2.00000E-11
     (0,0,2)       -3.00000E-11
 Nucleus-field energy     =     0.0000000103 hartrees
 Requested basis set is 6-31G(d,p)
 There are 46 shells and 123 basis functions
 A cutoff of  1.0D-14 yielded    992 shell pairs
 There are      7214 function pairs
 Smallest overlap matrix eigenvalue = 5.06E-03
 Guess from superposition of atomic densities
 Warning:  Energy on first SCF cycle will be non-variational
 SAD guess density has 58.000000 electrons

 -----------------------------------------------------------------------
  General SCF calculation program by
  Eric Jon Sundstrom, Paul Horn, Yuezhi Mao, Dmitri Zuev, Alec White,
  David Stuck, Shaama M.S., Shane Yost, Joonho Lee, David Small,
  Daniel Levine, Susi Lehtola, Hugh Burton, Evgeny Epifanovsky
 -----------------------------------------------------------------------
 Exchange:     0.2000 Hartree-Fock + 0.0800 Slater + 0.7200 B88
 Correlation:  0.1900 VWN1RPA + 0.8100 LYP
 Using SG-1 standard quadrature grid
 using 12 threads for integral computing
 -------------------------------------------------------
 OpenMP Integral computing Module                
 Release: version 1.0, May 2013, Q-Chem Inc. Pittsburgh 
 -------------------------------------------------------
 -------------------------------------------------------
 OpenMP BLAS3 based DFT computing Module                
 Release: version 1.0, May 2013, Q-Chem Inc. Pittsburgh 
 -------------------------------------------------------
 A unrestricted SCF calculation will be
 performed using DIIS
 SCF converges when DIIS error is below 1.0e-06
 Alpha HF Exchange    Energy =  -6.83574402942862
 Beta HF Exchange     Energy =  -6.83574402942862
 DFT Correlation      Energy =  -2.70124099590337
 DFT Exchange         Energy = -53.82193969158754
 One-Electron (alpha) Energy = -887.16264346589446
 One-Electron (beta)  Energy = -887.16264346589446
 Total Coulomb        Energy = 667.47858171181360
 ---------------------------------------
  Cycle       Energy         DIIS error
 ---------------------------------------
    1    -915.8941194992      2.70e-02  
 Alpha HF Exchange    Energy =  -6.93414168570760
 Beta HF Exchange     Energy =  -6.77418535075109
 DFT Correlation      Energy =  -2.70862522417789
 DFT Exchange         Energy = -54.38870943423308
 One-Electron (alpha) Energy = -902.11525735219902
 One-Electron (beta)  Energy = -879.04360935290038
 Total Coulomb        Energy = 675.49958207377381
    2    -915.3176918591      2.67e-03  
 Alpha HF Exchange    Energy =  -6.89353294867228
 Beta HF Exchange     Energy =  -6.72963683609794
 DFT Correlation      Energy =  -2.68510554115404
 DFT Exchange         Energy = -54.01693888135237
 One-Electron (alpha) Energy = -898.55280847258598
 One-Electron (beta)  Energy = -875.55454976477210
 Total Coulomb        Energy = 667.99244983951223
    3    -915.2928681380      3.26e-03  
 Alpha HF Exchange    Energy =  -6.91367381043267
 Beta HF Exchange     Energy =  -6.75297674003412
 DFT Correlation      Energy =  -2.69554991696377
 DFT Exchange         Energy = -54.19814207348360
 One-Electron (alpha) Energy = -900.34498573408871
 One-Electron (beta)  Energy = -877.36442235128402
 Total Coulomb        Energy = 671.74229142826221
    4    -915.3802047309      4.20e-04  
 Alpha HF Exchange    Energy =  -6.91641888539745
 Beta HF Exchange     Energy =  -6.75541194849990
 DFT Correlation      Energy =  -2.69563575757299
 DFT Exchange         Energy = -54.21717518218207
 One-Electron (alpha) Energy = -900.48263393663376
 One-Electron (beta)  Energy = -877.50813883136493
 Total Coulomb        Energy = 672.04629835923652
    5    -915.3818617153      1.42e-04  
 Alpha HF Exchange    Energy =  -6.91545526973051
 Beta HF Exchange     Energy =  -6.75482029496896
 DFT Correlation      Energy =  -2.69515180855732
 DFT Exchange         Energy = -54.21039628065930
 One-Electron (alpha) Energy = -900.39199000602196
 One-Electron (beta)  Energy = -877.43139961039014
 Total Coulomb        Energy = 671.86989064086822
    6    -915.3820681624      4.99e-05  
 Alpha HF Exchange    Energy =  -6.91543815791275
 Beta HF Exchange     Energy =  -6.75491451957882
 DFT Correlation      Energy =  -2.69508565329829
 DFT Exchange         Energy = -54.21045937712109
 One-Electron (alpha) Energy = -900.39509748108503
 One-Electron (beta)  Energy = -877.44085610765512
 Total Coulomb        Energy = 671.88250354948866
    7    -915.3820932801      1.23e-05  
 Alpha HF Exchange    Energy =  -6.91551141927249
 Beta HF Exchange     Energy =  -6.75504958092378
 DFT Correlation      Energy =  -2.69508684328666
 DFT Exchange         Energy = -54.21122842721454
 One-Electron (alpha) Energy = -900.40053003283992
 One-Electron (beta)  Energy = -877.44943110953955
 Total Coulomb        Energy = 671.89748694357866
    8    -915.3820960024      4.68e-06  
 Alpha HF Exchange    Energy =  -6.91547258734427
 Beta HF Exchange     Energy =  -6.75505009212845
 DFT Correlation      Energy =  -2.69506528820823
 DFT Exchange         Energy = -54.21104965114574
 One-Electron (alpha) Energy = -900.39679744182433
 One-Electron (beta)  Energy = -877.44811027489675
 Total Coulomb        Energy = 671.89219419791993
    9    -915.3820966705      2.20e-06  
 Alpha HF Exchange    Energy =  -6.91546820316480
 Beta HF Exchange     Energy =  -6.75505864867472
 DFT Correlation      Energy =  -2.69506262039016
 DFT Exchange         Energy = -54.21106044641913
 One-Electron (alpha) Energy = -900.39658586120879
 One-Electron (beta)  Energy = -877.44876677492516
 Total Coulomb        Energy = 671.89265109732094
   10    -915.3820969904      1.51e-06  
 Alpha HF Exchange    Energy =  -6.91546827427925
 Beta HF Exchange     Energy =  -6.75506333478400
 DFT Correlation      Energy =  -2.69506228795478
 DFT Exchange         Energy = -54.21107913942706
 One-Electron (alpha) Energy = -900.39658904358009
 One-Electron (beta)  Energy = -877.44925409605798
 Total Coulomb        Energy = 671.89316441905191
   11    -915.3820972899      1.39e-06  
 Alpha HF Exchange    Energy =  -6.91546546165848
 Beta HF Exchange     Energy =  -6.75506611007964
 DFT Correlation      Energy =  -2.69506069433587
 DFT Exchange         Energy = -54.21107819214296
 One-Electron (alpha) Energy = -900.39628675325332
 One-Electron (beta)  Energy = -877.44957177158744
 Total Coulomb        Energy = 671.89317672289008
   12    -915.3820977931      1.29e-06  
 Alpha HF Exchange    Energy =  -6.91545830151579
 Beta HF Exchange     Energy =  -6.75507545974250
 DFT Correlation      Energy =  -2.69505578258184
 DFT Exchange         Energy = -54.21108306137195
 One-Electron (alpha) Energy = -900.39557914189061
 One-Electron (beta)  Energy = -877.45086648614893
 Total Coulomb        Energy = 671.89376422568819
   13    -915.3820995405      9.64e-07  Convergence criterion met
 ---------------------------------------
 SCF time:   CPU 39.42s  wall 4.00s 
<S^2> =          2.002809893
 Alpha HF Exchange    Energy =  -6.91545830151579
 Beta HF Exchange     Energy =  -6.75507545974250
 DFT Correlation      Energy =  -2.69505578258184
 DFT Exchange         Energy = -54.21108306137195
 One-Electron (alpha) Energy = -900.39557914189061
 One-Electron (beta)  Energy = -877.45086648614893
 Total Coulomb        Energy = 671.89376422568819
 Nuclear repulsion Energy = 261.14725446710645
 SCF   energy in the final basis set =     -915.3820995405
 Total energy in the final basis set =     -915.3820995405
 
 --------------------------------------------------------------
 
                    Orbital Energies (a.u.)
 --------------------------------------------------------------
 
 Alpha MOs
 -- Occupied --
-88.895 -88.879 -10.235 -10.230 -10.206  -7.956  -7.941  -5.927
 -5.917  -5.908  -5.906  -5.903  -5.896  -0.832  -0.781  -0.708
 -0.626  -0.600  -0.496  -0.456  -0.433  -0.417  -0.387  -0.363
 -0.349  -0.333  -0.313  -0.286  -0.247  -0.241
 -- Virtual --
  0.015   0.041   0.078   0.092   0.113   0.135   0.147   0.156
  0.184   0.205   0.215   0.316   0.344   0.357   0.361   0.368
  0.385   0.388   0.401   0.496   0.511   0.515   0.544   0.586
  0.625   0.635   0.647   0.731   0.735   0.747   0.761   0.776
  0.814   0.823   0.849   0.861   0.866   0.885   0.890   0.900
  0.934   0.939   0.958   1.023   1.106   1.145   1.159   1.339
  1.379   1.396   1.616   1.645   1.651   1.667   1.820   1.846
  1.954   1.954   1.966   1.987   2.045   2.052   2.074   2.093
  2.102   2.109   2.190   2.213   2.239   2.285   2.317   2.377
  2.480   2.562   2.593   2.620   2.701   2.755   2.786   2.793
  2.812   2.862   3.186   3.233   3.315   3.337   3.456   3.537
  3.903   3.980   4.242   4.410   4.615
 
 Beta MOs
 -- Occupied --
-88.890 -88.879 -10.235 -10.230 -10.206  -7.950  -7.941  -5.914
 -5.909  -5.906  -5.905  -5.903  -5.896  -0.829  -0.773  -0.696
 -0.614  -0.591  -0.492  -0.455  -0.427  -0.412  -0.386  -0.360
 -0.342  -0.332  -0.242  -0.235
 -- Virtual --
 -0.156  -0.066   0.017   0.047   0.080   0.094   0.115   0.136
  0.150   0.157   0.188   0.206   0.217   0.328   0.345   0.363
  0.369   0.384   0.394   0.396   0.405   0.498   0.517   0.518
  0.553   0.587   0.628   0.647   0.657   0.732   0.747   0.785
  0.813   0.822   0.831   0.849   0.853   0.867   0.892   0.894
  0.903   0.911   0.941   0.949   0.997   1.034   1.110   1.151
  1.164   1.340   1.381   1.399   1.617   1.646   1.652   1.668
  1.821   1.847   1.967   2.041   2.051   2.073   2.094   2.103
  2.106   2.160   2.163   2.179   2.201   2.215   2.240   2.287
  2.319   2.378   2.481   2.563   2.595   2.622   2.702   2.756
  2.787   2.795   2.814   2.863   3.188   3.235   3.316   3.338
  3.458   3.538   3.920   3.980   4.243   4.410   4.615
 --------------------------------------------------------------
 
          Ground-State Mulliken Net Atomic Charges

     Atom                 Charge (a.u.)    Spin (a.u.)
  --------------------------------------------------------
      1 S                    -0.039069       0.000685
      2 S                     0.012653       0.981620
      3 C                    -0.169505       0.015931
      4 C                    -0.331497      -0.000423
      5 C                    -0.365599      -0.030570
      6 H                     0.130447      -0.006118
      7 H                     0.129502       0.001009
      8 H                     0.136210       0.000191
      9 H                     0.135929       0.000709
     10 H                     0.153374       0.035413
     11 H                     0.150602       0.017360
     12 H                     0.057427      -0.000006
     13 H                    -0.000475       0.984198
  --------------------------------------------------------
  Sum of atomic charges =     0.000000
  Sum of spin   charges =     2.000000

 -----------------------------------------------------------------
                    Cartesian Multipole Moments
 -----------------------------------------------------------------
    Charge (ESU x 10^10)
                 0.0000
    Dipole Moment (Debye)
         X       0.9310      Y      -2.3131      Z       0.1604
       Tot       2.4986
    Quadrupole Moments (Debye-Ang)
        XX     -53.1371     XY      -3.4677     YY     -47.8316
        XZ      -0.8449     YZ      -0.9226     ZZ     -47.5606
    Octopole Moments (Debye-Ang^2)
       XXX      44.3003    XXY     -10.6305    XYY       4.4186
       YYY      -9.1979    XXZ      11.9168    XYZ       1.5104
       YYZ       3.1447    XZZ      -0.9552    YZZ      -4.3921
       ZZZ       7.8274
    Hexadecapole Moments (Debye-Ang^3)
      XXXX   -1437.4458   XXXY     -90.5223   XXYY    -284.0339
      XYYY     -49.4450   YYYY    -182.0259   XXXZ     -71.5803
      XXYZ     -17.4942   XYYZ     -24.3654   YYYZ     -24.4933
      XXZZ    -276.9360   XYZZ     -22.5671   YYZZ     -52.3338
      XZZZ     -67.9084   YZZZ     -25.6255   ZZZZ    -142.5309
 -----------------------------------------------------------------
 Calculating analytic gradient of the SCF energy
 Gradient of SCF Energy
            1           2           3           4           5           6
    1  -0.0000181  -0.0000552   0.0008457   0.0000007  -0.0001422  -0.0004562
    2   0.0000172   0.0001889  -0.0001888   0.0000443  -0.0002436   0.0003915
    3   0.0000098   0.0001867  -0.0000982   0.0000733  -0.0001469   0.0000180
            7           8           9          10          11          12
    1  -0.0000369   0.0000316  -0.0000513  -0.0000185  -0.0001256  -0.0000082
    2   0.0000505  -0.0000429   0.0000431   0.0000302  -0.0001285  -0.0000045
    3   0.0000154  -0.0000003  -0.0000207   0.0000162   0.0000091  -0.0000267
           13
    1   0.0000340
    2  -0.0001574
    3  -0.0000357
 Max gradient component =       8.457E-04
 RMS gradient           =       1.880E-04
 Gradient time:  CPU 11.13 s  wall 0.97 s
 Geometry Optimization Parameters
   NAtoms,    NIC,     NZ,  NCons,   NDum,   NFix, NCnnct, MaxDiis
       13      82       0       1       0       0       0       0

 Cartesian Hessian Update
 Hessian Updated using BFGS Update


** CONSTRAINED OPTIMIZATION IN DELOCALIZED INTERNAL COORDINATES **
   Searching for a Minimum

   Optimization Cycle:   4

                       Coordinates (Angstroms)
     ATOM                X               Y               Z
      1  S         2.6223895471    0.6180715026    0.1811228430
      2  S        -2.8978160172    0.0293336904   -0.4760223362
      3  C        -0.0871694016    0.1855619329   -0.1546423817
      4  C         1.2221194460   -0.5802853998    0.0560416638
      5  C        -1.2737320745   -0.7723732408   -0.3202049943
      6  H        -0.2788452596    0.8538019068    0.6923342479
      7  H        -0.0054812379    0.8190356227   -1.0450769145
      8  H         1.1748360825   -1.1723099490    0.9749740191
      9  H         1.4061138234   -1.2577104805   -0.7832613973
     10  H        -1.3718873314   -1.4286555480    0.5582299404
     11  H        -1.1355500671   -1.4426353026   -1.1772223732
     12  H         3.5981364761   -0.2950813924    0.3546126980
     13  H        -1.8649119859    1.8668466579    2.3180169848
   Point Group: c1    Number of degrees of freedom:    33


   Energy is   -915.382099540

              Constraints and their Current Values
                                        Value     Constraint
   Distance(Angs):        2  13             3.500000     3.500000
 Hessian Updated using BFGS Update

 32 Hessian modes will be used to form the next step
  Hessian Eigenvalues:
     0.033185    0.068750    0.102496    0.102502    0.105446    0.149999
     0.161025    0.177122    0.180426    0.189615    0.193190    0.200259
     0.222261    0.282155    0.325586    0.364243    0.364430    0.369918
     0.382669    0.456255    0.502517    0.517411    0.566305    0.588139
     0.666628    0.681004    0.760573    0.765715    0.777289    0.778243
     0.782027    0.782779

 Minimum Search - Taking Simple RFO Step
 Searching for Lamda that Minimizes Along All modes
 Value Taken    Lamda =  -0.00000214
 Step Taken.  Stepsize is  0.004124

                             Maximum     Tolerance    Cnvgd?
         Gradient           0.000291      0.000300     YES
         Displacement       0.002061      0.001200      NO
[...]
   H ( 11)  4.487899  2.399715  2.185914  2.789683  1.096605  3.081989
   H ( 12)  1.347608  6.557866  3.751961  2.411996  4.938889  4.055669
   H ( 13)  5.130438  3.500000  3.476371  4.544469  3.776410  2.488323
             H (  7)   H (  8)   H (  9)   H ( 10)   H ( 11)   H ( 12)
   H (  8)  3.071703
   H (  9)  2.525802  1.775398
   H ( 10)  3.080073  2.589386  3.083629
   H ( 11)  2.526315  3.164289  2.569578  1.751815
   H ( 12)  4.023594  2.651107  2.650833  5.098156  5.097823
   H ( 13)  3.979462  4.505949  5.485283  3.772003  4.865932  6.200725

 
 Applying Cartesian multipole field
    Component          Value
    ---------          -----
     (2,0,0)        1.00000E-11
     (0,2,0)        2.00000E-11
     (0,0,2)       -3.00000E-11
 Nucleus-field energy     =     0.0000000103 hartrees
 Requested basis set is 6-31G(d,p)
 There are 46 shells and 123 basis functions
 A cutoff of  1.0D-14 yielded    992 shell pairs
 There are      7214 function pairs
 Smallest overlap matrix eigenvalue = 5.06E-03
 Guess from superposition of atomic densities
 Warning:  Energy on first SCF cycle will be non-variational
 SAD guess density has 58.000000 electrons

 -----------------------------------------------------------------------
  General SCF calculation program by
  Eric Jon Sundstrom, Paul Horn, Yuezhi Mao, Dmitri Zuev, Alec White,
  David Stuck, Shaama M.S., Shane Yost, Joonho Lee, David Small,
  Daniel Levine, Susi Lehtola, Hugh Burton, Evgeny Epifanovsky
 -----------------------------------------------------------------------
 Exchange:     0.2000 Hartree-Fock + 0.0800 Slater + 0.7200 B88
 Correlation:  0.1900 VWN1RPA + 0.8100 LYP
 Using SG-1 standard quadrature grid
 using 12 threads for integral computing
 -------------------------------------------------------
 OpenMP Integral computing Module                
 Release: version 1.0, May 2013, Q-Chem Inc. Pittsburgh 
 -------------------------------------------------------
 -------------------------------------------------------
 OpenMP BLAS3 based DFT computing Module                
 Release: version 1.0, May 2013, Q-Chem Inc. Pittsburgh 
 -------------------------------------------------------
 A unrestricted SCF calculation will be
 performed using DIIS
 SCF converges when DIIS error is below 1.0e-06
 Alpha HF Exchange    Energy =  -6.83593082780964
 Beta HF Exchange     Energy =  -6.83593082780964
 DFT Correlation      Energy =  -2.70128912449674
 DFT Exchange         Energy = -53.82230737594747
 One-Electron (alpha) Energy = -887.17863325765472
 One-Electron (beta)  Energy = -887.17863325765472
 Total Coulomb        Energy = 667.49296631225252
 ---------------------------------------
  Cycle       Energy         DIIS error
 ---------------------------------------
    1    -915.8957294022      2.70e-02  
 Alpha HF Exchange    Energy =  -6.93423556575309
 Beta HF Exchange     Energy =  -6.77426040458779
 DFT Correlation      Energy =  -2.70867804952899
 DFT Exchange         Energy = -54.38935580136235
 One-Electron (alpha) Energy = -902.13076753445353
 One-Electron (beta)  Energy = -879.06207269905383
 Total Coulomb        Energy = 675.51772733954033
    2    -915.3176137583      2.67e-03  
 Alpha HF Exchange    Energy =  -6.89358637673637
 Beta HF Exchange     Energy =  -6.72969465614899
 DFT Correlation      Energy =  -2.68514297856899
 DFT Exchange         Energy = -54.01732715508918
 One-Electron (alpha) Energy = -898.56538042041484
 One-Electron (beta)  Energy = -875.57071428852737
 Total Coulomb        Energy = 668.00504498681835
    3    -915.2927719318      3.26e-03  
 Alpha HF Exchange    Energy =  -6.91374742076853
 Beta HF Exchange     Energy =  -6.75304750346232
 DFT Correlation      Energy =  -2.69559497443720
 DFT Exchange         Energy = -54.19865961437598
 One-Electron (alpha) Energy = -900.35932032197661
 One-Electron (beta)  Energy = -877.38177674430915
 Total Coulomb        Energy = 671.75790851783165
    4    -915.3802091046      4.20e-04  
 Alpha HF Exchange    Energy =  -6.91649182177608
 Beta HF Exchange     Energy =  -6.75548279930244
 DFT Correlation      Energy =  -2.69568111376503
 DFT Exchange         Energy = -54.21769096378857
 One-Electron (alpha) Energy = -900.49683508617147
 One-Electron (beta)  Energy = -877.52539645999366
 Total Coulomb        Energy = 672.06168219055212
    5    -915.3818670973      1.42e-04  
 Alpha HF Exchange    Energy =  -6.91552989786669
 Beta HF Exchange     Energy =  -6.75489329844400
 DFT Correlation      Energy =  -2.69519768022106
 DFT Exchange         Energy = -54.21092654588177
 One-Electron (alpha) Energy = -900.40638683619625
 One-Electron (beta)  Energy = -877.44886951455419
 Total Coulomb        Energy = 671.88570101577727
    6    -915.3820738005      4.99e-05  
 Alpha HF Exchange    Energy =  -6.91551172558357
 Beta HF Exchange     Energy =  -6.75498704771768
 DFT Correlation      Energy =  -2.69513118463137
 DFT Exchange         Energy = -54.21098295445213
 One-Electron (alpha) Energy = -900.40939932858362
 One-Electron (beta)  Energy = -877.45824498597369
 Total Coulomb        Energy = 671.89812935783186
    7    -915.3820989122      1.23e-05  
 Alpha HF Exchange    Energy =  -6.91558506750570
 Beta HF Exchange     Energy =  -6.75512229407654
 DFT Correlation      Energy =  -2.69513238374377
 DFT Exchange         Energy = -54.21175305806854
 One-Electron (alpha) Energy = -900.41483712142917
 One-Electron (beta)  Energy = -877.46683931271366
 Total Coulomb        Energy = 671.91313862271761
    8    -915.3821016579      4.67e-06  
 Alpha HF Exchange    Energy =  -6.91554595365895
 Beta HF Exchange     Energy =  -6.75512276183767
 DFT Correlation      Energy =  -2.69511072569098
 DFT Exchange         Energy = -54.21157286747335
 One-Electron (alpha) Energy = -900.41108429148915
 One-Electron (beta)  Energy = -877.46551224290317
 Total Coulomb        Energy = 671.90781753364513
    9    -915.3821023525      2.21e-06  
 Alpha HF Exchange    Energy =  -6.91554176519193
 Beta HF Exchange     Energy =  -6.75513147261157
 DFT Correlation      Energy =  -2.69510813349229
 DFT Exchange         Energy = -54.21158514165423
 One-Electron (alpha) Energy = -900.41089075794946
 One-Electron (beta)  Energy = -877.46618975829506
 Total Coulomb        Energy = 671.90831537834185
   10    -915.3821026939      1.56e-06  
 Alpha HF Exchange    Energy =  -6.91554176709627
 Beta HF Exchange     Energy =  -6.75513616681050
 DFT Correlation      Energy =  -2.69510775574816
 DFT Exchange         Energy = -54.21160359284001
 One-Electron (alpha) Energy = -900.41088565432551
 One-Electron (beta)  Energy = -877.46667921076403
 Total Coulomb        Energy = 671.90882217163255
   11    -915.3821030190      1.44e-06  
 Alpha HF Exchange    Energy =  -6.91553881778886
 Beta HF Exchange     Energy =  -6.75513908575224
 DFT Correlation      Energy =  -2.69510606475175
 DFT Exchange         Energy = -54.21160262282883
 One-Electron (alpha) Energy = -900.41056964650681
 One-Electron (beta)  Energy = -877.46701453727133
 Total Coulomb        Energy = 671.90883824165246
   12    -915.3821035763      1.33e-06  
 Alpha HF Exchange    Energy =  -6.91553120586216
 Beta HF Exchange     Energy =  -6.75514917902244
 DFT Correlation      Energy =  -2.69510073921865
 DFT Exchange         Energy = -54.21160837618400
 One-Electron (alpha) Energy = -900.40981696137146
 One-Electron (beta)  Energy = -877.46840415158306
 Total Coulomb        Energy = 671.90947613993899
   13    -915.3821055164      9.81e-07  Convergence criterion met
 ---------------------------------------
 SCF time:   CPU 39.69s  wall 4.00s 
<S^2> =          2.002808074
 Alpha HF Exchange    Energy =  -6.91553120586216
 Beta HF Exchange     Energy =  -6.75514917902244
 DFT Correlation      Energy =  -2.69510073921865
 DFT Exchange         Energy = -54.21160837618400
 One-Electron (alpha) Energy = -900.40981696137146
 One-Electron (beta)  Energy = -877.46840415158306
 Total Coulomb        Energy = 671.90947613993899
 Nuclear repulsion Energy = 261.16402895691380
 SCF   energy in the final basis set =     -915.3821055164
 Total energy in the final basis set =     -915.3821055164
 
 --------------------------------------------------------------
 
                    Orbital Energies (a.u.)
 --------------------------------------------------------------
 
 Alpha MOs
 -- Occupied --
-88.895 -88.879 -10.235 -10.230 -10.206  -7.956  -7.941  -5.927
 -5.917  -5.908  -5.906  -5.903  -5.896  -0.832  -0.781  -0.708
 -0.626  -0.600  -0.496  -0.456  -0.433  -0.417  -0.388  -0.363
 -0.349  -0.333  -0.313  -0.286  -0.247  -0.241
 -- Virtual --
  0.015   0.041   0.078   0.091   0.112   0.135   0.147   0.156
  0.184   0.205   0.215   0.316   0.344   0.357   0.361   0.368
  0.385   0.388   0.401   0.496   0.511   0.515   0.544   0.586
  0.626   0.635   0.647   0.731   0.735   0.747   0.761   0.776
  0.814   0.823   0.849   0.861   0.866   0.885   0.891   0.900
  0.934   0.940   0.958   1.023   1.105   1.145   1.159   1.339
  1.380   1.396   1.616   1.645   1.652   1.667   1.821   1.847
  1.954   1.954   1.966   1.987   2.045   2.052   2.074   2.093
  2.102   2.109   2.190   2.213   2.240   2.285   2.317   2.377
  2.479   2.562   2.594   2.620   2.702   2.756   2.786   2.794
  2.813   2.863   3.186   3.234   3.315   3.337   3.456   3.538
  3.903   3.980   4.243   4.410   4.615
 
 Beta MOs
 -- Occupied --
-88.890 -88.879 -10.235 -10.230 -10.206  -7.950  -7.941  -5.914
 -5.909  -5.906  -5.905  -5.903  -5.896  -0.829  -0.773  -0.696
 -0.614  -0.591  -0.492  -0.455  -0.427  -0.412  -0.386  -0.360
 -0.342  -0.332  -0.242  -0.235
 -- Virtual --
 -0.156  -0.065   0.017   0.047   0.081   0.094   0.114   0.136
  0.150   0.158   0.188   0.206   0.217   0.328   0.345   0.363
  0.369   0.385   0.394   0.396   0.405   0.498   0.517   0.518
  0.553   0.588   0.629   0.647   0.657   0.732   0.747   0.785
  0.813   0.822   0.831   0.849   0.853   0.868   0.892   0.893
  0.903   0.911   0.942   0.949   0.997   1.034   1.110   1.151
  1.164   1.340   1.381   1.399   1.616   1.646   1.653   1.668
  1.821   1.848   1.968   2.041   2.051   2.073   2.094   2.103
  2.106   2.160   2.163   2.179   2.200   2.215   2.241   2.288
  2.320   2.378   2.480   2.564   2.595   2.622   2.703   2.756
  2.787   2.795   2.814   2.863   3.189   3.235   3.316   3.338
  3.458   3.539   3.920   3.980   4.243   4.410   4.616
 --------------------------------------------------------------
 
          Ground-State Mulliken Net Atomic Charges

     Atom                 Charge (a.u.)    Spin (a.u.)
  --------------------------------------------------------
      1 S                    -0.039216       0.000688
      2 S                     0.012769       0.981513
      3 C                    -0.169287       0.015708
      4 C                    -0.331674      -0.000424
      5 C                    -0.365638      -0.030562
      6 H                     0.130448      -0.006050
      7 H                     0.129470       0.001023
      8 H                     0.136251       0.000192
      9 H                     0.135865       0.000710
     10 H                     0.153365       0.035362
     11 H                     0.150682       0.017612
     12 H                     0.057448      -0.000011
     13 H                    -0.000483       0.984238
  --------------------------------------------------------
  Sum of atomic charges =     0.000000
  Sum of spin   charges =     2.000000

 -----------------------------------------------------------------
                    Cartesian Multipole Moments
 -----------------------------------------------------------------
    Charge (ESU x 10^10)
                 0.0000
    Dipole Moment (Debye)
         X       0.9317      Y      -2.3069      Z       0.1610
       Tot       2.4932
    Quadrupole Moments (Debye-Ang)
        XX     -53.1627     XY      -3.4849     YY     -47.8358
        XZ      -0.8369     YZ      -0.9193     ZZ     -47.5518
    Octopole Moments (Debye-Ang^2)
       XXX      44.3025    XXY     -10.5275    XYY       4.5037
       YYY      -8.8840    XXZ      11.8682    XYZ       1.5143
       YYZ       3.1765    XZZ      -0.9705    YZZ      -4.2986
       ZZZ       7.8497
    Hexadecapole Moments (Debye-Ang^3)
      XXXX   -1438.3736   XXXY     -91.0486   XXYY    -284.3317
      XYYY     -49.8515   YYYY    -181.8194   XXXZ     -71.1421
      XXYZ     -17.5248   XYYZ     -24.3151   YYYZ     -24.5372
      XXZZ    -277.0062   XYZZ     -22.6617   YYZZ     -52.2555
      XZZZ     -67.4705   YZZZ     -25.6101   ZZZZ    -142.1756
 -----------------------------------------------------------------
 Calculating analytic gradient of the SCF energy
 Gradient of SCF Energy
            1           2           3           4           5           6
    1   0.0000025   0.0000160   0.0000274  -0.0001252   0.0000269  -0.0000379
    2  -0.0000017  -0.0000014  -0.0002107  -0.0000408  -0.0000335   0.0002814
    3   0.0000030   0.0001541   0.0001518   0.0000590  -0.0001344  -0.0002074
            7           8           9          10          11          12
    1   0.0000023  -0.0000189   0.0000376  -0.0000285   0.0000509   0.0000097
    2  -0.0000105   0.0000011   0.0000020   0.0000482   0.0001213   0.0000066
    3   0.0000122  -0.0000330  -0.0000222   0.0000664   0.0000168  -0.0000294
           13
    1   0.0000372
    2  -0.0001621
    3  -0.0000369
 Max gradient component =       2.814E-04
 RMS gradient           =       8.993E-05
 Gradient time:  CPU 11.13 s  wall 0.97 s
 Geometry Optimization Parameters
   NAtoms,    NIC,     NZ,  NCons,   NDum,   NFix, NCnnct, MaxDiis
       13      82       0       1       0       0       0       0

 Cartesian Hessian Update
 Hessian Updated using BFGS Update


** CONSTRAINED OPTIMIZATION IN DELOCALIZED INTERNAL COORDINATES **
   Searching for a Minimum

   Optimization Cycle:   7

                       Coordinates (Angstroms)
     ATOM                X               Y               Z
      1  S         2.6233208865    0.6155530059    0.1786624420
      2  S        -2.8996548619    0.0229962394   -0.4753030919
      3  C        -0.0881214850    0.1876169731   -0.1521000227
      4  C         1.2206839582   -0.5803888525    0.0560012459
      5  C        -1.2724410547   -0.7710538884   -0.3188722295
      6  H        -0.2748143445    0.8554089509    0.6956694371
      7  H        -0.0063743032    0.8214080041   -1.0422833555
      8  H         1.1734469400   -1.1718149796    0.9752507544
      9  H         1.4028992442   -1.2586055940   -0.7831169228
     10  H        -1.3688345154   -1.4306958700    0.5572722072
     11  H        -1.1298375822   -1.4372729101   -1.1781505568
     12  H         3.5978684755   -0.2989523225    0.3518249176
     13  H        -1.8699393576    1.8694012437    2.3140471752
   Point Group: c1    Number of degrees of freedom:    33


   Energy is   -915.382105516

              Constraints and their Current Values
                                        Value     Constraint
   Distance(Angs):        2  13             3.500000     3.500000
 Hessian Updated using BFGS Update

 32 Hessian modes will be used to form the next step
  Hessian Eigenvalues:
     0.008806    0.035490    0.093837    0.102501    0.102542    0.145561
     0.157253    0.174210    0.179603    0.181212    0.191264    0.193189
     0.216876    0.282104    0.324638    0.354898    0.364305    0.364726
     0.380812    0.454396    0.502532    0.517455    0.561679    0.588137
     0.619700    0.662638    0.748019    0.765048    0.773212    0.777865
     0.781811    0.782128

 Minimum Search - Taking Simple RFO Step
 Searching for Lamda that Minimizes Along All modes
 Value Taken    Lamda =  -0.00000250
 Step Taken.  Stepsize is  0.015326

                             Maximum     Tolerance    Cnvgd?
         Gradient           0.000126      0.000300     YES
         Displacement       0.007330      0.001200      NO
         Energy change     -0.000001      0.000001     YES


                       Distance Matrix (Angstroms)
             S (  1)   S (  2)   C (  3)   C (  4)   C (  5)   H (  6)
   S (  2)  5.593036
   C (  3)  2.764860  2.834833
   C (  4)  1.847353  4.198041  1.531702
   C (  5)  4.164995  1.817364  1.532800  2.528350
   H (  6)  2.953644  2.992303  1.095223  2.169610  2.161003
   H (  7)  2.906610  3.054505  1.095810  2.162622  2.159209  1.758891
   H (  8)  2.435441  4.485737  2.170376  1.094091  2.796021  2.507043
   H (  9)  2.434526  4.499914  2.170918  1.094212  2.758745  3.077432
   H ( 10)  4.501976  2.350073  2.182286  2.771263  1.100931  2.538170
   H ( 11)  4.487899  2.399715  2.185914  2.789683  1.096605  3.081989
   H ( 12)  1.347608  6.557866  3.751961  2.411996  4.938889  4.055669
   H ( 13)  5.130438  3.500000  3.476371  4.544469  3.776410  2.488323
             H (  7)   H (  8)   H (  9)   H ( 10)   H ( 11)   H ( 12)
   H (  8)  3.071703
   H (  9)  2.525802  1.775398
   H ( 10)  3.080073  2.589386  3.083629
   H ( 11)  2.526315  3.164289  2.569578  1.751815
   H ( 12)  4.023594  2.651107  2.650833  5.098156  5.097823
   H ( 13)  3.979462  4.505949  5.485283  3.772003  4.865932  6.200725

 
 Final energy is   -915.382105516389     


 ******************************
 **  OPTIMIZATION CONVERGED  **
 ******************************

                       Coordinates (Angstroms)
     ATOM                X               Y               Z
      1  S         2.6233208865    0.6155530059    0.1786624420
      2  S        -2.8996548619    0.0229962394   -0.4753030919
      3  C        -0.0881214850    0.1876169731   -0.1521000227
      4  C         1.2206839582   -0.5803888525    0.0560012459
      5  C        -1.2724410547   -0.7710538884   -0.3188722295
      6  H        -0.2748143445    0.8554089509    0.6956694371
      7  H        -0.0063743032    0.8214080041   -1.0422833555
      8  H         1.1734469400   -1.1718149796    0.9752507544
      9  H         1.4028992442   -1.2586055940   -0.7831169228
     10  H        -1.3688345154   -1.4306958700    0.5572722072
     11  H        -1.1298375822   -1.4372729101   -1.1781505568
     12  H         3.5978684755   -0.2989523225    0.3518249176
     13  H        -1.8699393576    1.8694012437    2.3140471752

Z-matrix Print:
$molecule
0 3
S 
H  1 1.347608
C  1 1.847353 2 96.793369
H  3 1.094091 1 109.083425 2 59.076120 0
H  3 1.094212 1 109.010526 2 -59.177138 0
C  3 1.531702 1 109.462983 2 179.950096 0
H  6 1.095223 3 110.255840 1 -60.761258 0
H  6 1.095810 3 109.671476 1 56.556509 0
C  6 1.532800 3 111.186000 1 177.590568 0
H  9 1.096605 6 111.392228 3 -59.464397 0
H  9 1.100931 6 110.842805 3 57.957186 0
S  9 1.817364 6 115.334703 3 176.542286 0
H  7 2.488323 6 149.449288 3 -140.049838 0
$end

PES scan, value:    3.5000 energy: -915.3821055164
------- Summary of potential scan: ------ 
    3.5000      -915.3821055164
----------------------------------------- 
Archival summary:
1\1\hpc0250\JobtypUnspecified\ProcedureUnspecified\6-31G**\238(3)\knomura\ThuMar1409:53:402019ThuMar1409:53:402019\0\\#,JobtypUnspecified,ProcedureUnspecified,6-31G**,\\0,3\S\H,1,1.34761\C,1,1.84735,2,96.7934\H,3,1.09409,1,109.083,2,59.0761,0\H,3,1.09421,1,109.011,2,-59.1771,0\C,3,1.5317,1,109.463,2,179.95,0\H,6,1.09522,3,110.256,1,-60.7613,0\H,6,1.09581,3,109.671,1,56.5565,0\C,6,1.5328,3,111.186,1,177.591,0\H,9,1.09661,6,111.392,3,-59.4644,0\H,9,1.10093,6,110.843,3,57.9572,0\S,9,1.81736,6,115.335,3,176.542,0\H,7,2.48832,6,149.449,3,-140.05,0\\\@

 Total job time:  33.78s(wall), 389.51s(cpu) 
 Thu Mar 14 09:53:40 2019

        *************************************************************
        *                                                           *
        *  Thank you very much for using Q-Chem.  Have a nice day.  *
        *                                                           *
        *************************************************************


