
Running Job 1 of 1 thiol/04/S-H.xyz.data/inputs/bond_triplet_1.4.in
qchem thiol/04/S-H.xyz.data/inputs/bond_triplet_1.4.in_12866.0 /staging/scratch/2868767/qchem12866/ 1
/usr/usc/qchem/5.1.1/exe/qcprog.exe_s thiol/04/S-H.xyz.data/inputs/bond_triplet_1.4.in_12866.0 /staging/scratch/2868767/qchem12866/
Check license passed

                  Welcome to Q-Chem
     A Quantum Leap Into The Future Of Chemistry


 Q-Chem 5.1, Q-Chem, Inc., Pleasanton, CA (2018)

 Yihan Shao,  Zhengting Gan,  E. Epifanovsky,  A. T. B. Gilbert,  M. Wormit,  
 J. Kussmann,  A. W. Lange,  A. Behn,  Jia Deng,  Xintian Feng,  D. Ghosh,  
 M. Goldey,  P. R. Horn,  L. D. Jacobson,  I. Kaliman,  T. Kus,  A. Landau,  
 Jie Liu,  E. I. Proynov,  R. M. Richard,  R. P. Steele,  E. J. Sundstrom,  
 H. L. Woodcock III,  P. M. Zimmerman,  D. Zuev,  B. Albrecht,  E. Alguire,  
 S. A. Baeppler,  D. Barton,  Z. Benda,  Y. A. Bernard,  E. J. Berquist,  
 K. B. Bravaya,  H. Burton,  D. Casanova,  Chun-Min Chang,  Yunqing Chen,  
 A. Chien,  K. D. Closser,  M. P. Coons,  S. Coriani,  S. Dasgupta,  
 A. L. Dempwolff,  M. Diedenhofen,  Hainam Do,  R. G. Edgar,  Po-Tung Fang,  
 S. Faraji,  S. Fatehi,  Qingguo Feng,  K. D. Fenk,  J. Fosso-Tande,  
 Qinghui Ge,  A. Ghysels,  G. Gidofalvi,  J. Gomes,  J. Gonthier,  A. Gunina,  
 D. Hait,  M. W. D. Hanson-Heine,  P. H. P. Harbach,  A. W. Hauser,  
 J. E. Herr,  E. G. Hohenstein,  Z. C. Holden,  Kerwin Hui,  B. C. Huynh,  
 T.-C. Jagau,  Hyunjun Ji,  B. Kaduk,  K. Khistyaev,  Jaehoon Kim,  
 P. Klunzinger,  K. Koh,  D. Kosenkov,  L. Koulias,  T. Kowalczyk,  
 C. M. Krauter,  A. Kunitsa,  Ka Un Lao,  A. Laurent,  K. V. Lawler,  
 Joonho Lee,  D. Lefrancois,  S. Lehtola,  D. S. Levine,  Yi-Pei Li,  
 You-Sheng Lin,  Fenglai Liu,  E. Livshits,  A. Luenser,  P. Manohar,  
 E. Mansoor,  S. F. Manzer,  Shan-Ping Mao,  Yuezhi Mao,  N. Mardirossian,  
 A. V. Marenich,  T. Markovich,  L. A. Martinez-Martinez,  S. A. Maurer,  
 N. J. Mayhall,  S. C. McKenzie,  J.-M. Mewes,  A. F. Morrison,  
 J. W. Mullinax,  K. Nanda,  T. S. Nguyen-Beck,  R. Olivares-Amaya,  
 J. A. Parkhill,  T. M. Perrine,  F. Plasser,  P. Pokhilko,  S. Prager,  
 A. Prociuk,  E. Ramos,  D. R. Rehn,  F. Rob,  M. Schneider,  N. Sergueev,  
 S. M. Sharada,  S. Sharma,  D. W. Small,  T. Stauch,  T. Stein,  
 Yu-Chuan Su,  A. J. W. Thom,  A. Tkatchenko,  T. Tsuchimochi,  N. M. Tubman,  
 L. Vogt,  M. L. Vidal,  O. Vydrov,  M. A. Watson,  J. Wenzel,  
 M. de Wergifosse,  T. A. Wesolowski,  A. White,  J. Witte,  A. Yamada,  
 Jun Yang,  K. Yao,  S. Yeganeh,  S. R. Yost,  Zhi-Qiang You,  A. Zech,  
 Igor Ying Zhang,  Xing Zhang,  Yan Zhao,  Ying Zhu,  B. R. Brooks,  
 G. K. L. Chan,  C. J. Cramer,  M. S. Gordon,  W. J. Hehre,  A. Klamt,  
 M. W. Schmidt,  C. D. Sherrill,  D. G. Truhlar,  A. Aspuru-Guzik,  R. Baer,  
 A. T. Bell,  N. A. Besley,  Jeng-Da Chai,  A. E. DePrince, III,  
 R. A. DiStasio Jr.,  A. Dreuw,  B. D. Dunietz,  T. R. Furlani,  
 Chao-Ping Hsu,  Yousung Jung,  Jing Kong,  D. S. Lambrecht,  WanZhen Liang,  
 C. Ochsenfeld,  V. A. Rassolov,  L. V. Slipchenko,  J. E. Subotnik,  
 T. Van Voorhis,  J. M. Herbert,  A. I. Krylov,  P. M. W. Gill,  M. Head-Gordon

 Contributors to earlier versions of Q-Chem not listed above: 
 R. D. Adamson,  B. Austin,  J. Baker,  G. J. O. Beran,  K. Brandhorst,  
 S. T. Brown,  E. F. C. Byrd,  A. K. Chakraborty,  C.-L. Cheng,  
 Siu Hung Chien,  D. M. Chipman,  D. L. Crittenden,  H. Dachsel,  
 R. J. Doerksen,  A. D. Dutoi,  L. Fusti-Molnar,  W. A. Goddard III,  
 A. Golubeva-Zadorozhnaya,  S. R. Gwaltney,  G. Hawkins,  A. Heyden,  
 S. Hirata,  G. Kedziora,  F. J. Keil,  C. Kelley,  Jihan Kim,  R. A. King,  
 R. Z. Khaliullin,  P. P. Korambath,  W. Kurlancheek,  A. M. Lee,  M. S. Lee,  
 S. V. Levchenko,  Ching Yeh Lin,  D. Liotard,  R. C. Lochan,  I. Lotan,  
 P. E. Maslen,  N. Nair,  D. P. O'Neill,  D. Neuhauser,  E. Neuscamman,  
 C. M. Oana,  R. Olson,  B. Peters,  R. Peverati,  P. A. Pieniazek,  
 Y. M. Rhee,  J. Ritchie,  M. A. Rohrdanz,  E. Rosta,  N. J. Russ,  
 H. F. Schaefer III,  N. E. Schultz,  N. Shenvi,  A. C. Simmonett,  A. Sodt,  
 D. Stuck,  K. S. Thanthiriwatte,  V. Vanovschi,  Tao Wang,  A. Warshel,  
 C. F. Williams,  Q. Wu,  X. Xu,  W. Zhang

 Please cite Q-Chem as follows:
 Y. Shao et al., Mol. Phys. 113, 184-215 (2015)
 DOI: 10.1080/00268976.2014.952696

 Q-Chem 5.1.1 for Intel X86 EM64T Linux

 Parts of Q-Chem use Armadillo 8.300.2 (Tropical Shenanigans).
 http://arma.sourceforge.net/

 Q-Chem begins on Thu Mar 14 10:13:32 2019  

Host: 
0

     Scratch files written to /staging/scratch/2868767/qchem12866//
 Aug318 |scratch|qcdevops|jenkins|workspace|build_RNUM 6013   
Processing $rem in /usr/usc/qchem/5.1.1/config/preferences.
 MEM_TOTAL  2000 
Input Ideriv = 2
Curr. Ideriv = -1
Max.  Ideriv = 2

Checking the input file for inconsistencies... 	...done.

--------------------------------------------------------------
User input:
--------------------------------------------------------------

$comment
potential surface scanner
$end

$rem
JOBTYPE  PES_SCAN
UNRESTRICTED TRUE
SYM_IGNORE  TRUE
GEOM_OPT_MAX_CYCLES 400
SCF_MAX_CYCLES 400
METHOD   B3LYP
BASIS   6-31G**
PDB_PRINT 2
SCF_CONVERGENCE 6
THRESH 14
SCF_PRINT 1
$end
$molecule
0 3
S 2.831461 0.294198 0.412320
S -3.364921 1.193705 0.545102
C 0.068607 0.240078 0.256458
C 1.295818 -0.641922 -0.021289
C -1.215379 -0.477887 -0.100366
H 0.058680 0.522736 1.315101
H 0.149845 1.167711 -0.320870
H 1.250222 -1.554238 0.579530
H 1.332593 -0.920206 -1.077995
H -1.432704 -1.368742 0.494427
H -1.364752 -0.666284 -1.166445
H 3.707139 -0.670724 0.068537
H -2.208409 0.305175 0.194398
$end
$scan
stre 2 13 1.400000 1.401000 0.100000
$end
--------------------------------------------------------------
 ----------------------------------------------------------------
             Standard Nuclear Orientation (Angstroms)
    I     Atom           X                Y                Z
 ----------------------------------------------------------------
    1      S       2.8314610000     0.2941980000     0.4123200000
    2      S      -3.3649210000     1.1937050000     0.5451020000
    3      C       0.0686070000     0.2400780000     0.2564580000
    4      C       1.2958180000    -0.6419220000    -0.0212890000
    5      C      -1.2153790000    -0.4778870000    -0.1003660000
    6      H       0.0586800000     0.5227360000     1.3151010000
    7      H       0.1498450000     1.1677110000    -0.3208700000
    8      H       1.2502220000    -1.5542380000     0.5795300000
    9      H       1.3325930000    -0.9202060000    -1.0779950000
   10      H      -1.4327040000    -1.3687420000     0.4944270000
   11      H      -1.3647520000    -0.6662840000    -1.1664450000
   12      H       3.7071390000    -0.6707240000     0.0685370000
   13      H      -2.2084090000     0.3051750000     0.1943980000
 ----------------------------------------------------------------
 Nuclear Repulsion Energy =   245.4341437407 hartrees
 There are       30 alpha and       28 beta electrons
 Requested basis set is 6-31G(d,p)
 There are 46 shells and 123 basis functions

 Total QAlloc Memory Limit   2000 MB
 Mega-Array Size       188 MB
 MEM_STATIC part       192 MB
A total of 1 constraints
  
            1
    1   1.0100000
    2   2.0100000
    3  13.0100000
    4   1.4000000
    5   1.4010000
    6   0.1000000
    7   0.0000000
    8   0.0000000
    9   0.0000000
   10   0.0000000

                       Distance Matrix (Angstroms)
             S (  1)   S (  2)   C (  3)   C (  4)   C (  5)   H (  6)
   S (  2)  6.262739
   C (  3)  2.767776  3.575169
   C (  4)  1.850010  5.041112  1.536592
   C (  5)  4.151611  2.798460  1.513743  2.517791
   H (  6)  2.924988  3.572694  1.095773  2.161684  2.151283
   H (  7)  2.914045  3.619967  1.095632  2.162816  2.149524  1.760882
   H (  8)  2.438235  5.371398  2.172593  1.093336  2.774883  2.504927
   H (  9)  2.437708  5.400898  2.173634  1.093354  2.764700  3.071131
   H ( 10)  4.577687  3.209699  2.213338  2.870377  1.092992  2.544685
   H ( 11)  4.585109  3.223295  2.213744  2.896655  1.092854  3.098064
   H ( 12)  1.347618  7.329205  3.755501  2.413165  4.929188  4.036028
   H ( 13)  5.044591  1.500000  2.278792  3.636361  1.298530  2.538307
             H (  7)   H (  8)   H (  9)   H ( 10)   H ( 11)   H ( 12)
   H (  8)  3.070921
   H (  9)  2.516253  1.776561
   H ( 10)  3.098833  2.690677  3.212563
   H ( 11)  2.524389  3.267259  2.710714  1.804594
   H ( 12)  4.023161  2.660480  2.648631  5.204479  5.220084
   H ( 13)  2.563363  3.945614  3.957175  1.869153  1.872801  5.996826

 
 A cutoff of  1.0D-14 yielded    990 shell pairs
 There are      7113 function pairs
 
 -------------------------------------------------------
 OpenMP Integral Computing Module                       
 Release: version 1.0, May 2013, Q-Chem Inc. Pittsburgh 
 -------------------------------------------------------
 Integral Job Info:
 Integral job number is                      11
 Integral operator is                         1
 short-range coefficients                     0
 long-range coefficients              100000000
 Omega coefficients                           0
 if combine SR and LR in K                    0
 Integral screening is                        0
 Integral computing path is                   2
 max size of driver memory is            800000
 size of driver memory is                593474
 size of scratch memory is             15267112
 max col of scratch BK array               1296
 max len of scratch array in speh3          155
 max len of scratch index in speh4           18
 max int batch size is                      520
 min int batch size is                       52
 fixed nKL is                                52
 max L of basis functions is                  2
 order of int derivative is                   0
 number of shells is                         46
 number of basis is                         123
 number of cartesian basis is               123
 number of contracted shell pairs           990
 number of primitive shell pairs           3712
 maxK2 (contraction) of shell pair           36
 max number of K2 of shell pair               1
 max number of CS2 of shell pair             80
 max number of PS2 of shell pair            348
 mem total for path MDJ                  517212
 -------------------------------------------------------
 Smallest overlap matrix eigenvalue = 4.50E-03

 Scale SEOQF with 1.000000e-01/1.000000e-01/1.000000e+00

 Standard Electronic Orientation quadrupole field applied
 Nucleus-field energy     =     0.0000000014 hartrees
 Guess from superposition of atomic densities
 Warning:  Energy on first SCF cycle will be non-variational
 SAD guess density has 58.000000 electrons

 -----------------------------------------------------------------------
  General SCF calculation program by
  Eric Jon Sundstrom, Paul Horn, Yuezhi Mao, Dmitri Zuev, Alec White,
  David Stuck, Shaama M.S., Shane Yost, Joonho Lee, David Small,
  Daniel Levine, Susi Lehtola, Hugh Burton, Evgeny Epifanovsky
 -----------------------------------------------------------------------
 Exchange:     0.2000 Hartree-Fock + 0.0800 Slater + 0.7200 B88
 Correlation:  0.1900 VWN1RPA + 0.8100 LYP
 Using SG-1 standard quadrature grid
 using 12 threads for integral computing
 -------------------------------------------------------
 OpenMP Integral computing Module                
 Release: version 1.0, May 2013, Q-Chem Inc. Pittsburgh 
 -------------------------------------------------------
 -------------------------------------------------------
 OpenMP BLAS3 based DFT computing Module                
 Release: version 1.0, May 2013, Q-Chem Inc. Pittsburgh 
 -------------------------------------------------------
 A unrestricted SCF calculation will be
 performed using DIIS
 SCF converges when DIIS error is below 1.0e-06
 Alpha HF Exchange    Energy =  -6.84017518030557
 Beta HF Exchange     Energy =  -6.84017518030557
 DFT Correlation      Energy =  -2.70397470415681
 DFT Exchange         Energy = -53.83839100941739
 One-Electron (alpha) Energy = -871.40917094667191
 One-Electron (beta)  Energy = -871.40917094667191
 Total Coulomb        Energy = 651.69903403622891
 ---------------------------------------
  Cycle       Energy         DIIS error
 ---------------------------------------
    1    -915.9078801892      2.64e-02  
 Alpha HF Exchange    Energy =  -6.95760845060178
 Beta HF Exchange     Energy =  -6.75993630881722
 DFT Correlation      Energy =  -2.72082862846194
 DFT Exchange         Energy = -54.43599867024604
 One-Electron (alpha) Energy = -888.92754908653558
 One-Electron (beta)  Energy = -860.87775030559442
 Total Coulomb        Energy = 659.89743453409255
    2    -915.3480931741      2.74e-03  
 Alpha HF Exchange    Energy =  -6.91014302344478
 Beta HF Exchange     Energy =  -6.71576446224197
 DFT Correlation      Energy =  -2.69641082995943
 DFT Exchange         Energy = -54.03196891913256
 One-Electron (alpha) Energy = -885.51471239289060
 One-Electron (beta)  Energy = -857.34271213621003
 Total Coulomb        Energy = 652.45496095256840
    3    -915.3226070692      3.32e-03  
 Alpha HF Exchange    Energy =  -6.93259362329614
 Beta HF Exchange     Energy =  -6.73650213389517
 DFT Correlation      Energy =  -2.70747958025404
 DFT Exchange         Energy = -54.21414449630126
 One-Electron (alpha) Energy = -887.23578919876456
 One-Electron (beta)  Energy = -858.95941532094650
 Total Coulomb        Energy = 655.93765574386248
    4    -915.4141248675      4.25e-04  
 Alpha HF Exchange    Energy =  -6.93644255074220
 Beta HF Exchange     Energy =  -6.73872584807051
 DFT Correlation      Energy =  -2.70804243197726
 DFT Exchange         Energy = -54.23689717516072
 One-Electron (alpha) Energy = -887.46228274246721
 One-Electron (beta)  Energy = -859.08095283004843
 Total Coulomb        Energy = 656.31332819088880
    5    -915.4158716455      1.34e-04  
 Alpha HF Exchange    Energy =  -6.93557887757029
 Beta HF Exchange     Energy =  -6.73782625220443
 DFT Correlation      Energy =  -2.70762299133421
 DFT Exchange         Energy = -54.22939597370024
 One-Electron (alpha) Energy = -887.38799556532217
 One-Electron (beta)  Energy = -858.99230391709023
 Total Coulomb        Energy = 656.14053188954870
    6    -915.4160479456      5.13e-05  
 Alpha HF Exchange    Energy =  -6.93564131341439
 Beta HF Exchange     Energy =  -6.73785497137198
 DFT Correlation      Energy =  -2.70760302954273
 DFT Exchange         Energy = -54.22954894565419
 One-Electron (alpha) Energy = -887.39961041290701
 One-Electron (beta)  Energy = -858.99611334848350
 Total Coulomb        Energy = 656.15615881673227
    7    -915.4160694626      1.59e-05  
 Alpha HF Exchange    Energy =  -6.93576003090139
 Beta HF Exchange     Energy =  -6.73790051038922
 DFT Correlation      Energy =  -2.70761515841072
 DFT Exchange         Energy = -54.23014653923001
 One-Electron (alpha) Energy = -887.40722497193042
 One-Electron (beta)  Energy = -858.99766534559240
 Total Coulomb        Energy = 656.16609690173755
    8    -915.4160719126      4.56e-06  
 Alpha HF Exchange    Energy =  -6.93573852553893
 Beta HF Exchange     Energy =  -6.73787242294476
 DFT Correlation      Energy =  -2.70759946338108
 DFT Exchange         Energy = -54.22992832735702
 One-Electron (alpha) Energy = -887.40486267375434
 One-Electron (beta)  Energy = -858.99417778307100
 Total Coulomb        Energy = 656.15996331773397
    9    -915.4160721362      2.34e-06  
 Alpha HF Exchange    Energy =  -6.93574522102488
 Beta HF Exchange     Energy =  -6.73787868330333
 DFT Correlation      Energy =  -2.70760149079163
 DFT Exchange         Energy = -54.22997783179267
 One-Electron (alpha) Energy = -887.40573977927420
 One-Electron (beta)  Energy = -858.99482723530377
 Total Coulomb        Energy = 656.16155431293510
   10    -915.4160721865      8.05e-07  Convergence criterion met
 ---------------------------------------
 SCF time:   CPU 30.80s  wall 3.00s 
<S^2> =          2.006445418
 Alpha HF Exchange    Energy =  -6.93574522102488
 Beta HF Exchange     Energy =  -6.73787868330333
 DFT Correlation      Energy =  -2.70760149079163
 DFT Exchange         Energy = -54.22997783179267
 One-Electron (alpha) Energy = -887.40573977927420
 One-Electron (beta)  Energy = -858.99482723530377
 Total Coulomb        Energy = 656.16155431293510
 Nuclear repulsion Energy = 245.43414374207620
 SCF   energy in the final basis set =     -915.4160721865
 Total energy in the final basis set =     -915.4160721865
 
 --------------------------------------------------------------
 
                    Orbital Energies (a.u.)
 --------------------------------------------------------------
 
 Alpha MOs
 -- Occupied --
-88.895 -88.880 -10.233 -10.221 -10.211  -7.957  -7.942  -5.927
 -5.922  -5.908  -5.907  -5.904  -5.897  -0.827  -0.766  -0.720
 -0.660  -0.604  -0.494  -0.464  -0.453  -0.427  -0.390  -0.380
 -0.361  -0.335  -0.311  -0.264  -0.243  -0.237
 -- Virtual --
  0.019   0.065   0.088   0.117   0.127   0.137   0.159   0.165
  0.179   0.190   0.233   0.289   0.338   0.348   0.357   0.374
  0.376   0.385   0.388   0.492   0.506   0.516   0.556   0.566
  0.618   0.649   0.661   0.731   0.743   0.748   0.748   0.759
  0.766   0.809   0.830   0.848   0.856   0.866   0.881   0.897
  0.911   0.940   0.978   1.051   1.061   1.137   1.222   1.302
  1.349   1.395   1.604   1.613   1.650   1.661   1.802   1.839
  1.906   1.976   2.006   2.046   2.063   2.065   2.092   2.116
  2.131   2.205   2.232   2.236   2.335   2.375   2.466   2.483
  2.550   2.652   2.658   2.690   2.746   2.791   2.801   2.813
  2.851   3.030   3.212   3.277   3.329   3.382   3.468   3.519
  3.936   3.978   4.267   4.457   4.635
 
 Beta MOs
 -- Occupied --
-88.886 -88.880 -10.232 -10.213 -10.211  -7.948  -7.942  -5.908
 -5.907  -5.907  -5.904  -5.903  -5.897  -0.822  -0.752  -0.678
 -0.634  -0.600  -0.491  -0.454  -0.428  -0.424  -0.383  -0.366
 -0.360  -0.334  -0.243  -0.242
 -- Virtual --
 -0.162  -0.122   0.021   0.066   0.092   0.119   0.131   0.140
  0.161   0.183   0.185   0.193   0.241   0.312   0.350   0.361
  0.374   0.380   0.385   0.388   0.409   0.498   0.519   0.521
  0.563   0.577   0.624   0.666   0.671   0.732   0.746   0.794
  0.806   0.812   0.815   0.819   0.833   0.850   0.857   0.870
  0.891   0.900   0.914   0.946   1.014   1.052   1.068   1.137
  1.223   1.309   1.357   1.400   1.614   1.622   1.654   1.662
  1.808   1.843   1.923   1.977   2.015   2.046   2.064   2.066
  2.092   2.119   2.129   2.206   2.233   2.239   2.335   2.375
  2.467   2.484   2.553   2.654   2.665   2.695   2.747   2.794
  2.804   2.815   2.854   3.043   3.213   3.282   3.331   3.389
  3.473   3.520   3.963   3.979   4.270   4.467   4.642
 --------------------------------------------------------------
 
          Ground-State Mulliken Net Atomic Charges

     Atom                 Charge (a.u.)    Spin (a.u.)
  --------------------------------------------------------
      1 S                    -0.041239       0.013125
      2 S                    -0.068108       1.567959
      3 C                    -0.181609      -0.022479
      4 C                    -0.322485       0.019446
      5 C                    -0.280816       0.517770
      6 H                     0.133277       0.004771
      7 H                     0.132518       0.003791
      8 H                     0.138161      -0.000559
      9 H                     0.137861      -0.000575
     10 H                     0.136228      -0.011422
     11 H                     0.136832      -0.011225
     12 H                     0.058319       0.000728
     13 H                     0.021061      -0.081330
  --------------------------------------------------------
  Sum of atomic charges =     0.000000
  Sum of spin   charges =     2.000000

 -----------------------------------------------------------------
                    Cartesian Multipole Moments
 -----------------------------------------------------------------
    Charge (ESU x 10^10)
                 0.0000
    Dipole Moment (Debye)
         X       0.9691      Y      -2.4811      Z      -0.9927
       Tot       2.8427
    Quadrupole Moments (Debye-Ang)
        XX     -56.0026     XY      -1.3054     YY     -48.2468
        XZ      -0.6497     YZ      -1.2084     ZZ     -47.5704
    Octopole Moments (Debye-Ang^2)
       XXX      61.8891    XXY     -32.0265    XYY       9.7085
       YYY     -43.9614    XXZ     -19.8313    XYZ       4.2699
       YYZ     -15.1942    XZZ      -1.2083    YZZ     -14.3270
       ZZZ     -42.1422
    Hexadecapole Moments (Debye-Ang^3)
      XXXX   -1867.3140   XXXY     112.0285   XXYY    -342.7905
      XYYY     141.5898   YYYY    -238.8158   XXXZ      19.5174
      XXYZ     -16.7550   XYYZ      16.4445   YYYZ     -41.9073
      XXZZ    -325.4515   XYZZ      45.0114   YYZZ     -59.0820
      XZZZ      14.8917   YZZZ     -33.1656   ZZZZ    -116.7517
 -----------------------------------------------------------------
 Calculating analytic gradient of the SCF energy
 Gradient of SCF Energy
            1           2           3           4           5           6
    1   0.0000789   0.0316882   0.0000084  -0.0000064  -0.0001614  -0.0000243
    2  -0.0000318  -0.0243208  -0.0000793  -0.0000059   0.0001411   0.0000817
    3   0.0000555  -0.0095240   0.0000024   0.0000129   0.0000152  -0.0000789
            7           8           9          10          11          12
    1  -0.0001011  -0.0000282  -0.0000619   0.0000979   0.0000072   0.0000280
    2  -0.0001206   0.0000363   0.0000242   0.0000462  -0.0000210   0.0000489
    3   0.0000538   0.0000513   0.0000085  -0.0000415  -0.0000015  -0.0000350
           13
    1  -0.0315253
    2   0.0242011
    3   0.0094811
 Max gradient component =       3.169E-02
 RMS gradient           =       9.276E-03
 Gradient time:  CPU 10.74 s  wall 0.94 s
 Geometry Optimization Parameters
   NAtoms,    NIC,     NZ,  NCons,   NDum,   NFix, NCnnct, MaxDiis
       13      82       0       1       0       0       0       0


** CONSTRAINED OPTIMIZATION IN DELOCALIZED INTERNAL COORDINATES **
   Searching for a Minimum

   Optimization Cycle:   1

                       Coordinates (Angstroms)
     ATOM                X               Y               Z
      1  S         2.8314610000    0.2941980000    0.4123200000
      2  S        -3.3649210000    1.1937050000    0.5451020000
      3  C         0.0686070000    0.2400780000    0.2564580000
      4  C         1.2958180000   -0.6419220000   -0.0212890000
      5  C        -1.2153790000   -0.4778870000   -0.1003660000
      6  H         0.0586800000    0.5227360000    1.3151010000
      7  H         0.1498450000    1.1677110000   -0.3208700000
      8  H         1.2502220000   -1.5542380000    0.5795300000
      9  H         1.3325930000   -0.9202060000   -1.0779950000
     10  H        -1.4327040000   -1.3687420000    0.4944270000
     11  H        -1.3647520000   -0.6662840000   -1.1664450000
     12  H         3.7071390000   -0.6707240000    0.0685370000
     13  H        -2.2084090000    0.3051750000    0.1943980000
   Point Group: c1    Number of degrees of freedom:    33


   Energy is   -915.416072186

              Constraints and their Current Values
                                        Value     Constraint
   Distance(Angs):        2  13             1.500000     1.400000

 Attempting to Generate Delocalized Internal Coordinates

   Using Lagrange Multiplier Algorithm


 34 Hessian modes will be used to form the next step
  Hessian Eigenvalues:
    -0.919236    0.045000    0.045000    0.045000    0.069303    0.074844
     0.078584    0.079423    0.084947    0.085125    0.101895    0.123589
     0.130787    0.142344    0.160000    0.160000    0.160002    0.160003
     0.186738    0.200000    0.200000    0.219204    0.220682    0.225424
     0.258220    0.288230    0.309773    0.341539    0.341698    0.344280
     0.344300    0.344692    0.344849    1.087860

 Minimum Search - Taking P-RFO Step
 Searching for Lamda that Maximizes Along the Constraint modes Only
 Value Taken    Lamda =   0.02936899
 Searching for Lamda that Minimizes Along All other modes
 Value Taken    Lamda =  -0.00869848
 Step Taken.  Stepsize is  0.184673

                             Maximum     Tolerance    Cnvgd?
         Gradient            0.188972       0.000300      NO
         Displacement        0.184643       0.001200      NO
         Energy change     *********       0.000001      NO


 New Cartesian Coordinates Obtained by Inverse Iteration

 Displacement from previous Coordinates is:  0.174056
 ----------------------------------------------------------------
             Standard Nuclear Orientation (Angstroms)
    I     Atom           X                Y                Z
 ----------------------------------------------------------------
    1      S       2.8264894725     0.2943793158     0.4116243061
    2      S      -3.2943762326     1.1455730564     0.5254953966
    3      C       0.0640417251     0.2445986012     0.2585463773
    4      C       1.2894293998    -0.6395240413    -0.0208616090
    5      C      -1.2217610113    -0.4711452482    -0.0969842769
    6      H       0.0558314133     0.5267175893     1.3174314502
    7      H       0.1469907256     1.1723929126    -0.3186782726
    8      H       1.2431792057    -1.5520682434     0.5795553618
    9      H       1.3252878776    -0.9176741570    -1.0776573720
   10      H      -1.4406370109    -1.3617412372     0.4978618027
   11      H      -1.3722243829    -0.6591460814    -1.1629716304
   12      H       3.7000774643    -0.6723260108     0.0675330030
   13      H      -2.2141286463     0.3135635440     0.1980134630
 ----------------------------------------------------------------
 Nuclear Repulsion Energy =   247.6397682984 hartrees
 There are       30 alpha and       28 beta electrons

                       Distance Matrix (Angstroms)
             S (  1)   S (  2)   C (  3)   C (  4)   C (  5)   H (  6)
   S (  2)  6.180817
   C (  3)  2.767134  3.487404
   C (  4)  1.849804  4.949379  1.536658
   C (  5)  4.151270  2.701295  1.513929  2.517980
   H (  6)  2.924212  3.497719  1.095854  2.161692  2.151405
   H (  7)  2.912724  3.543495  1.095843  2.162615  2.150313  1.761267
   H (  8)  2.438122  5.279167  2.172884  1.093333  2.775253  2.505116
   H (  9)  2.437343  5.307390  2.174180  1.093376  2.765604  3.071520
   H ( 10)  4.578050  3.118291  2.213969  2.871225  1.093119  2.545071
   H ( 11)  4.584513  3.130910  2.213669  2.896412  1.092846  3.098066
   H ( 12)  1.347618  7.241331  3.754729  2.412491  4.928695  4.034908
   H ( 13)  5.045179  1.402291  2.280018  3.637472  1.299071  2.539931
             H (  7)   H (  8)   H (  9)   H ( 10)   H ( 11)   H ( 12)
   H (  8)  3.071016
   H (  9)  2.516508  1.776387
   H ( 10)  3.099861  2.691796  3.214000
   H ( 11)  2.524952  3.267116  2.711215  1.804630
   H ( 12)  4.022011  2.659410  2.647883  5.204558  5.219441
   H ( 13)  2.565042  3.947041  3.958630  1.869450  1.872765  5.997236

 
 Applying Cartesian multipole field
    Component          Value
    ---------          -----
     (2,0,0)        1.00000E-11
     (0,2,0)        2.00000E-11
     (0,0,2)       -3.00000E-10
 Nucleus-field energy     =     0.0000000014 hartrees
 Requested basis set is 6-31G(d,p)
 There are 46 shells and 123 basis functions
 A cutoff of  1.0D-14 yielded    995 shell pairs
 There are      7207 function pairs
 Smallest overlap matrix eigenvalue = 4.32E-03
 Guess from superposition of atomic densities
 Warning:  Energy on first SCF cycle will be non-variational
 SAD guess density has 58.000000 electrons

 -----------------------------------------------------------------------
  General SCF calculation program by
  Eric Jon Sundstrom, Paul Horn, Yuezhi Mao, Dmitri Zuev, Alec White,
  David Stuck, Shaama M.S., Shane Yost, Joonho Lee, David Small,
  Daniel Levine, Susi Lehtola, Hugh Burton, Evgeny Epifanovsky
 -----------------------------------------------------------------------
 Exchange:     0.2000 Hartree-Fock + 0.0800 Slater + 0.7200 B88
 Correlation:  0.1900 VWN1RPA + 0.8100 LYP
 Using SG-1 standard quadrature grid
 using 12 threads for integral computing
 -------------------------------------------------------
 OpenMP Integral computing Module                
 Release: version 1.0, May 2013, Q-Chem Inc. Pittsburgh 
 -------------------------------------------------------
 -------------------------------------------------------
 OpenMP BLAS3 based DFT computing Module                
 Release: version 1.0, May 2013, Q-Chem Inc. Pittsburgh 
 -------------------------------------------------------
 A unrestricted SCF calculation will be
 performed using DIIS
 SCF converges when DIIS error is below 1.0e-06
 Alpha HF Exchange    Energy =  -6.84530173875286
 Beta HF Exchange     Energy =  -6.84530173875286
 DFT Correlation      Energy =  -2.70554509374237
 DFT Exchange         Energy = -53.84944260139714
 One-Electron (alpha) Energy = -873.58668916858358
 One-Electron (beta)  Energy = -873.58668916858358
 Total Coulomb        Energy = 653.82494606802857
 ---------------------------------------
  Cycle       Energy         DIIS error
 ---------------------------------------
    1    -915.9542551420      2.68e-02  
 Alpha HF Exchange    Energy =  -6.96069536836489
 Beta HF Exchange     Energy =  -6.74979807493884
 DFT Correlation      Energy =  -2.72555585993799
 DFT Exchange         Energy = -54.44051523084526
 One-Electron (alpha) Energy = -891.29044260240505
 One-Electron (beta)  Energy = -862.31575257786881
 Total Coulomb        Energy = 661.67129193267226
    2    -915.1716994819      3.69e-03  
 Alpha HF Exchange    Energy =  -6.90353579528486
 Beta HF Exchange     Energy =  -6.73557222985013
 DFT Correlation      Energy =  -2.70285847839673
 DFT Exchange         Energy = -54.11820304536536
 One-Electron (alpha) Energy = -886.69110607112736
 One-Electron (beta)  Energy = -859.68071906481919
 Total Coulomb        Energy = 657.40044325823794
    3    -911.7917831268      1.20e-02  
 Alpha HF Exchange    Energy =  -6.92298181830993
 Beta HF Exchange     Energy =  -6.71442544773640
 DFT Correlation      Energy =  -2.70599177239690
 DFT Exchange         Energy = -54.11882548688621
 One-Electron (alpha) Energy = -888.79064816641528
 One-Electron (beta)  Energy = -860.07496978997801
 Total Coulomb        Energy = 656.33579025006293
    4    -915.3522839319      2.11e-03  
 Alpha HF Exchange    Energy =  -6.93721048161225
 Beta HF Exchange     Energy =  -6.74173771673153
 DFT Correlation      Energy =  -2.71101735956361
 DFT Exchange         Energy = -54.25554474047765
 One-Electron (alpha) Energy = -889.83699357139051
 One-Electron (beta)  Energy = -861.31536405738177
 Total Coulomb        Energy = 658.77085465108541
    5    -915.3872449763      1.26e-03  
 Alpha HF Exchange    Energy =  -6.93720210279039
 Beta HF Exchange     Energy =  -6.73997004619171
 DFT Correlation      Energy =  -2.70938551706171
 DFT Exchange         Energy = -54.24409640554761
 One-Electron (alpha) Energy = -889.69655453804546
 One-Electron (beta)  Energy = -861.06090275579618
 Total Coulomb        Energy = 658.34580735259601
    6    -915.4025357131      4.67e-04  
 Alpha HF Exchange    Energy =  -6.93714532522008
 Beta HF Exchange     Energy =  -6.73960239856314
 DFT Correlation      Energy =  -2.70926951721939
 DFT Exchange         Energy = -54.24153671154937
 One-Electron (alpha) Energy = -889.69128964696858
 One-Electron (beta)  Energy = -861.04516893758932
 Total Coulomb        Energy = 658.31952137626672
    7    -915.4047228611      2.87e-04  
 Alpha HF Exchange    Energy =  -6.93798306174532
 Beta HF Exchange     Energy =  -6.74012517813557
 DFT Correlation      Energy =  -2.70931859798598
 DFT Exchange         Energy = -54.24621813756971
 One-Electron (alpha) Energy = -889.73019874373483
 One-Electron (beta)  Energy = -861.06307157490949
 Total Coulomb        Energy = 658.38131766938318
    8    -915.4058293249      1.10e-04  
 Alpha HF Exchange    Energy =  -6.93816070535333
 Beta HF Exchange     Energy =  -6.74013144610457
 DFT Correlation      Energy =  -2.70931023128795
 DFT Exchange         Energy = -54.24691533029954
 One-Electron (alpha) Energy = -889.72234030939183
 One-Electron (beta)  Energy = -861.05326528610715
 Total Coulomb        Energy = 658.36441424107772
    9    -915.4059407677      3.15e-05  
 Alpha HF Exchange    Energy =  -6.93813946946913
 Beta HF Exchange     Energy =  -6.74011416888438
 DFT Correlation      Energy =  -2.70930311456893
 DFT Exchange         Energy = -54.24674353839585
 One-Electron (alpha) Energy = -889.72291330193457
 One-Electron (beta)  Energy = -861.05446155753657
 Total Coulomb        Energy = 658.36595432555589
   10    -915.4059525255      8.10e-06  
 Alpha HF Exchange    Energy =  -6.93814082956782
 Beta HF Exchange     Energy =  -6.74012294902304
 DFT Correlation      Energy =  -2.70930913357183
 DFT Exchange         Energy = -54.24680117755026
 One-Electron (alpha) Energy = -889.72264727581251
 One-Electron (beta)  Energy = -861.05542493352618
 Total Coulomb        Energy = 658.36672494623895
   11    -915.4059530530      4.27e-06  
 Alpha HF Exchange    Energy =  -6.93814442459989
 Beta HF Exchange     Energy =  -6.74012367441363
 DFT Correlation      Energy =  -2.70931015526648
 DFT Exchange         Energy = -54.24682167328287
 One-Electron (alpha) Energy = -889.72256580674252
 One-Electron (beta)  Energy = -861.05545624011347
 Total Coulomb        Energy = 658.36670044069797
   12    -915.4059532340      9.07e-07  Convergence criterion met
 ---------------------------------------
 SCF time:   CPU 36.20s  wall 3.00s 
<S^2> =          2.006044383
 Alpha HF Exchange    Energy =  -6.93814442459989
 Beta HF Exchange     Energy =  -6.74012367441363
 DFT Correlation      Energy =  -2.70931015526648
 DFT Exchange         Energy = -54.24682167328287
 One-Electron (alpha) Energy = -889.72256580674252
 One-Electron (beta)  Energy = -861.05545624011347
 Total Coulomb        Energy = 658.36670044069797
 Nuclear repulsion Energy = 247.63976829976730
 SCF   energy in the final basis set =     -915.4059532340
 Total energy in the final basis set =     -915.4059532340
 
 --------------------------------------------------------------
 
                    Orbital Energies (a.u.)
 --------------------------------------------------------------
 
 Alpha MOs
 -- Occupied --
-88.891 -88.880 -10.233 -10.220 -10.211  -7.954  -7.942  -5.925
 -5.919  -5.907  -5.906  -5.904  -5.897  -0.829  -0.772  -0.726
 -0.659  -0.604  -0.494  -0.468  -0.454  -0.428  -0.391  -0.381
 -0.362  -0.335  -0.311  -0.264  -0.243  -0.227
 -- Virtual --
  0.020   0.065   0.086   0.117   0.124   0.138   0.159   0.166
  0.179   0.190   0.234   0.290   0.339   0.349   0.358   0.376
  0.380   0.385   0.402   0.495   0.507   0.515   0.553   0.565
  0.615   0.642   0.662   0.730   0.744   0.748   0.749   0.767
  0.771   0.813   0.830   0.850   0.856   0.866   0.884   0.898
  0.911   0.939   1.012   1.062   1.064   1.136   1.215   1.302
  1.350   1.396   1.605   1.613   1.656   1.662   1.805   1.842
  1.926   1.980   2.018   2.048   2.064   2.066   2.092   2.115
  2.136   2.205   2.233   2.238   2.335   2.378   2.469   2.483
  2.551   2.653   2.659   2.693   2.747   2.791   2.802   2.813
  2.854   3.073   3.214   3.287   3.329   3.397   3.468   3.519
  3.949   3.978   4.270   4.463   4.641
 
 Beta MOs
 -- Occupied --
-88.883 -88.880 -10.232 -10.211 -10.210  -7.946  -7.942  -5.907
 -5.906  -5.905  -5.904  -5.901  -5.897  -0.822  -0.754  -0.689
 -0.635  -0.599  -0.491  -0.454  -0.429  -0.424  -0.384  -0.370
 -0.360  -0.334  -0.243  -0.242
 -- Virtual --
 -0.163  -0.111   0.021   0.067   0.091   0.119   0.129   0.140
  0.161   0.183   0.185   0.193   0.242   0.312   0.350   0.361
  0.375   0.380   0.385   0.388   0.424   0.501   0.518   0.527
  0.562   0.579   0.621   0.665   0.668   0.732   0.746   0.795
  0.805   0.812   0.817   0.822   0.834   0.853   0.857   0.870
  0.892   0.901   0.915   0.944   1.032   1.072   1.080   1.137
  1.217   1.310   1.358   1.402   1.617   1.622   1.659   1.664
  1.810   1.845   1.943   1.983   2.031   2.049   2.065   2.070
  2.093   2.120   2.135   2.206   2.233   2.242   2.335   2.380
  2.471   2.485   2.554   2.655   2.667   2.698   2.748   2.794
  2.805   2.816   2.857   3.087   3.216   3.292   3.331   3.408
  3.473   3.520   3.975   3.981   4.273   4.473   4.649
 --------------------------------------------------------------
 
          Ground-State Mulliken Net Atomic Charges

     Atom                 Charge (a.u.)    Spin (a.u.)
  --------------------------------------------------------
      1 S                    -0.041753       0.014862
      2 S                    -0.070891       1.505121
      3 C                    -0.181564      -0.026106
      4 C                    -0.321897       0.020805
      5 C                    -0.297452       0.579997
      6 H                     0.133009       0.005380
      7 H                     0.132296       0.004319
      8 H                     0.138101      -0.000553
      9 H                     0.137843      -0.000567
     10 H                     0.136658      -0.013153
     11 H                     0.137213      -0.012960
     12 H                     0.058229       0.000714
     13 H                     0.040207      -0.077859
  --------------------------------------------------------
  Sum of atomic charges =     0.000000
  Sum of spin   charges =     2.000000

 -----------------------------------------------------------------
                    Cartesian Multipole Moments
 -----------------------------------------------------------------
    Charge (ESU x 10^10)
                 0.0000
    Dipole Moment (Debye)
         X       0.9545      Y      -2.4900      Z      -0.9963
       Tot       2.8467
    Quadrupole Moments (Debye-Ang)
        XX     -56.0452     XY      -1.2156     YY     -48.2518
        XZ      -0.6110     YZ      -1.2273     ZZ     -47.5102
    Octopole Moments (Debye-Ang^2)
       XXX      59.3198    XXY     -31.8875    XYY       9.0318
       YYY     -42.2575    XXZ     -19.8374    XYZ       4.3081
       YYZ     -14.8698    XZZ      -2.0264    YZZ     -13.7639
       ZZZ     -41.4551
    Hexadecapole Moments (Debye-Ang^3)
      XXXX   -1826.9590   XXXY     104.4661   XXYY    -335.4502
      XYYY     132.0940   YYYY    -229.4155   XXXZ      16.8521
      XXYZ     -16.3286   XYYZ      14.8700   YYYZ     -39.6168
      XXZZ    -318.8181   XYZZ      41.8717   YYZZ     -57.1670
      XZZZ      11.2796   YZZZ     -31.2722   ZZZZ    -115.0570
 -----------------------------------------------------------------
 Calculating analytic gradient of the SCF energy
 Gradient of SCF Energy
            1           2           3           4           5           6
    1  -0.0001554   0.0544446   0.0008305   0.0000127  -0.0151908  -0.0000555
    2  -0.0000502  -0.0418329   0.0001977   0.0000351   0.0111361   0.0000268
    3   0.0000186  -0.0163702   0.0001626   0.0000179   0.0042156  -0.0001298
            7           8           9          10          11          12
    1  -0.0000337   0.0000015   0.0000207   0.0005593   0.0005199  -0.0000203
    2  -0.0001036  -0.0000028  -0.0000284  -0.0002848  -0.0003311   0.0000134
    3   0.0000195   0.0000339  -0.0000263  -0.0002380   0.0000231  -0.0000471
           13
    1  -0.0409333
    2   0.0312247
    3   0.0123203
 Max gradient component =       5.444E-02
 RMS gradient           =       1.446E-02
 Gradient time:  CPU 10.77 s  wall 0.93 s
 Geometry Optimization Parameters
   NAtoms,    NIC,     NZ,  NCons,   NDum,   NFix, NCnnct, MaxDiis
       13      82       0       1       0       0       0       0

 Cartesian Hessian Update
 Hessian Updated using BFGS Update


** CONSTRAINED OPTIMIZATION IN DELOCALIZED INTERNAL COORDINATES **
   Searching for a Minimum

   Optimization Cycle:   2

                       Coordinates (Angstroms)
     ATOM                X               Y               Z
      1  S         2.8264894725    0.2943793158    0.4116243061
      2  S        -3.2943762326    1.1455730564    0.5254953966
      3  C         0.0640417251    0.2445986012    0.2585463773
      4  C         1.2894293998   -0.6395240413   -0.0208616090
      5  C        -1.2217610113   -0.4711452482   -0.0969842769
      6  H         0.0558314133    0.5267175893    1.3174314502
      7  H         0.1469907256    1.1723929126   -0.3186782726
      8  H         1.2431792057   -1.5520682434    0.5795553618
      9  H         1.3252878776   -0.9176741570   -1.0776573720
     10  H        -1.4406370109   -1.3617412372    0.4978618027
     11  H        -1.3722243829   -0.6591460814   -1.1629716304
     12  H         3.7000774643   -0.6723260108    0.0675330030
     13  H        -2.2141286463    0.3135635440    0.1980134630
   Point Group: c1    Number of degrees of freedom:    33


   Energy is   -915.405953234

              Constraints and their Current Values
                                        Value     Constraint
   Distance(Angs):        2  13             1.402291     1.400000
 Hessian Updated using BFGS Update

   Using Lagrange Multiplier Algorithm


 33 Hessian modes will be used to form the next step
  Hessian Eigenvalues:
    -0.926638    0.044999    0.045000    0.069303    0.074915    0.078584
     0.079423    0.084947    0.085125    0.101894    0.123589    0.130786
     0.142344    0.159993    0.160000    0.160002    0.160022    0.199996
     0.200000    0.219193    0.220661    0.225388    0.240585    0.258220
     0.288230    0.309907    0.341539    0.341695    0.344280    0.344300
     0.344692    0.344849    1.089319

 Minimum Search - Taking P-RFO Step
 Searching for Lamda that Maximizes Along the Constraint modes Only
 Value Taken    Lamda =   0.00001020
 Searching for Lamda that Minimizes Along All other modes
 Value Taken    Lamda =  -0.00133974
 Step Taken.  Stepsize is  0.074552

                             Maximum     Tolerance    Cnvgd?
         Gradient            0.011224       0.000300      NO
         Displacement        0.046048       0.001200      NO
         Energy change      0.010119       0.000001      NO


 New Cartesian Coordinates Obtained by Inverse Iteration

 Displacement from previous Coordinates is:  0.089613
 ----------------------------------------------------------------
             Standard Nuclear Orientation (Angstroms)
    I     Atom           X                Y                Z
 ----------------------------------------------------------------
    1      S       2.8303768509     0.2953063918     0.4118453141
    2      S      -3.3190777609     1.1602324610     0.5297857761
    3      C       0.0676898071     0.2401586215     0.2569655628
    4      C       1.2951122852    -0.6415743548    -0.0217835080
    5      C      -1.2164003945    -0.4770179328    -0.0989517473
    6      H       0.0587053876     0.5219803358     1.3160897178
    7      H       0.1497593311     1.1683228860    -0.3201229793
    8      H       1.2502474629    -1.5543045153     0.5784043454
    9      H       1.3322721836    -0.9195185906    -1.0785497409
   10      H      -1.4379695480    -1.3665909688     0.4965174654
   11      H      -1.3693244768    -0.6640650615    -1.1647989255
   12      H       3.7061912749    -0.6699267939     0.0692648441
   13      H      -2.2393824030     0.3305975216     0.2042418753
 ----------------------------------------------------------------
 Nuclear Repulsion Energy =   246.8289375602 hartrees
 There are       30 alpha and       28 beta electrons

                       Distance Matrix (Angstroms)
             S (  1)   S (  2)   C (  3)   C (  4)   C (  5)   H (  6)
   S (  2)  6.211103
   C (  3)  2.767575  3.520108
   C (  4)  1.850086  4.984123  1.536789
   C (  5)  4.151362  2.738093  1.513244  2.518081
   H (  6)  2.924244  3.526338  1.096015  2.161589  2.150868
   H (  7)  2.912670  3.571448  1.096018  2.162537  2.149990  1.761602
   H (  8)  2.438362  5.315055  2.172985  1.093304  2.775556  2.504977
   H (  9)  2.437498  5.342955  2.174309  1.093338  2.766071  3.071513
   H ( 10)  4.581250  3.150319  2.214958  2.874721  1.093168  2.545277
   H ( 11)  4.587340  3.162470  2.214508  2.899347  1.092887  3.098513
   H ( 12)  1.347623  7.274336  3.755287  2.412964  4.929241  4.034770
   H ( 13)  5.074131  1.400005  2.309446  3.672718  1.338156  2.560086
             H (  7)   H (  8)   H (  9)   H ( 10)   H ( 11)   H ( 12)
   H (  8)  3.071014
   H (  9)  2.516472  1.776282
   H ( 10)  3.100576  2.696007  3.217911
   H ( 11)  2.525616  3.270083  2.715017  1.805056
   H ( 12)  4.022312  2.659513  2.648635  5.208673  5.223390
   H ( 13)  2.585487  3.983763  3.995630  1.899510  1.902795  6.030681

 
 Applying Cartesian multipole field
    Component          Value
    ---------          -----
     (2,0,0)        1.00000E-11
     (0,2,0)        2.00000E-11
     (0,0,2)       -3.00000E-10
 Nucleus-field energy     =     0.0000000014 hartrees
 Requested basis set is 6-31G(d,p)
 There are 46 shells and 123 basis functions
 A cutoff of  1.0D-14 yielded    992 shell pairs
 There are      7153 function pairs
 Smallest overlap matrix eigenvalue = 4.47E-03
 Guess from superposition of atomic densities
 Warning:  Energy on first SCF cycle will be non-variational
 SAD guess density has 58.000000 electrons

 -----------------------------------------------------------------------
  General SCF calculation program by
  Eric Jon Sundstrom, Paul Horn, Yuezhi Mao, Dmitri Zuev, Alec White,
  David Stuck, Shaama M.S., Shane Yost, Joonho Lee, David Small,
  Daniel Levine, Susi Lehtola, Hugh Burton, Evgeny Epifanovsky
 -----------------------------------------------------------------------
 Exchange:     0.2000 Hartree-Fock + 0.0800 Slater + 0.7200 B88
 Correlation:  0.1900 VWN1RPA + 0.8100 LYP
 Using SG-1 standard quadrature grid
 using 12 threads for integral computing
 -------------------------------------------------------
 OpenMP Integral computing Module                
 Release: version 1.0, May 2013, Q-Chem Inc. Pittsburgh 
 -------------------------------------------------------
 -------------------------------------------------------
 OpenMP BLAS3 based DFT computing Module                
 Release: version 1.0, May 2013, Q-Chem Inc. Pittsburgh 
 -------------------------------------------------------
 A unrestricted SCF calculation will be
 performed using DIIS
 SCF converges when DIIS error is below 1.0e-06
 Alpha HF Exchange    Energy =  -6.84316904268197
 Beta HF Exchange     Energy =  -6.84316904268197
 DFT Correlation      Energy =  -2.70492584070796
 DFT Exchange         Energy = -53.84544436552500
 One-Electron (alpha) Energy = -872.78299464753661
 One-Electron (beta)  Energy = -872.78299464753661
 Total Coulomb        Energy = 653.03553005470133
 ---------------------------------------
  Cycle       Energy         DIIS error
 ---------------------------------------
    1    -915.9382299703      2.67e-02  
 Alpha HF Exchange    Energy =  -6.95956869638439
 Beta HF Exchange     Energy =  -6.75038149769975
 DFT Correlation      Energy =  -2.72469198888869
 DFT Exchange         Energy = -54.43472538928539
 One-Electron (alpha) Energy = -890.43011632245384
 One-Electron (beta)  Energy = -861.49034600067841
 Total Coulomb        Energy = 660.80207100975258
    2    -915.1588213240      3.73e-03  
 Alpha HF Exchange    Energy =  -6.90451989236695
 Beta HF Exchange     Energy =  -6.73584663705635
 DFT Correlation      Energy =  -2.70286169469337
 DFT Exchange         Energy = -54.12289532873127
 One-Electron (alpha) Energy = -885.97961353216749
 One-Electron (beta)  Energy = -859.03880867289320
 Total Coulomb        Energy = 656.96099852787938
    3    -911.6946096684      1.21e-02  
 Alpha HF Exchange    Energy =  -6.92175865210395
 Beta HF Exchange     Energy =  -6.71955593387747
 DFT Correlation      Energy =  -2.70438960365340
 DFT Exchange         Energy = -54.11855722373014
 One-Electron (alpha) Energy = -887.94079695701839
 One-Electron (beta)  Energy = -859.41183430526428
 Total Coulomb        Energy = 655.62374286829754
    4    -915.3642122457      2.04e-03  
 Alpha HF Exchange    Energy =  -6.93611836358750
 Beta HF Exchange     Energy =  -6.74087641664897
 DFT Correlation      Energy =  -2.71023671052905
 DFT Exchange         Energy = -54.24770207845302
 One-Electron (alpha) Energy = -888.95992489612865
 One-Electron (beta)  Energy = -860.51108398760300
 Total Coulomb        Energy = 657.88658799210896
    5    -915.3904168992      1.19e-03  
 Alpha HF Exchange    Energy =  -6.93608900355639
 Beta HF Exchange     Energy =  -6.73938567053676
 DFT Correlation      Energy =  -2.70873110671167
 DFT Exchange         Energy = -54.23749713823663
 One-Electron (alpha) Energy = -888.83927073461598
 One-Electron (beta)  Energy = -860.29367775849641
 Total Coulomb        Energy = 657.52198649229513
    6    -915.4037273582      4.40e-04  
 Alpha HF Exchange    Energy =  -6.93608254925780
 Beta HF Exchange     Energy =  -6.73906812273884
 DFT Correlation      Energy =  -2.70861735048038
 DFT Exchange         Energy = -54.23536828768994
 One-Electron (alpha) Energy = -888.83611441709184
 One-Electron (beta)  Energy = -860.27755521462666
 Total Coulomb        Energy = 657.49807944953227
    7    -915.4057889307      2.61e-04  
 Alpha HF Exchange    Energy =  -6.93696562454571
 Beta HF Exchange     Energy =  -6.73970315406076
 DFT Correlation      Energy =  -2.70868601699118
 DFT Exchange         Energy = -54.24069251411917
 One-Electron (alpha) Energy = -888.87609913730091
 One-Electron (beta)  Energy = -860.29922555912174
 Total Coulomb        Energy = 657.56573678864004
    8    -915.4066976558      9.55e-05  
 Alpha HF Exchange    Energy =  -6.93713634056827
 Beta HF Exchange     Energy =  -6.73971547833644
 DFT Correlation      Energy =  -2.70869023210970
 DFT Exchange         Energy = -54.24141243167991
 One-Electron (alpha) Energy = -888.87161056947650
 One-Electron (beta)  Energy = -860.29266994281875
 Total Coulomb        Energy = 657.55551356998296
    9    -915.4067838633      2.79e-05  
 Alpha HF Exchange    Energy =  -6.93711372971114
 Beta HF Exchange     Energy =  -6.73970769772550
 DFT Correlation      Energy =  -2.70868110921792
 DFT Exchange         Energy = -54.24126148919203
 One-Electron (alpha) Energy = -888.87211527090824
 One-Electron (beta)  Energy = -860.29390589286800
 Total Coulomb        Energy = 657.55705450235803
   10    -915.4067931256      7.42e-06  
 Alpha HF Exchange    Energy =  -6.93711207331604
 Beta HF Exchange     Energy =  -6.73971031312516
 DFT Correlation      Energy =  -2.70868636079748
 DFT Exchange         Energy = -54.24128676586042
 One-Electron (alpha) Energy = -888.87134986643241
 One-Electron (beta)  Energy = -860.29432070987730
 Total Coulomb        Energy = 657.55673494998143
   11    -915.4067935778      3.93e-06  
 Alpha HF Exchange    Energy =  -6.93711755031616
 Beta HF Exchange     Energy =  -6.73971358454316
 DFT Correlation      Energy =  -2.70868737134964
 DFT Exchange         Energy = -54.24132151398665
 One-Electron (alpha) Energy = -888.87152758077718
 One-Electron (beta)  Energy = -860.29452891738447
 Total Coulomb        Energy = 657.55716521440240
   12    -915.4067937423      8.98e-07  Convergence criterion met
 ---------------------------------------
 SCF time:   CPU 36.61s  wall 3.00s 
<S^2> =          2.006350901
 Alpha HF Exchange    Energy =  -6.93711755031616
 Beta HF Exchange     Energy =  -6.73971358454316
 DFT Correlation      Energy =  -2.70868737134964
 DFT Exchange         Energy = -54.24132151398665
 One-Electron (alpha) Energy = -888.87152758077718
 One-Electron (beta)  Energy = -860.29452891738447
 Total Coulomb        Energy = 657.55716521440240
 Nuclear repulsion Energy = 246.82893756166740
 SCF   energy in the final basis set =     -915.4067937423
 Total energy in the final basis set =     -915.4067937423
 
 --------------------------------------------------------------
 
                    Orbital Energies (a.u.)
 --------------------------------------------------------------
 
 Alpha MOs
 -- Occupied --
-88.891 -88.880 -10.233 -10.221 -10.211  -7.954  -7.943  -5.924
 -5.918  -5.908  -5.906  -5.904  -5.897  -0.828  -0.770  -0.726
 -0.659  -0.604  -0.494  -0.465  -0.454  -0.428  -0.392  -0.382
 -0.362  -0.335  -0.310  -0.264  -0.243  -0.228
 -- Virtual --
  0.020   0.065   0.087   0.117   0.124   0.137   0.159   0.162
  0.179   0.190   0.234   0.289   0.339   0.348   0.358   0.376
  0.380   0.385   0.397   0.494   0.506   0.515   0.554   0.566
  0.615   0.644   0.661   0.730   0.743   0.748   0.749   0.764
  0.769   0.813   0.830   0.848   0.856   0.866   0.884   0.898
  0.911   0.937   1.006   1.062   1.065   1.136   1.212   1.303
  1.351   1.393   1.609   1.613   1.651   1.661   1.802   1.838
  1.910   1.976   2.009   2.048   2.064   2.067   2.092   2.119
  2.132   2.205   2.231   2.234   2.335   2.370   2.467   2.475
  2.549   2.645   2.648   2.688   2.747   2.788   2.801   2.811
  2.850   3.048   3.212   3.282   3.329   3.386   3.468   3.518
  3.946   3.978   4.268   4.458   4.636
 
 Beta MOs
 -- Occupied --
-88.883 -88.880 -10.232 -10.212 -10.211  -7.946  -7.942  -5.907
 -5.906  -5.905  -5.904  -5.901  -5.897  -0.822  -0.753  -0.687
 -0.636  -0.599  -0.491  -0.454  -0.427  -0.424  -0.384  -0.370
 -0.360  -0.334  -0.243  -0.243
 -- Virtual --
 -0.163  -0.111   0.021   0.067   0.091   0.119   0.129   0.140
  0.161   0.182   0.183   0.193   0.242   0.311   0.350   0.361
  0.375   0.380   0.385   0.388   0.419   0.500   0.518   0.524
  0.562   0.579   0.622   0.666   0.667   0.732   0.746   0.793
  0.806   0.812   0.814   0.822   0.833   0.852   0.857   0.870
  0.893   0.901   0.915   0.943   1.029   1.072   1.076   1.137
  1.214   1.311   1.360   1.399   1.621   1.623   1.656   1.662
  1.809   1.843   1.931   1.979   2.020   2.048   2.065   2.070
  2.093   2.124   2.130   2.205   2.232   2.238   2.335   2.371
  2.469   2.478   2.552   2.650   2.655   2.693   2.747   2.791
  2.804   2.814   2.854   3.062   3.214   3.287   3.331   3.395
  3.473   3.519   3.972   3.979   4.271   4.469   4.644
 --------------------------------------------------------------
 
          Ground-State Mulliken Net Atomic Charges

     Atom                 Charge (a.u.)    Spin (a.u.)
  --------------------------------------------------------
      1 S                    -0.041460       0.015497
      2 S                    -0.071359       1.474602
      3 C                    -0.181571      -0.028369
      4 C                    -0.322046       0.022628
      5 C                    -0.295006       0.614745
      6 H                     0.133259       0.005736
      7 H                     0.132586       0.004623
      8 H                     0.138305      -0.000602
      9 H                     0.138061      -0.000615
     10 H                     0.136590      -0.014630
     11 H                     0.137114      -0.014442
     12 H                     0.058376       0.000749
     13 H                     0.037152      -0.079922
  --------------------------------------------------------
  Sum of atomic charges =     0.000000
  Sum of spin   charges =     2.000000

 -----------------------------------------------------------------
                    Cartesian Multipole Moments
 -----------------------------------------------------------------
    Charge (ESU x 10^10)
                 0.0000
    Dipole Moment (Debye)
         X       1.0007      Y      -2.5104      Z      -1.0013
       Tot       2.8820
    Quadrupole Moments (Debye-Ang)
        XX     -56.1660     XY      -1.1654     YY     -48.2862
        XZ      -0.5807     YZ      -1.2316     ZZ     -47.5190
    Octopole Moments (Debye-Ang^2)
       XXX      60.8579    XXY     -32.2464    XYY       9.3638
       YYY     -42.8151    XXZ     -19.9619    XYZ       4.3380
       YYZ     -14.9497    XZZ      -1.8070    YZZ     -13.9137
       ZZZ     -41.5670
    Hexadecapole Moments (Debye-Ang^3)
      XXXX   -1845.0819   XXXY     107.9353   XXYY    -338.8482
      XYYY     135.4513   YYYY    -232.6769   XXXZ      18.2876
      XXYZ     -16.6540   XYYZ      15.3735   YYYZ     -40.2965
      XXZZ    -321.4394   XYZZ      42.8615   YYZZ     -57.7496
      XZZZ      12.2263   YZZZ     -31.7892   ZZZZ    -115.3980
 -----------------------------------------------------------------
 Calculating analytic gradient of the SCF energy
 Gradient of SCF Energy
            1           2           3           4           5           6
    1  -0.0000633   0.0494200   0.0015541  -0.0000619  -0.0130136  -0.0001213
    2  -0.0001013  -0.0379292  -0.0005195   0.0003115   0.0096222   0.0000379
    3  -0.0000046  -0.0148004  -0.0001023   0.0001080   0.0036467  -0.0000449
            7           8           9          10          11          12
    1  -0.0000646  -0.0000013   0.0000206   0.0009428   0.0009159   0.0000244
    2  -0.0000093  -0.0000022  -0.0000333  -0.0007858  -0.0008557   0.0000406
    3  -0.0000356   0.0000214  -0.0000096  -0.0004880  -0.0001196  -0.0000331
           13
    1  -0.0395518
    2   0.0302240
    3   0.0118620
 Max gradient component =       4.942E-02
 RMS gradient           =       1.340E-02
 Gradient time:  CPU 11.00 s  wall 0.98 s
 Geometry Optimization Parameters
   NAtoms,    NIC,     NZ,  NCons,   NDum,   NFix, NCnnct, MaxDiis
       13      82       0       1       0       0       0       0

 Cartesian Hessian Update
 Hessian Updated using BFGS Update


** CONSTRAINED OPTIMIZATION IN DELOCALIZED INTERNAL COORDINATES **
   Searching for a Minimum

   Optimization Cycle:   3

                       Coordinates (Angstroms)
     ATOM                X               Y               Z
      1  S         2.8303768509    0.2953063918    0.4118453141
      2  S        -3.3190777609    1.1602324610    0.5297857761
      3  C         0.0676898071    0.2401586215    0.2569655628
      4  C         1.2951122852   -0.6415743548   -0.0217835080
      5  C        -1.2164003945   -0.4770179328   -0.0989517473
      6  H         0.0587053876    0.5219803358    1.3160897178
      7  H         0.1497593311    1.1683228860   -0.3201229793
      8  H         1.2502474629   -1.5543045153    0.5784043454
      9  H         1.3322721836   -0.9195185906   -1.0785497409
     10  H        -1.4379695480   -1.3665909688    0.4965174654
     11  H        -1.3693244768   -0.6640650615   -1.1647989255
     12  H         3.7061912749   -0.6699267939    0.0692648441
     13  H        -2.2393824030    0.3305975216    0.2042418753
   Point Group: c1    Number of degrees of freedom:    33


   Energy is   -915.406793742

              Constraints and their Current Values
                                        Value     Constraint
   Distance(Angs):        2  13             1.400005     1.400000
 Hessian Updated using BFGS Update

   Using Lagrange Multiplier Algorithm


 34 Hessian modes will be used to form the next step
  Hessian Eigenvalues:
    -0.882370    0.044866    0.045000    0.045000    0.052723    0.069304
     0.078578    0.079423    0.084942    0.085125    0.095109    0.102331
     0.123590    0.130789    0.142344    0.160001    0.160003    0.160018
     0.161360    0.199999    0.200005    0.219919    0.220907    0.225445
     0.258220    0.288292    0.310545    0.341549    0.341722    0.344280
     0.344300    0.344755    0.345034    1.146612

 Minimum Search - Taking P-RFO Step
 Searching for Lamda that Maximizes Along the Constraint modes Only
 Value Taken    Lamda =   0.00000109
 Searching for Lamda that Minimizes Along All other modes
 Value Taken    Lamda =  -0.00263814
 Step Taken.  Stepsize is  0.208081

                             Maximum     Tolerance    Cnvgd?
         Gradient            0.007762       0.000300      NO
         Displacement        0.105603       0.001200      NO
         Energy change     -0.000841       0.000001      NO


 New Cartesian Coordinates Obtained by Inverse Iteration

 Displacement from previous Coordinates is:  0.219316
 ----------------------------------------------------------------
             Standard Nuclear Orientation (Angstroms)
    I     Atom           X                Y                Z
 ----------------------------------------------------------------
    1      S       2.8362878543     0.3019609906     0.4140942379
    2      S      -3.3716098758     1.2049750950     0.5439894206
    3      C       0.0750880826     0.2271440871     0.2521527375
    4      C       1.3097017308    -0.6473261485    -0.0244950195
    5      C      -1.1959191810    -0.5007900823    -0.1074368781
    6      H       0.0631962244     0.5080352886     1.3116217200
    7      H       0.1533201436     1.1561285825    -0.3241790359
    8      H       1.2699242736    -1.5606108881     0.5750748270
    9      H       1.3516032628    -0.9242546642    -1.0812833559
   10      H      -1.4384581755    -1.3790620956     0.4949067453
   11      H      -1.3696143530    -0.6758709408    -1.1713149592
   12      H       3.7186644414    -0.6588831319     0.0761389572
   13      H      -2.2939844282     0.3721539077     0.2196386030
 ----------------------------------------------------------------
 Nuclear Repulsion Energy =   244.9823704569 hartrees
 There are       30 alpha and       28 beta electrons

                       Distance Matrix (Angstroms)
             S (  1)   S (  2)   C (  3)   C (  4)   C (  5)   H (  6)
   S (  2)  6.274576
   C (  3)  2.766956  3.594586
   C (  4)  1.850398  5.066446  1.538019
   C (  5)  4.144285  2.840356  1.508195  2.511272
   H (  6)  2.921996  3.587879  1.096137  2.161907  2.148680
   H (  7)  2.910836  3.630597  1.096034  2.163210  2.147744  1.761815
   H (  8)  2.438972  5.403080  2.174392  1.093232  2.769373  2.505592
   H (  9)  2.438042  5.429905  2.175606  1.093273  2.759995  3.072042
   H ( 10)  4.594107  3.227496  2.220282  2.890951  1.092248  2.546198
   H ( 11)  4.599923  3.238493  2.220104  2.914575  1.092090  3.101541
   H ( 12)  1.347599  7.346077  3.753888  2.411091  4.920551  4.031199
   H ( 13)  5.134436  1.400025  2.373729  3.753065  1.440402  2.601383
             H (  7)   H (  8)   H (  9)   H ( 10)   H ( 11)   H ( 12)
   H (  8)  3.071829
   H (  9)  2.517357  1.776272
   H ( 10)  3.103522  2.715644  3.236614
   H ( 11)  2.528476  3.286306  2.734013  1.809838
   H ( 12)  4.020722  2.656761  2.648212  5.223977  5.238989
   H ( 13)  2.626719  4.069811  4.082081  1.968364  1.971692  6.102096

 
 Applying Cartesian multipole field
    Component          Value
    ---------          -----
     (2,0,0)        1.00000E-11
     (0,2,0)        2.00000E-11
     (0,0,2)       -3.00000E-10
 Nucleus-field energy     =     0.0000000015 hartrees
 Requested basis set is 6-31G(d,p)
 There are 46 shells and 123 basis functions
 A cutoff of  1.0D-14 yielded    989 shell pairs
 There are      7101 function pairs
 Smallest overlap matrix eigenvalue = 4.74E-03
 Guess from superposition of atomic densities
 Warning:  Energy on first SCF cycle will be non-variational
 SAD guess density has 58.000000 electrons

 -----------------------------------------------------------------------
  General SCF calculation program by
  Eric Jon Sundstrom, Paul Horn, Yuezhi Mao, Dmitri Zuev, Alec White,
  David Stuck, Shaama M.S., Shane Yost, Joonho Lee, David Small,
  Daniel Levine, Susi Lehtola, Hugh Burton, Evgeny Epifanovsky
 -----------------------------------------------------------------------
 Exchange:     0.2000 Hartree-Fock + 0.0800 Slater + 0.7200 B88
 Correlation:  0.1900 VWN1RPA + 0.8100 LYP
 Using SG-1 standard quadrature grid
 using 12 threads for integral computing
 -------------------------------------------------------
 OpenMP Integral computing Module                
 Release: version 1.0, May 2013, Q-Chem Inc. Pittsburgh 
 -------------------------------------------------------
 -------------------------------------------------------
 OpenMP BLAS3 based DFT computing Module                
 Release: version 1.0, May 2013, Q-Chem Inc. Pittsburgh 
 -------------------------------------------------------
 A unrestricted SCF calculation will be
 performed using DIIS
 SCF converges when DIIS error is below 1.0e-06
 Alpha HF Exchange    Energy =  -6.83852324062619
 Beta HF Exchange     Energy =  -6.83852324062619
 DFT Correlation      Energy =  -2.70347309281219
 DFT Exchange         Energy = -53.83667483597721
 One-Electron (alpha) Energy = -870.94934085124703
 One-Electron (beta)  Energy = -870.94934085124703
 Total Coulomb        Energy = 651.23070068921515
 ---------------------------------------
  Cycle       Energy         DIIS error
 ---------------------------------------
    1    -915.9028049649      2.64e-02  
 Alpha HF Exchange    Energy =  -6.95710341179336
 Beta HF Exchange     Energy =  -6.75069472095149
 DFT Correlation      Energy =  -2.72283898447588
 DFT Exchange         Energy = -54.42241349801844
 One-Electron (alpha) Energy = -888.46521029508745
 One-Electron (beta)  Energy = -859.65553968857296
 Total Coulomb        Energy = 658.84540217911604
    2    -915.1460279614      3.75e-03  
 Alpha HF Exchange    Energy =  -6.92822102984701
 Beta HF Exchange     Energy =  -6.73540021566840
 DFT Correlation      Energy =  -2.71059854749693
 DFT Exchange         Energy = -54.20360007102803
 One-Electron (alpha) Energy = -885.15173282004685
 One-Electron (beta)  Energy = -857.51465829428957
 Total Coulomb        Energy = 657.07739342874663
    3    -911.1844470912      1.18e-02  
 Alpha HF Exchange    Energy =  -6.91852075900374
 Beta HF Exchange     Energy =  -6.71252954524237
 DFT Correlation      Energy =  -2.70359649892257
 DFT Exchange         Energy = -54.09146677959586
 One-Electron (alpha) Energy = -885.94758347111440
 One-Electron (beta)  Energy = -856.99511338998968
 Total Coulomb        Energy = 653.21108461393158
    4    -915.1753553715      3.44e-03  
 Alpha HF Exchange    Energy =  -6.93199617060954
 Beta HF Exchange     Energy =  -6.73823248747928
 DFT Correlation      Energy =  -2.70830595029264
 DFT Exchange         Energy = -54.22103048731375
 One-Electron (alpha) Energy = -886.97045425997908
 One-Electron (beta)  Energy = -858.77363750090126
 Total Coulomb        Energy = 655.97808011995892
    5    -915.3832062782      1.39e-03  
 Alpha HF Exchange    Energy =  -6.93268934909476
 Beta HF Exchange     Energy =  -6.73813209700484
 DFT Correlation      Energy =  -2.70710926594021
 DFT Exchange         Energy = -54.21991035138465
 One-Electron (alpha) Energy = -886.82367644941394
 One-Electron (beta)  Energy = -858.52567413797249
 Total Coulomb        Energy = 655.56451482035857
    6    -915.4003063721      7.35e-04  
 Alpha HF Exchange    Energy =  -6.93421108977229
 Beta HF Exchange     Energy =  -6.73908294582538
 DFT Correlation      Energy =  -2.70745103294191
 DFT Exchange         Energy = -54.22853183669886
 One-Electron (alpha) Energy = -886.95099326900618
 One-Electron (beta)  Energy = -858.62823592962343
 Total Coulomb        Energy = 655.80147068722465
    7    -915.4046649582      5.17e-04  
 Alpha HF Exchange    Energy =  -6.93432849635911
 Beta HF Exchange     Energy =  -6.73912433886982
 DFT Correlation      Energy =  -2.70720237767476
 DFT Exchange         Energy = -54.22806813013640
 One-Electron (alpha) Energy = -886.92340755814723
 One-Electron (beta)  Energy = -858.58392702068522
 Total Coulomb        Energy = 655.72572362114352
    8    -915.4079638423      2.31e-04  
 Alpha HF Exchange    Energy =  -6.93458797079267
 Beta HF Exchange     Energy =  -6.73916061596858
 DFT Correlation      Energy =  -2.70710988852840
 DFT Exchange         Energy = -54.22886695058918
 One-Electron (alpha) Energy = -886.90540678172772
 One-Electron (beta)  Energy = -858.56081011920514
 Total Coulomb        Energy = 655.68503143702208
    9    -915.4085404314      8.74e-05  
 Alpha HF Exchange    Energy =  -6.93479213829313
 Beta HF Exchange     Energy =  -6.73936085485135
 DFT Correlation      Energy =  -2.70717254878016
 DFT Exchange         Energy = -54.23039355453734
 One-Electron (alpha) Energy = -886.92422790949195
 One-Electron (beta)  Energy = -858.57850566359355
 Total Coulomb        Energy = 655.72343835819038
   10    -915.4086438530      2.16e-05  
 Alpha HF Exchange    Energy =  -6.93474019908594
 Beta HF Exchange     Energy =  -6.73929339555769
 DFT Correlation      Energy =  -2.70715982611593
 DFT Exchange         Energy = -54.22994432591361
 One-Electron (alpha) Energy = -886.91686208265924
 One-Electron (beta)  Energy = -858.57263911383325
 Total Coulomb        Energy = 655.70961843515647
   11    -915.4086500496      7.78e-06  
 Alpha HF Exchange    Energy =  -6.93477138338428
 Beta HF Exchange     Energy =  -6.73932916339220
 DFT Correlation      Energy =  -2.70717165423048
 DFT Exchange         Energy = -54.23020934502354
 One-Electron (alpha) Energy = -886.91968376298200
 One-Electron (beta)  Energy = -858.57546507762231
 Total Coulomb        Energy = 655.71560926853181
   12    -915.4086506597      2.22e-06  
 Alpha HF Exchange    Energy =  -6.93476961963419
 Beta HF Exchange     Energy =  -6.73932364439807
 DFT Correlation      Energy =  -2.70717163913879
 DFT Exchange         Energy = -54.23018493426022
 One-Electron (alpha) Energy = -886.91942234269993
 One-Electron (beta)  Energy = -858.57522057650840
 Total Coulomb        Energy = 655.71507158658346
   13    -915.4086507117      6.38e-07  Convergence criterion met
 ---------------------------------------
 SCF time:   CPU 38.53s  wall 4.00s 
<S^2> =          2.006994573
 Alpha HF Exchange    Energy =  -6.93476961963419
 Beta HF Exchange     Energy =  -6.73932364439807
 DFT Correlation      Energy =  -2.70717163913879
 DFT Exchange         Energy = -54.23018493426022
 One-Electron (alpha) Energy = -886.91942234269993
 One-Electron (beta)  Energy = -858.57522057650840
 Total Coulomb        Energy = 655.71507158658346
 Nuclear repulsion Energy = 244.98237045839571
 SCF   energy in the final basis set =     -915.4086507117
 Total energy in the final basis set =     -915.4086507117
 
 --------------------------------------------------------------
 
                    Orbital Energies (a.u.)
 --------------------------------------------------------------
 
 Alpha MOs
 -- Occupied --
-88.890 -88.881 -10.234 -10.224 -10.212  -7.953  -7.943  -5.924
 -5.917  -5.908  -5.905  -5.905  -5.897  -0.828  -0.765  -0.724
 -0.660  -0.605  -0.495  -0.460  -0.451  -0.429  -0.393  -0.383
 -0.363  -0.336  -0.309  -0.262  -0.243  -0.230
 -- Virtual --
  0.019   0.065   0.087   0.117   0.122   0.135   0.151   0.158
  0.181   0.188   0.235   0.288   0.339   0.348   0.358   0.375
  0.376   0.384   0.386   0.490   0.505   0.514   0.556   0.567
  0.616   0.652   0.659   0.730   0.742   0.750   0.750   0.759
  0.764   0.812   0.829   0.844   0.855   0.865   0.885   0.898
  0.908   0.933   0.991   1.069   1.073   1.136   1.208   1.304
  1.357   1.385   1.604   1.620   1.638   1.659   1.791   1.826
  1.880   1.962   2.004   2.047   2.064   2.071   2.092   2.120
  2.137   2.203   2.220   2.230   2.337   2.355   2.456   2.465
  2.539   2.622   2.634   2.682   2.744   2.780   2.800   2.807
  2.842   2.986   3.207   3.267   3.331   3.364   3.470   3.514
  3.941   3.977   4.260   4.442   4.624
 
 Beta MOs
 -- Occupied --
-88.882 -88.881 -10.233 -10.213 -10.212  -7.945  -7.943  -5.908
 -5.906  -5.905  -5.904  -5.900  -5.897  -0.822  -0.750  -0.683
 -0.639  -0.600  -0.492  -0.455  -0.424  -0.422  -0.384  -0.369
 -0.361  -0.335  -0.243  -0.242
 -- Virtual --
 -0.162  -0.111   0.021   0.067   0.092   0.119   0.128   0.139
  0.160   0.171   0.185   0.191   0.243   0.309   0.350   0.361
  0.375   0.380   0.385   0.388   0.405   0.497   0.517   0.521
  0.563   0.581   0.623   0.664   0.675   0.732   0.745   0.787
  0.805   0.808   0.813   0.821   0.833   0.849   0.856   0.869
  0.893   0.901   0.914   0.942   1.013   1.075   1.080   1.137
  1.208   1.313   1.367   1.392   1.615   1.632   1.646   1.660
  1.802   1.836   1.901   1.965   2.011   2.047   2.064   2.074
  2.093   2.116   2.142   2.203   2.226   2.231   2.337   2.355
  2.461   2.467   2.545   2.632   2.637   2.688   2.745   2.782
  2.805   2.808   2.846   3.001   3.209   3.272   3.333   3.370
  3.476   3.515   3.966   3.978   4.265   4.455   4.632
 --------------------------------------------------------------
 
          Ground-State Mulliken Net Atomic Charges

     Atom                 Charge (a.u.)    Spin (a.u.)
  --------------------------------------------------------
      1 S                    -0.040766       0.017280
      2 S                    -0.075712       1.398304
      3 C                    -0.182044      -0.034943
      4 C                    -0.322496       0.027478
      5 C                    -0.288264       0.699834
      6 H                     0.134322       0.006829
      7 H                     0.133742       0.005581
      8 H                     0.138875      -0.000722
      9 H                     0.138667      -0.000731
     10 H                     0.137045      -0.018993
     11 H                     0.137482      -0.018838
     12 H                     0.058618       0.000809
     13 H                     0.030530      -0.081888
  --------------------------------------------------------
  Sum of atomic charges =    -0.000000
  Sum of spin   charges =     2.000000

 -----------------------------------------------------------------
                    Cartesian Multipole Moments
 -----------------------------------------------------------------
    Charge (ESU x 10^10)
                 0.0000
    Dipole Moment (Debye)
         X       1.1188      Y      -2.5757      Z      -1.0196
       Tot       2.9876
    Quadrupole Moments (Debye-Ang)
        XX     -56.4957     XY      -0.9665     YY     -48.4035
        XZ      -0.4710     YZ      -1.2612     ZZ     -47.5248
    Octopole Moments (Debye-Ang^2)
       XXX      64.5796    XXY     -33.4340    XYY      10.1318
       YYY     -44.5760    XXZ     -20.3995    XYZ       4.4224
       YYZ     -15.1928    XZZ      -1.3590    YZZ     -14.4103
       ZZZ     -41.9948
    Hexadecapole Moments (Debye-Ang^3)
      XXXX   -1885.2006   XXXY     118.0418   XXYY    -346.7949
      XYYY     144.2171   YYYY    -243.1651   XXXZ      22.6187
      XXYZ     -17.6703   XYYZ      16.6885   YYYZ     -42.5578
      XXZZ    -326.9478   XYZZ      45.4195   YYZZ     -59.6459
      XZZZ      14.7408   YZZZ     -33.5740   ZZZZ    -116.6561
 -----------------------------------------------------------------
 Calculating analytic gradient of the SCF energy
 Gradient of SCF Energy
            1           2           3           4           5           6
    1  -0.0000982   0.0354573   0.0014926  -0.0004626  -0.0071092  -0.0001035
    2   0.0001253  -0.0274639  -0.0008236   0.0001617   0.0063378   0.0001697
    3   0.0000650  -0.0106339  -0.0002883   0.0000493   0.0024743   0.0000175
            7           8           9          10          11          12
    1  -0.0000802   0.0000602   0.0000466   0.0009533   0.0009005  -0.0000922
    2   0.0001202  -0.0000643  -0.0000909  -0.0011578  -0.0014228  -0.0000418
    3   0.0000640  -0.0000110  -0.0000157  -0.0008978  -0.0001541  -0.0000679
           13
    1  -0.0309646
    2   0.0241504
    3   0.0093986
 Max gradient component =       3.546E-02
 RMS gradient           =       9.950E-03
 Gradient time:  CPU 10.86 s  wall 0.96 s
 Geometry Optimization Parameters
   NAtoms,    NIC,     NZ,  NCons,   NDum,   NFix, NCnnct, MaxDiis
       13      82       0       1       0       0       0       0

 Cartesian Hessian Update
 Hessian Updated using BFGS Update


** CONSTRAINED OPTIMIZATION IN DELOCALIZED INTERNAL COORDINATES **
   Searching for a Minimum

   Optimization Cycle:   4

                       Coordinates (Angstroms)
     ATOM                X               Y               Z
      1  S         2.8362878543    0.3019609906    0.4140942379
      2  S        -3.3716098758    1.2049750950    0.5439894206
      3  C         0.0750880826    0.2271440871    0.2521527375
      4  C         1.3097017308   -0.6473261485   -0.0244950195
      5  C        -1.1959191810   -0.5007900823   -0.1074368781
      6  H         0.0631962244    0.5080352886    1.3116217200
      7  H         0.1533201436    1.1561285825   -0.3241790359
      8  H         1.2699242736   -1.5606108881    0.5750748270
      9  H         1.3516032628   -0.9242546642   -1.0812833559
     10  H        -1.4384581755   -1.3790620956    0.4949067453
     11  H        -1.3696143530   -0.6758709408   -1.1713149592
     12  H         3.7186644414   -0.6588831319    0.0761389572
     13  H        -2.2939844282    0.3721539077    0.2196386030
   Point Group: c1    Number of degrees of freedom:    33


   Energy is   -915.408650712

              Constraints and their Current Values
                                        Value     Constraint
   Distance(Angs):        2  13             1.400025     1.400000
 Hessian Updated using BFGS Update

   Using Lagrange Multiplier Algorithm


 34 Hessian modes will be used to form the next step
  Hessian Eigenvalues:
    -0.843119    0.028040    0.045000    0.045000    0.045083    0.069303
     0.078576    0.079423    0.084947    0.085125    0.095715    0.102419
     0.123604    0.130790    0.142345    0.160001    0.160003    0.160223
     0.161281    0.199999    0.200011    0.219970    0.221048    0.225449
     0.258220    0.288397    0.310542    0.341552    0.341724    0.344280
     0.344301    0.344754    0.345047    1.201376

 Minimum Search - Taking P-RFO Step
 Searching for Lamda that Maximizes Along the Constraint modes Only
 Value Taken    Lamda =   0.00000010
 Searching for Lamda that Minimizes Along All other modes
 Value Taken    Lamda =  -0.00124335
 Step Taken.  Stepsize is  0.204237

                             Maximum     Tolerance    Cnvgd?
         Gradient            0.002823       0.000300      NO
         Displacement        0.100067       0.001200      NO
         Energy change     -0.001857       0.000001      NO


 New Cartesian Coordinates Obtained by Inverse Iteration

 Displacement from previous Coordinates is:  0.208516
 ----------------------------------------------------------------
             Standard Nuclear Orientation (Angstroms)
    I     Atom           X                Y                Z
 ----------------------------------------------------------------
    1      S       2.8430567743     0.3094270694     0.4169905623
    2      S      -3.4138066980     1.2495774552     0.5581783107
    3      C       0.0800322741     0.2115330602     0.2462216895
    4      C       1.3254706763    -0.6528494735    -0.0273753342
    5      C      -1.1786581094    -0.5269423325    -0.1168331511
    6      H       0.0647948625     0.4905421777     1.3060446841
    7      H       0.1540693983     1.1407721733    -0.3299800549
    8      H       1.2909671340    -1.5664530215     0.5716876196
    9      H       1.3726766755    -0.9280027669    -1.0842508624
   10      H      -1.4472951362    -1.3879359754     0.4970753912
   11      H      -1.3781787219    -0.6827091987    -1.1779422897
   12      H       3.7366635696    -0.6432776954     0.0855000120
   13      H      -2.3415926989     0.4099185281     0.2335914229
 ----------------------------------------------------------------
 Nuclear Repulsion Energy =   243.3481263685 hartrees
 There are       30 alpha and       28 beta electrons

                       Distance Matrix (Angstroms)
             S (  1)   S (  2)   C (  3)   C (  4)   C (  5)   H (  6)
   S (  2)  6.328677
   C (  3)  2.770027  3.658109
   C (  4)  1.851082  5.140316  1.540496
[...]
   C (  4)  1.850481  5.611619  1.545316
   C (  5)  4.138152  3.470670  1.494032  2.510283
   H (  6)  2.910558  4.016872  1.096433  2.160439  2.139875
   H (  7)  2.912604  4.041442  1.096122  2.162217  2.139359  1.765425
   H (  8)  2.440379  5.980118  2.178132  1.092777  2.763870  2.505524
   H (  9)  2.439968  6.000397  2.179510  1.092916  2.765724  3.069896
   H ( 10)  4.692283  3.675514  2.244355  3.026335  1.086922  2.525139
   H ( 11)  4.702498  3.676640  2.244643  3.042154  1.086836  3.099941
   H ( 12)  1.347488  7.831185  3.761296  2.412376  4.920307  4.017610
   H ( 13)  5.548650  1.400000  2.829153  4.291590  2.070681  2.925110
             H (  7)   H (  8)   H (  9)   H ( 10)   H ( 11)   H ( 12)
   H (  8)  3.070049
   H (  9)  2.509528  1.776940
   H ( 10)  3.102713  2.877513  3.400698
   H ( 11)  2.516879  3.419804  2.900342  1.848368
   H ( 12)  4.026776  2.652524  2.661624  5.365041  5.387379
   H ( 13)  2.946212  4.637452  4.654218  2.374584  2.377063  6.590107

 
 Applying Cartesian multipole field
    Component          Value
    ---------          -----
     (2,0,0)        1.00000E-11
     (0,2,0)        2.00000E-11
     (0,0,2)       -3.00000E-10
 Nucleus-field energy     =     0.0000000021 hartrees
 Requested basis set is 6-31G(d,p)
 There are 46 shells and 123 basis functions
 A cutoff of  1.0D-14 yielded    972 shell pairs
 There are      6951 function pairs
 Smallest overlap matrix eigenvalue = 5.47E-03
 Guess from superposition of atomic densities
 Warning:  Energy on first SCF cycle will be non-variational
 SAD guess density has 58.000000 electrons

 -----------------------------------------------------------------------
  General SCF calculation program by
  Eric Jon Sundstrom, Paul Horn, Yuezhi Mao, Dmitri Zuev, Alec White,
  David Stuck, Shaama M.S., Shane Yost, Joonho Lee, David Small,
  Daniel Levine, Susi Lehtola, Hugh Burton, Evgeny Epifanovsky
 -----------------------------------------------------------------------
 Exchange:     0.2000 Hartree-Fock + 0.0800 Slater + 0.7200 B88
 Correlation:  0.1900 VWN1RPA + 0.8100 LYP
 Using SG-1 standard quadrature grid
 using 12 threads for integral computing
 -------------------------------------------------------
 OpenMP Integral computing Module                
 Release: version 1.0, May 2013, Q-Chem Inc. Pittsburgh 
 -------------------------------------------------------
 -------------------------------------------------------
 OpenMP BLAS3 based DFT computing Module                
 Release: version 1.0, May 2013, Q-Chem Inc. Pittsburgh 
 -------------------------------------------------------
 A unrestricted SCF calculation will be
 performed using DIIS
 SCF converges when DIIS error is below 1.0e-06
 Alpha HF Exchange    Energy =  -6.82354118784984
 Beta HF Exchange     Energy =  -6.82354118784984
 DFT Correlation      Energy =  -2.69667795778431
 DFT Exchange         Energy = -53.80877741878131
 One-Electron (alpha) Energy = -860.68630856862592
 One-Electron (beta)  Energy = -860.68630856862592
 Total Coulomb        Energy = 641.03393575833798
 ---------------------------------------
  Cycle       Energy         DIIS error
 ---------------------------------------
    1    -915.7879506821      2.59e-02  
 Alpha HF Exchange    Energy =  -6.95024814341161
 Beta HF Exchange     Energy =  -6.76064843268796
 DFT Correlation      Energy =  -2.71389174743948
 DFT Exchange         Energy = -54.40376288619180
 One-Electron (alpha) Energy = -877.53472850096318
 One-Electron (beta)  Energy = -849.52245323315753
 Total Coulomb        Energy = 648.09984740730238
    2    -915.0826170875      3.85e-03  
 Alpha HF Exchange    Energy =  -6.93060201395233
 Beta HF Exchange     Energy =  -6.74037175892290
 DFT Correlation      Energy =  -2.70727725591147
 DFT Exchange         Energy = -54.25416919454311
 One-Electron (alpha) Energy = -875.58977481053898
 One-Electron (beta)  Energy = -848.91694624891159
 Total Coulomb        Energy = 650.73547357463997
    3    -909.7003992591      1.51e-02  
 Alpha HF Exchange    Energy =  -6.90530182485604
 Beta HF Exchange     Energy =  -6.72678867991116
 DFT Correlation      Energy =  -2.69236607670157
 DFT Exchange         Energy = -54.05264701677552
 One-Electron (alpha) Energy = -874.77362193526369
 One-Electron (beta)  Energy = -848.17534434363336
 Total Coulomb        Energy = 643.30369275675866
    4    -915.3191086713      3.07e-03  
 Alpha HF Exchange    Energy =  -6.92418240459393
 Beta HF Exchange     Energy =  -6.74069712165554
 DFT Correlation      Energy =  -2.70033490540964
 DFT Exchange         Energy = -54.19075667072548
 One-Electron (alpha) Energy = -875.89600172262897
 One-Electron (beta)  Energy = -849.08722305258027
 Total Coulomb        Energy = 645.44862356688759
    5    -915.3873038616      1.37e-03  
 Alpha HF Exchange    Energy =  -6.92442501066210
 Beta HF Exchange     Energy =  -6.74030955810560
 DFT Correlation      Energy =  -2.69930909952423
 DFT Exchange         Energy = -54.18650294842276
 One-Electron (alpha) Energy = -875.84182536077685
 One-Electron (beta)  Energy = -848.96491627535113
 Total Coulomb        Energy = 645.25116181152180
    6    -915.4028579922      7.56e-04  
 Alpha HF Exchange    Energy =  -6.92567543470868
 Beta HF Exchange     Energy =  -6.74112501665844
 DFT Correlation      Energy =  -2.69945142492249
 DFT Exchange         Energy = -54.19362843273149
 One-Electron (alpha) Energy = -875.91624487127740
 One-Electron (beta)  Energy = -848.98915574056002
 Total Coulomb        Energy = 645.35163466934910
    7    -915.4103778024      3.13e-04  
 Alpha HF Exchange    Energy =  -6.92703396542874
 Beta HF Exchange     Energy =  -6.74203505367875
 DFT Correlation      Energy =  -2.69975043654414
 DFT Exchange         Energy = -54.20254423069660
 One-Electron (alpha) Energy = -875.96000634782149
 One-Electron (beta)  Energy = -849.01689945603493
 Total Coulomb        Energy = 645.43359790701288
    8    -915.4114031341      1.06e-04  
 Alpha HF Exchange    Energy =  -6.92716452484614
 Beta HF Exchange     Energy =  -6.74227696537055
 DFT Correlation      Energy =  -2.69976809965117
 DFT Exchange         Energy = -54.20402308773314
 One-Electron (alpha) Energy = -875.96948488186615
 One-Electron (beta)  Energy = -849.02639386034900
 Total Coulomb        Energy = 645.45430289615831
    9    -915.4115400746      2.52e-05  
 Alpha HF Exchange    Energy =  -6.92712044810995
 Beta HF Exchange     Energy =  -6.74224457658325
 DFT Correlation      Energy =  -2.69977235734986
 DFT Exchange         Energy = -54.20377382228185
 One-Electron (alpha) Energy = -875.96625649780083
 One-Electron (beta)  Energy = -849.02631752717480
 Total Coulomb        Energy = 645.45067045921041
   10    -915.4115463210      6.68e-06  
 Alpha HF Exchange    Energy =  -6.92711209924087
 Beta HF Exchange     Energy =  -6.74226426348084
 DFT Correlation      Energy =  -2.69977841113674
 DFT Exchange         Energy = -54.20384179418708
 One-Electron (alpha) Energy = -875.96556295785183
 One-Electron (beta)  Energy = -849.02765232991339
 Total Coulomb        Energy = 645.45139642739093
   11    -915.4115469793      1.32e-06  
 Alpha HF Exchange    Energy =  -6.92711784091489
 Beta HF Exchange     Energy =  -6.74227247566361
 DFT Correlation      Energy =  -2.69978281351844
 DFT Exchange         Energy = -54.20390443692384
 One-Electron (alpha) Energy = -875.96591416163278
 One-Electron (beta)  Energy = -849.02853709694853
 Total Coulomb        Energy = 645.45271337108659
   12    -915.4115470054      6.43e-07  Convergence criterion met
 ---------------------------------------
 SCF time:   CPU 34.99s  wall 3.00s 
<S^2> =          2.006460209
 Alpha HF Exchange    Energy =  -6.92711784091489
 Beta HF Exchange     Energy =  -6.74227247566361
 DFT Correlation      Energy =  -2.69978281351844
 DFT Exchange         Energy = -54.20390443692384
 One-Electron (alpha) Energy = -875.96591416163278
 One-Electron (beta)  Energy = -849.02853709694853
 Total Coulomb        Energy = 645.45271337108659
 Nuclear repulsion Energy = 234.70326844908800
 SCF   energy in the final basis set =     -915.4115470054
 Total energy in the final basis set =     -915.4115470054
 
 --------------------------------------------------------------
 
                    Orbital Energies (a.u.)
 --------------------------------------------------------------
 
 Alpha MOs
 -- Occupied --
-88.897 -88.880 -10.233 -10.221 -10.212  -7.959  -7.942  -5.930
 -5.920  -5.911  -5.907  -5.904  -5.896  -0.824  -0.753  -0.721
 -0.658  -0.602  -0.494  -0.458  -0.431  -0.423  -0.393  -0.384
 -0.363  -0.335  -0.309  -0.262  -0.243  -0.232
 -- Virtual --
  0.020   0.059   0.074   0.093   0.119   0.129   0.140   0.154
  0.188   0.198   0.246   0.282   0.338   0.339   0.350   0.359
  0.374   0.382   0.385   0.485   0.509   0.513   0.567   0.574
  0.619   0.641   0.696   0.710   0.733   0.734   0.746   0.749
  0.752   0.752   0.823   0.834   0.854   0.863   0.873   0.891
  0.902   0.917   0.975   1.084   1.133   1.139   1.179   1.284
  1.316   1.395   1.530   1.536   1.661   1.668   1.795   1.845
  1.923   1.945   1.985   2.051   2.059   2.061   2.092   2.099
  2.136   2.203   2.209   2.228   2.323   2.338   2.442   2.468
  2.469   2.592   2.599   2.687   2.712   2.747   2.762   2.783
  2.828   2.862   3.195   3.258   3.351   3.357   3.457   3.522
  3.929   3.978   4.234   4.411   4.603
 
 Beta MOs
 -- Occupied --
-88.891 -88.880 -10.232 -10.212 -10.208  -7.953  -7.942  -5.915
 -5.912  -5.907  -5.907  -5.903  -5.896  -0.818  -0.741  -0.678
 -0.642  -0.594  -0.491  -0.454  -0.425  -0.407  -0.380  -0.376
 -0.360  -0.333  -0.246  -0.242
 -- Virtual --
 -0.166  -0.093   0.022   0.065   0.098   0.099   0.121   0.133
  0.146   0.155   0.192   0.202   0.255   0.299   0.349   0.353
  0.362   0.376   0.378   0.385   0.387   0.491   0.515   0.525
  0.570   0.588   0.627   0.646   0.727   0.734   0.748   0.749
  0.759   0.772   0.804   0.809   0.827   0.837   0.856   0.865
  0.881   0.895   0.906   0.929   0.980   1.094   1.138   1.140
  1.179   1.298   1.326   1.418   1.544   1.546   1.661   1.691
  1.803   1.849   1.926   1.981   2.002   2.051   2.058   2.061
  2.092   2.098   2.136   2.204   2.215   2.229   2.325   2.346
  2.455   2.473   2.482   2.593   2.612   2.693   2.717   2.748
  2.764   2.785   2.830   2.866   3.197   3.262   3.353   3.361
  3.463   3.524   3.949   3.978   4.244   4.429   4.608
 --------------------------------------------------------------
 
          Ground-State Mulliken Net Atomic Charges

     Atom                 Charge (a.u.)    Spin (a.u.)
  --------------------------------------------------------
      1 S                    -0.044305       0.020404
      2 S                    -0.087605       1.114473
      3 C                    -0.194597      -0.065960
      4 C                    -0.319816       0.045238
      5 C                    -0.252852       0.981445
      6 H                     0.133044       0.012016
      7 H                     0.132882       0.010642
      8 H                     0.139268      -0.000866
      9 H                     0.139492      -0.000778
     10 H                     0.129991      -0.039511
     11 H                     0.130023      -0.039536
     12 H                     0.058842       0.000450
     13 H                     0.035633      -0.038016
  --------------------------------------------------------
  Sum of atomic charges =    -0.000000
  Sum of spin   charges =     2.000000

 -----------------------------------------------------------------
                    Cartesian Multipole Moments
 -----------------------------------------------------------------
    Charge (ESU x 10^10)
                 0.0000
    Dipole Moment (Debye)
         X       1.0685      Y      -2.5927      Z      -1.0067
       Tot       2.9795
    Quadrupole Moments (Debye-Ang)
        XX     -56.4035     XY      -0.7079     YY     -49.1460
        XZ      -0.2527     YZ      -1.4187     ZZ     -47.4574
    Octopole Moments (Debye-Ang^2)
       XXX      78.4013    XXY     -38.3286    XYY      13.8544
       YYY     -53.8497    XXZ     -22.2283    XYZ       4.5975
       YYZ     -16.2655    XZZ       0.5710    YZZ     -16.8465
       ZZZ     -44.2896
    Hexadecapole Moments (Debye-Ang^3)
      XXXX   -2142.4382   XXXY     178.9390   XXYY    -400.6232
      XYYY     202.7632   YYYY    -315.7911   XXXZ      47.9636
      XXYZ     -23.5944   XYYZ      24.0033   YYYZ     -56.9401
      XXZZ    -364.7179   XYZZ      62.2004   YYZZ     -72.2613
      XZZZ      29.3345   YZZZ     -45.0937   ZZZZ    -125.0592
 -----------------------------------------------------------------
 Calculating analytic gradient of the SCF energy
 Gradient of SCF Energy
            1           2           3           4           5           6
    1   0.0000074  -0.0064130   0.0000066  -0.0000123  -0.0000338   0.0000077
    2   0.0000116   0.0050463  -0.0000668   0.0000130   0.0000220  -0.0000236
    3  -0.0000088   0.0018882  -0.0000265  -0.0000228   0.0000197   0.0000128
            7           8           9          10          11          12
    1  -0.0000116   0.0000111  -0.0000037  -0.0000003   0.0000089  -0.0000016
    2   0.0000288  -0.0000012   0.0000134  -0.0000035  -0.0000100   0.0000038
    3   0.0000430  -0.0000185  -0.0000116  -0.0000139  -0.0000014  -0.0000068
           13
    1   0.0064346
    2  -0.0050338
    3  -0.0018534
 Max gradient component =       6.435E-03
 RMS gradient           =       1.897E-03
 Gradient time:  CPU 10.54 s  wall 0.93 s
 Geometry Optimization Parameters
   NAtoms,    NIC,     NZ,  NCons,   NDum,   NFix, NCnnct, MaxDiis
       13      82       0       1       0       0       0       0

 Cartesian Hessian Update
 Hessian Updated using BFGS Update


** CONSTRAINED OPTIMIZATION IN DELOCALIZED INTERNAL COORDINATES **
   Searching for a Minimum

   Optimization Cycle:  14

                       Coordinates (Angstroms)
     ATOM                X               Y               Z
      1  S         2.8853218735    0.3355410849    0.4342066326
      2  S        -3.7165950965    1.4790227981    0.6263016281
      3  C         0.1295084784    0.1292718687    0.2138136301
      4  C         1.4175675989   -0.6840685681   -0.0457653905
      5  C        -1.0900068110   -0.6499747613   -0.1572493615
      6  H         0.0995597017    0.4056339415    1.2744234515
      7  H         0.1792961707    1.0597705009   -0.3634017588
      8  H         1.4073696251   -1.6032191478    0.5451826435
      9  H         1.4915963066   -0.9469968661   -1.1039971359
     10  H        -1.4642720148   -1.4231527485    0.5087234727
     11  H        -1.3979715728   -0.7153946585   -1.1974851361
     12  H         3.8214217821   -0.5850512177    0.1309726842
     13  H        -2.6545960419    0.6222177739    0.3131826402
   Point Group: c1    Number of degrees of freedom:    33


   Energy is   -915.411547005

              Constraints and their Current Values
                                        Value     Constraint
   Distance(Angs):        2  13             1.400000     1.400000
 Hessian Updated using BFGS Update

 32 Hessian modes will be used to form the next step
  Hessian Eigenvalues:
     0.003954    0.014781    0.030103    0.045005    0.045514    0.066003
     0.069432    0.079425    0.084286    0.085209    0.093396    0.120905
     0.130731    0.141445    0.142943    0.159338    0.160059    0.164477
     0.173910    0.199942    0.220240    0.222990    0.227112    0.258225
     0.290702    0.318343    0.341467    0.341624    0.344285    0.344321
     0.344750    0.345423

 Minimum Search - Taking Simple RFO Step
 Searching for Lamda that Minimizes Along All modes
 Value Taken    Lamda =   0.00000000
 Step Taken.  Stepsize is  0.003541

                             Maximum     Tolerance    Cnvgd?
         Gradient           0.000080      0.000300     YES
         Displacement       0.001432      0.001200      NO
         Energy change     -0.000000      0.000001     YES


                       Distance Matrix (Angstroms)
             S (  1)   S (  2)   C (  3)   C (  4)   C (  5)   H (  6)
   S (  2)  6.702966
   C (  3)  2.772296  4.096887
   C (  4)  1.850481  5.611619  1.545316
   C (  5)  4.138152  3.470670  1.494032  2.510283
   H (  6)  2.910558  4.016872  1.096433  2.160439  2.139875
   H (  7)  2.912604  4.041442  1.096122  2.162217  2.139359  1.765425
   H (  8)  2.440379  5.980118  2.178132  1.092777  2.763870  2.505524
   H (  9)  2.439968  6.000397  2.179510  1.092916  2.765724  3.069896
   H ( 10)  4.692283  3.675514  2.244355  3.026335  1.086922  2.525139
   H ( 11)  4.702498  3.676640  2.244643  3.042154  1.086836  3.099941
   H ( 12)  1.347488  7.831185  3.761296  2.412376  4.920307  4.017610
   H ( 13)  5.548650  1.400000  2.829153  4.291590  2.070681  2.925110
             H (  7)   H (  8)   H (  9)   H ( 10)   H ( 11)   H ( 12)
   H (  8)  3.070049
   H (  9)  2.509528  1.776940
   H ( 10)  3.102713  2.877513  3.400698
   H ( 11)  2.516879  3.419804  2.900342  1.848368
   H ( 12)  4.026776  2.652524  2.661624  5.365041  5.387379
   H ( 13)  2.946212  4.637452  4.654218  2.374584  2.377063  6.590107

 
 Final energy is   -915.411547005427     


 ******************************
 **  OPTIMIZATION CONVERGED  **
 ******************************

                       Coordinates (Angstroms)
     ATOM                X               Y               Z
      1  S         2.8853218735    0.3355410849    0.4342066326
      2  S        -3.7165950965    1.4790227981    0.6263016281
      3  C         0.1295084784    0.1292718687    0.2138136301
      4  C         1.4175675989   -0.6840685681   -0.0457653905
      5  C        -1.0900068110   -0.6499747613   -0.1572493615
      6  H         0.0995597017    0.4056339415    1.2744234515
      7  H         0.1792961707    1.0597705009   -0.3634017588
      8  H         1.4073696251   -1.6032191478    0.5451826435
      9  H         1.4915963066   -0.9469968661   -1.1039971359
     10  H        -1.4642720148   -1.4231527485    0.5087234727
     11  H        -1.3979715728   -0.7153946585   -1.1974851361
     12  H         3.8214217821   -0.5850512177    0.1309726842
     13  H        -2.6545960419    0.6222177739    0.3131826402

Z-matrix Print:
$molecule
0 3
S 
H  1 1.347488
C  1 1.850481 2 96.673566
H  3 1.092777 1 109.304518 2 58.850359 0
H  3 1.092916 1 109.267307 2 -60.080428 0
C  3 1.545316 1 109.120549 2 179.335010 0
H  6 1.096122 3 108.692065 1 58.159743 0
H  6 1.096433 3 108.537223 1 -58.184715 0
C  6 1.494032 3 111.354306 1 -179.974679 0
H  9 1.086836 6 120.026702 3 -80.110928 0
H  9 1.086922 6 119.994011 3 78.087508 0
H  9 2.070681 6 103.879858 3 178.889985 0
S  12 1.400000 9 179.702252 6 154.492927 0
$end

PES scan, value:    1.4000 energy: -915.4115470054
------- Summary of potential scan: ------ 
    1.4000      -915.4115470054
----------------------------------------- 
Archival summary:
1\1\hpc0250\JobtypUnspecified\ProcedureUnspecified\6-31G**\238(3)\knomura\ThuMar1410:14:352019ThuMar1410:14:352019\0\\#,JobtypUnspecified,ProcedureUnspecified,6-31G**,\\0,3\S\H,1,1.34749\C,1,1.85048,2,96.6736\H,3,1.09278,1,109.305,2,58.8504,0\H,3,1.09292,1,109.267,2,-60.0804,0\C,3,1.54532,1,109.121,2,179.335,0\H,6,1.09612,3,108.692,1,58.1597,0\H,6,1.09643,3,108.537,1,-58.1847,0\C,6,1.49403,3,111.354,1,-179.975,0\H,9,1.08684,6,120.027,3,-80.1109,0\H,9,1.08692,6,119.994,3,78.0875,0\H,9,2.07068,6,103.88,3,178.89,0\S,12,1.4,9,179.702,6,154.493,0\\\@

 Total job time:  62.50s(wall), 723.21s(cpu) 
 Thu Mar 14 10:14:35 2019

        *************************************************************
        *                                                           *
        *  Thank you very much for using Q-Chem.  Have a nice day.  *
        *                                                           *
        *************************************************************


