
Running Job 1 of 1 thiol/04/S-H.xyz.data/inputs/bond_singlet_3.2.in
qchem thiol/04/S-H.xyz.data/inputs/bond_singlet_3.2.in_10880.0 /staging/scratch/2868767/qchem10880/ 1
/usr/usc/qchem/5.1.1/exe/qcprog.exe_s thiol/04/S-H.xyz.data/inputs/bond_singlet_3.2.in_10880.0 /staging/scratch/2868767/qchem10880/
Check license passed

                  Welcome to Q-Chem
     A Quantum Leap Into The Future Of Chemistry


 Q-Chem 5.1, Q-Chem, Inc., Pleasanton, CA (2018)

 Yihan Shao,  Zhengting Gan,  E. Epifanovsky,  A. T. B. Gilbert,  M. Wormit,  
 J. Kussmann,  A. W. Lange,  A. Behn,  Jia Deng,  Xintian Feng,  D. Ghosh,  
 M. Goldey,  P. R. Horn,  L. D. Jacobson,  I. Kaliman,  T. Kus,  A. Landau,  
 Jie Liu,  E. I. Proynov,  R. M. Richard,  R. P. Steele,  E. J. Sundstrom,  
 H. L. Woodcock III,  P. M. Zimmerman,  D. Zuev,  B. Albrecht,  E. Alguire,  
 S. A. Baeppler,  D. Barton,  Z. Benda,  Y. A. Bernard,  E. J. Berquist,  
 K. B. Bravaya,  H. Burton,  D. Casanova,  Chun-Min Chang,  Yunqing Chen,  
 A. Chien,  K. D. Closser,  M. P. Coons,  S. Coriani,  S. Dasgupta,  
 A. L. Dempwolff,  M. Diedenhofen,  Hainam Do,  R. G. Edgar,  Po-Tung Fang,  
 S. Faraji,  S. Fatehi,  Qingguo Feng,  K. D. Fenk,  J. Fosso-Tande,  
 Qinghui Ge,  A. Ghysels,  G. Gidofalvi,  J. Gomes,  J. Gonthier,  A. Gunina,  
 D. Hait,  M. W. D. Hanson-Heine,  P. H. P. Harbach,  A. W. Hauser,  
 J. E. Herr,  E. G. Hohenstein,  Z. C. Holden,  Kerwin Hui,  B. C. Huynh,  
 T.-C. Jagau,  Hyunjun Ji,  B. Kaduk,  K. Khistyaev,  Jaehoon Kim,  
 P. Klunzinger,  K. Koh,  D. Kosenkov,  L. Koulias,  T. Kowalczyk,  
 C. M. Krauter,  A. Kunitsa,  Ka Un Lao,  A. Laurent,  K. V. Lawler,  
 Joonho Lee,  D. Lefrancois,  S. Lehtola,  D. S. Levine,  Yi-Pei Li,  
 You-Sheng Lin,  Fenglai Liu,  E. Livshits,  A. Luenser,  P. Manohar,  
 E. Mansoor,  S. F. Manzer,  Shan-Ping Mao,  Yuezhi Mao,  N. Mardirossian,  
 A. V. Marenich,  T. Markovich,  L. A. Martinez-Martinez,  S. A. Maurer,  
 N. J. Mayhall,  S. C. McKenzie,  J.-M. Mewes,  A. F. Morrison,  
 J. W. Mullinax,  K. Nanda,  T. S. Nguyen-Beck,  R. Olivares-Amaya,  
 J. A. Parkhill,  T. M. Perrine,  F. Plasser,  P. Pokhilko,  S. Prager,  
 A. Prociuk,  E. Ramos,  D. R. Rehn,  F. Rob,  M. Schneider,  N. Sergueev,  
 S. M. Sharada,  S. Sharma,  D. W. Small,  T. Stauch,  T. Stein,  
 Yu-Chuan Su,  A. J. W. Thom,  A. Tkatchenko,  T. Tsuchimochi,  N. M. Tubman,  
 L. Vogt,  M. L. Vidal,  O. Vydrov,  M. A. Watson,  J. Wenzel,  
 M. de Wergifosse,  T. A. Wesolowski,  A. White,  J. Witte,  A. Yamada,  
 Jun Yang,  K. Yao,  S. Yeganeh,  S. R. Yost,  Zhi-Qiang You,  A. Zech,  
 Igor Ying Zhang,  Xing Zhang,  Yan Zhao,  Ying Zhu,  B. R. Brooks,  
 G. K. L. Chan,  C. J. Cramer,  M. S. Gordon,  W. J. Hehre,  A. Klamt,  
 M. W. Schmidt,  C. D. Sherrill,  D. G. Truhlar,  A. Aspuru-Guzik,  R. Baer,  
 A. T. Bell,  N. A. Besley,  Jeng-Da Chai,  A. E. DePrince, III,  
 R. A. DiStasio Jr.,  A. Dreuw,  B. D. Dunietz,  T. R. Furlani,  
 Chao-Ping Hsu,  Yousung Jung,  Jing Kong,  D. S. Lambrecht,  WanZhen Liang,  
 C. Ochsenfeld,  V. A. Rassolov,  L. V. Slipchenko,  J. E. Subotnik,  
 T. Van Voorhis,  J. M. Herbert,  A. I. Krylov,  P. M. W. Gill,  M. Head-Gordon

 Contributors to earlier versions of Q-Chem not listed above: 
 R. D. Adamson,  B. Austin,  J. Baker,  G. J. O. Beran,  K. Brandhorst,  
 S. T. Brown,  E. F. C. Byrd,  A. K. Chakraborty,  C.-L. Cheng,  
 Siu Hung Chien,  D. M. Chipman,  D. L. Crittenden,  H. Dachsel,  
 R. J. Doerksen,  A. D. Dutoi,  L. Fusti-Molnar,  W. A. Goddard III,  
 A. Golubeva-Zadorozhnaya,  S. R. Gwaltney,  G. Hawkins,  A. Heyden,  
 S. Hirata,  G. Kedziora,  F. J. Keil,  C. Kelley,  Jihan Kim,  R. A. King,  
 R. Z. Khaliullin,  P. P. Korambath,  W. Kurlancheek,  A. M. Lee,  M. S. Lee,  
 S. V. Levchenko,  Ching Yeh Lin,  D. Liotard,  R. C. Lochan,  I. Lotan,  
 P. E. Maslen,  N. Nair,  D. P. O'Neill,  D. Neuhauser,  E. Neuscamman,  
 C. M. Oana,  R. Olson,  B. Peters,  R. Peverati,  P. A. Pieniazek,  
 Y. M. Rhee,  J. Ritchie,  M. A. Rohrdanz,  E. Rosta,  N. J. Russ,  
 H. F. Schaefer III,  N. E. Schultz,  N. Shenvi,  A. C. Simmonett,  A. Sodt,  
 D. Stuck,  K. S. Thanthiriwatte,  V. Vanovschi,  Tao Wang,  A. Warshel,  
 C. F. Williams,  Q. Wu,  X. Xu,  W. Zhang

 Please cite Q-Chem as follows:
 Y. Shao et al., Mol. Phys. 113, 184-215 (2015)
 DOI: 10.1080/00268976.2014.952696

 Q-Chem 5.1.1 for Intel X86 EM64T Linux

 Parts of Q-Chem use Armadillo 8.300.2 (Tropical Shenanigans).
 http://arma.sourceforge.net/

 Q-Chem begins on Thu Mar 14 09:28:34 2019  

Host: 
0

     Scratch files written to /staging/scratch/2868767/qchem10880//
 Aug318 |scratch|qcdevops|jenkins|workspace|build_RNUM 6013   
Processing $rem in /usr/usc/qchem/5.1.1/config/preferences.
 MEM_TOTAL  2000 
Input Ideriv = 2
Curr. Ideriv = -1
Max.  Ideriv = 2

Checking the input file for inconsistencies... 	...done.

--------------------------------------------------------------
User input:
--------------------------------------------------------------

$comment
potential surface scanner
$end

$rem
JOBTYPE  PES_SCAN
UNRESTRICTED TRUE
SYM_IGNORE  TRUE
GEOM_OPT_MAX_CYCLES 400
SCF_MAX_CYCLES 400
METHOD   B3LYP
BASIS   6-31G**
PDB_PRINT 2
SCF_CONVERGENCE 6
THRESH 14
SCF_PRINT 1
$end
$molecule
0 1
S 2.701380 0.538987 0.053385
S -2.845976 0.125735 -0.358464
C -0.031885 0.188923 -0.103801
C 1.264779 -0.621165 -0.013173
C -1.261326 -0.724007 -0.157730
H -0.125174 0.846914 0.768675
H -0.015651 0.832879 -0.989193
H 1.266852 -1.241001 0.888079
H 1.372936 -1.274435 -0.884240
H -1.306138 -1.398688 0.703295
H -1.209479 -1.363922 -1.056284
H 3.656274 -0.400219 0.201702
H -2.358388 1.913601 2.126650
$end
$scan
stre 2 13 3.200000 3.201000 0.100000
$end
--------------------------------------------------------------
 ----------------------------------------------------------------
             Standard Nuclear Orientation (Angstroms)
    I     Atom           X                Y                Z
 ----------------------------------------------------------------
    1      S       2.7013800000     0.5389870000     0.0533850000
    2      S      -2.8459760000     0.1257350000    -0.3584640000
    3      C      -0.0318850000     0.1889230000    -0.1038010000
    4      C       1.2647790000    -0.6211650000    -0.0131730000
    5      C      -1.2613260000    -0.7240070000    -0.1577300000
    6      H      -0.1251740000     0.8469140000     0.7686750000
    7      H      -0.0156510000     0.8328790000    -0.9891930000
    8      H       1.2668520000    -1.2410010000     0.8880790000
    9      H       1.3729360000    -1.2744350000    -0.8842400000
   10      H      -1.3061380000    -1.3986880000     0.7032950000
   11      H      -1.2094790000    -1.3639220000    -1.0562840000
   12      H       3.6562740000    -0.4002190000     0.2017020000
   13      H      -2.3583880000     1.9136010000     2.1266500000
 ----------------------------------------------------------------
 Nuclear Repulsion Energy =   261.5487888003 hartrees
 There are       29 alpha and       29 beta electrons
 Requested basis set is 6-31G(d,p)
 There are 46 shells and 123 basis functions

 Total QAlloc Memory Limit   2000 MB
 Mega-Array Size       188 MB
 MEM_STATIC part       192 MB
A total of 1 constraints
  
            1
    1   1.0100000
    2   2.0100000
    3  13.0100000
    4   3.2000000
    5   3.2010000
    6   0.1000000
    7   0.0000000
    8   0.0000000
    9   0.0000000
   10   0.0000000

                       Distance Matrix (Angstroms)
             S (  1)   S (  2)   C (  3)   C (  4)   C (  5)   H (  6)
   S (  2)  5.577953
   C (  3)  2.760071  2.826297
   C (  4)  1.847757  4.192302  1.531598
   C (  5)  4.164464  1.809274  1.532278  2.532327
   H (  6)  2.931871  3.032046  1.096754  2.167605  2.148688
   H (  7)  2.924996  2.984730  1.094926  2.169415  2.160308  1.761332
   H (  8)  2.433710  4.509677  2.171457  1.093826  2.784364  2.512247
   H (  9)  2.435653  4.476174  2.173482  1.094174  2.787494  3.078406
   H ( 10)  4.498574  2.412944  2.189893  2.779835  1.094791  2.538046
   H ( 11)  4.488568  2.320378  2.169166  2.785987  1.104345  3.064961
   H ( 12)  1.347564  6.547493  3.747391  2.411273  4.941338  4.021958
   H ( 13)  5.638195  3.100000  3.655413  4.912354  3.657720  2.822970
             H (  7)   H (  8)   H (  9)   H ( 10)   H ( 11)   H ( 12)
   H (  8)  3.077327
   H (  9)  2.525859  1.775806
   H ( 10)  3.083790  2.584432  3.116592
   H ( 11)  2.501132  3.150853  2.589686  1.762575
   H ( 12)  4.052381  2.624379  2.675286  5.086656  5.117304
   H ( 13)  4.045350  4.962654  5.757761  3.755586  4.710968  6.725723

 
 A cutoff of  1.0D-14 yielded    990 shell pairs
 There are      7203 function pairs
 
 -------------------------------------------------------
 OpenMP Integral Computing Module                       
 Release: version 1.0, May 2013, Q-Chem Inc. Pittsburgh 
 -------------------------------------------------------
 Integral Job Info:
 Integral job number is                      11
 Integral operator is                         1
 short-range coefficients                     0
 long-range coefficients              100000000
 Omega coefficients                           0
 if combine SR and LR in K                    0
 Integral screening is                        0
 Integral computing path is                   2
 max size of driver memory is            800000
 size of driver memory is                593474
 size of scratch memory is             15267112
 max col of scratch BK array               1296
 max len of scratch array in speh3          155
 max len of scratch index in speh4           18
 max int batch size is                      520
 min int batch size is                       52
 fixed nKL is                                52
 max L of basis functions is                  2
 order of int derivative is                   0
 number of shells is                         46
 number of basis is                         123
 number of cartesian basis is               123
 number of contracted shell pairs           990
 number of primitive shell pairs           3720
 maxK2 (contraction) of shell pair           36
 max number of K2 of shell pair               1
 max number of CS2 of shell pair             80
 max number of PS2 of shell pair            336
 mem total for path MDJ                  516588
 -------------------------------------------------------
 Smallest overlap matrix eigenvalue = 5.05E-03

 Scale SEOQF with 1.000000e-01/1.000000e-01/1.000000e-01

 Standard Electronic Orientation quadrupole field applied
 Nucleus-field energy     =     0.0000000108 hartrees
 Guess from superposition of atomic densities
 Warning:  Energy on first SCF cycle will be non-variational
 SAD guess density has 58.000000 electrons

 -----------------------------------------------------------------------
  General SCF calculation program by
  Eric Jon Sundstrom, Paul Horn, Yuezhi Mao, Dmitri Zuev, Alec White,
  David Stuck, Shaama M.S., Shane Yost, Joonho Lee, David Small,
  Daniel Levine, Susi Lehtola, Hugh Burton, Evgeny Epifanovsky
 -----------------------------------------------------------------------
 Exchange:     0.2000 Hartree-Fock + 0.0800 Slater + 0.7200 B88
 Correlation:  0.1900 VWN1RPA + 0.8100 LYP
 Using SG-1 standard quadrature grid
 using 12 threads for integral computing
 -------------------------------------------------------
 OpenMP Integral computing Module                
 Release: version 1.0, May 2013, Q-Chem Inc. Pittsburgh 
 -------------------------------------------------------
 -------------------------------------------------------
 OpenMP BLAS3 based DFT computing Module                
 Release: version 1.0, May 2013, Q-Chem Inc. Pittsburgh 
 -------------------------------------------------------
 A unrestricted SCF calculation will be
 performed using DIIS
 SCF converges when DIIS error is below 1.0e-06
 Alpha HF Exchange    Energy =  -6.83677368939013
 Beta HF Exchange     Energy =  -6.83677368939013
 DFT Correlation      Energy =  -2.70169603138829
 DFT Exchange         Energy = -53.82383952166202
 One-Electron (alpha) Energy = -887.56150012272030
 One-Electron (beta)  Energy = -887.56150012272030
 Total Coulomb        Energy = 667.86920960648501
 ---------------------------------------
  Cycle       Energy         DIIS error
 ---------------------------------------
    1    -915.9040847597      2.71e-02  
 Alpha HF Exchange    Energy =  -6.86012882674140
 Beta HF Exchange     Energy =  -6.86012882674141
 DFT Correlation      Energy =  -2.73757665688441
 DFT Exchange         Energy = -54.45394781496634
 One-Electron (alpha) Energy = -893.43851240470678
 One-Electron (beta)  Energy = -893.43851240470769
 Total Coulomb        Energy = 681.10061111974358
    2    -915.1394070039      3.47e-03  
 Alpha HF Exchange    Energy =  -6.78045897301757
 Beta HF Exchange     Energy =  -6.78045897301758
 DFT Correlation      Energy =  -2.68718922082978
 DFT Exchange         Energy = -53.76639040789399
 One-Electron (alpha) Energy = -882.41955298519315
 One-Electron (beta)  Energy = -882.41955298519031
 Total Coulomb        Energy = 658.57302465801320
    3    -914.7317900761      6.00e-03  
 Alpha HF Exchange    Energy =  -6.81035189082277
 Beta HF Exchange     Energy =  -6.81035189082288
 DFT Correlation      Energy =  -2.71244674856866
 DFT Exchange         Energy = -54.08387123158290
 One-Electron (alpha) Energy = -889.01152507770678
 One-Electron (beta)  Energy = -889.01152507773054
 Total Coulomb        Energy = 671.54868757290774
    4    -915.3425955333      7.01e-04  
 Alpha HF Exchange    Energy =  -6.81258314549183
 Beta HF Exchange     Energy =  -6.81258314549175
 DFT Correlation      Energy =  -2.70901345627515
 DFT Exchange         Energy = -54.08644036083039
 One-Electron (alpha) Energy = -887.51178476653706
 One-Electron (beta)  Energy = -887.51178476656821
 Total Coulomb        Energy = 668.63541273780174
    5    -915.2599880923      2.16e-03  
 Alpha HF Exchange    Energy =  -6.81443993342489
 Beta HF Exchange     Energy =  -6.81443993342512
 DFT Correlation      Energy =  -2.71340338347295
 DFT Exchange         Energy = -54.11893346404487
 One-Electron (alpha) Energy = -889.02001809603098
 One-Electron (beta)  Energy = -889.02001809609055
 Total Coulomb        Energy = 671.60555634117452
    6    -915.3469077542      2.82e-04  
 Alpha HF Exchange    Energy =  -6.81394077531461
 Beta HF Exchange     Energy =  -6.81394077531509
 DFT Correlation      Energy =  -2.71323475027520
 DFT Exchange         Energy = -54.11526974965305
 One-Electron (alpha) Energy = -888.96964473625428
 One-Electron (beta)  Energy = -888.96964473637684
 Total Coulomb        Energy = 671.49994844587286
    7    -915.3469382663      2.69e-04  
 Alpha HF Exchange    Energy =  -6.81480239923815
 Beta HF Exchange     Energy =  -6.81480239923919
 DFT Correlation      Energy =  -2.71382162239021
 DFT Exchange         Energy = -54.12200121531060
 One-Electron (alpha) Energy = -889.12972177893118
 One-Electron (beta)  Energy = -889.12972177917072
 Total Coulomb        Energy = 671.82802969599447
    8    -915.3480526872      1.03e-04  
 Alpha HF Exchange    Energy =  -6.81520982379532
 Beta HF Exchange     Energy =  -6.81520982379829
 DFT Correlation      Energy =  -2.71414779249998
 DFT Exchange         Energy = -54.12505390027049
 One-Electron (alpha) Energy = -889.21439935297406
 One-Electron (beta)  Energy = -889.21439935361559
 Total Coulomb        Energy = 672.00137521787622
    9    -915.3482560180      1.09e-05  
 Alpha HF Exchange    Energy =  -6.81524925180388
 Beta HF Exchange     Energy =  -6.81524925181006
 DFT Correlation      Energy =  -2.71416387021249
 DFT Exchange         Energy = -54.12537170271636
 One-Electron (alpha) Energy = -889.21916080361655
 One-Electron (beta)  Energy = -889.21916080495271
 Total Coulomb        Energy = 672.01130672724798
   10    -915.3482601468      7.61e-06  
 Alpha HF Exchange    Energy =  -6.81524516454636
 Beta HF Exchange     Energy =  -6.81524516455994
 DFT Correlation      Energy =  -2.71416275813345
 DFT Exchange         Energy = -54.12534703522900
 One-Electron (alpha) Energy = -889.21856339075134
 One-Electron (beta)  Energy = -889.21856339368628
 Total Coulomb        Energy = 672.01007669461876
   11    -915.3482614012      5.84e-06  
 Alpha HF Exchange    Energy =  -6.81522501774035
 Beta HF Exchange     Energy =  -6.81522501777356
 DFT Correlation      Energy =  -2.71414992184550
 DFT Exchange         Energy = -54.12519435059981
 One-Electron (alpha) Energy = -889.21535592078112
 One-Electron (beta)  Energy = -889.21535592797886
 Total Coulomb        Energy = 672.00345513097523
   12    -915.3482622147      2.20e-06  
 Alpha HF Exchange    Energy =  -6.81521399685591
 Beta HF Exchange     Energy =  -6.81521399693324
 DFT Correlation      Energy =  -2.71414235915696
 DFT Exchange         Energy = -54.12511450168406
 One-Electron (alpha) Energy = -889.21350219069075
 One-Electron (beta)  Energy = -889.21350220747433
 Total Coulomb        Energy = 671.99963811071098
   13    -915.3482623310      2.92e-07  Convergence criterion met
 ---------------------------------------
 SCF time:   CPU 40.57s  wall 4.00s 
<S^2> =          0.000000000
 Alpha HF Exchange    Energy =  -6.81521399685591
 Beta HF Exchange     Energy =  -6.81521399693324
 DFT Correlation      Energy =  -2.71414235915696
 DFT Exchange         Energy = -54.12511450168406
 One-Electron (alpha) Energy = -889.21350219069075
 One-Electron (beta)  Energy = -889.21350220747433
 Total Coulomb        Energy = 671.99963811071098
 Nuclear repulsion Energy = 261.54878881106555
 SCF   energy in the final basis set =     -915.3482623310
 Total energy in the final basis set =     -915.3482623310
 
 --------------------------------------------------------------
 
                    Orbital Energies (a.u.)
 --------------------------------------------------------------
 
 Alpha MOs
 -- Occupied --
-88.911 -88.881 -10.239 -10.231 -10.209  -7.968  -7.943  -5.934
 -5.930  -5.921  -5.908  -5.904  -5.897  -0.834  -0.781  -0.705
 -0.623  -0.599  -0.497  -0.458  -0.433  -0.418  -0.388  -0.363
 -0.350  -0.334  -0.265  -0.246  -0.242
 -- Virtual --
 -0.189   0.014   0.042   0.077   0.090   0.111   0.134   0.144
  0.156   0.180   0.204   0.213   0.321   0.343   0.360   0.367
  0.381   0.387   0.389   0.402   0.494   0.512   0.516   0.547
  0.584   0.625   0.639   0.648   0.730   0.741   0.748   0.785
  0.800   0.815   0.824   0.849   0.862   0.869   0.887   0.891
  0.901   0.929   0.936   0.955   1.028   1.105   1.151   1.155
  1.338   1.375   1.401   1.614   1.645   1.651   1.666   1.820
  1.845   1.964   1.999   2.003   2.020   2.040   2.052   2.071
  2.090   2.101   2.108   2.192   2.212   2.238   2.283   2.316
  2.377   2.479   2.559   2.593   2.616   2.699   2.754   2.783
  2.794   2.811   2.861   3.181   3.232   3.312   3.333   3.453
  3.532   3.904   3.979   4.240   4.408   4.611
 
 Beta MOs
 -- Occupied --
-88.911 -88.881 -10.239 -10.231 -10.209  -7.968  -7.943  -5.934
 -5.930  -5.921  -5.908  -5.904  -5.897  -0.834  -0.781  -0.705
 -0.623  -0.599  -0.497  -0.458  -0.433  -0.418  -0.388  -0.363
 -0.350  -0.334  -0.265  -0.246  -0.242
 -- Virtual --
 -0.189   0.014   0.042   0.077   0.090   0.111   0.134   0.144
  0.156   0.180   0.204   0.213   0.321   0.343   0.360   0.367
  0.381   0.387   0.389   0.402   0.494   0.512   0.516   0.547
  0.584   0.625   0.639   0.648   0.730   0.741   0.748   0.785
  0.800   0.815   0.824   0.849   0.862   0.869   0.887   0.891
  0.901   0.929   0.936   0.955   1.028   1.105   1.151   1.155
  1.338   1.375   1.401   1.614   1.645   1.651   1.666   1.820
  1.845   1.964   1.999   2.003   2.020   2.040   2.052   2.071
  2.090   2.101   2.108   2.192   2.212   2.238   2.283   2.316
  2.377   2.479   2.559   2.593   2.616   2.699   2.754   2.783
  2.794   2.811   2.861   3.181   3.232   3.312   3.333   3.453
  3.532   3.904   3.979   4.240   4.408   4.611
 --------------------------------------------------------------
 
          Ground-State Mulliken Net Atomic Charges

     Atom                 Charge (a.u.)    Spin (a.u.)
  --------------------------------------------------------
      1 S                    -0.036614      -0.000000
      2 S                    -0.006326      -0.000000
      3 C                    -0.172229      -0.000000
      4 C                    -0.332500      -0.000000
      5 C                    -0.357185      -0.000000
      6 H                     0.131387      -0.000000
      7 H                     0.136924       0.000000
      8 H                     0.137940      -0.000000
      9 H                     0.136102       0.000000
     10 H                     0.152601      -0.000000
     11 H                     0.155802      -0.000000
     12 H                     0.058140      -0.000000
     13 H                    -0.004041       0.000000
  --------------------------------------------------------
  Sum of atomic charges =     0.000000
  Sum of spin   charges =    -0.000000

 -----------------------------------------------------------------
                    Cartesian Multipole Moments
 -----------------------------------------------------------------
    Charge (ESU x 10^10)
                 0.0000
    Dipole Moment (Debye)
         X       1.0909      Y      -2.4889      Z      -0.0222
       Tot       2.7176
    Quadrupole Moments (Debye-Ang)
        XX     -53.7534     XY      -2.9178     YY     -47.0545
        XZ       0.7729     YZ       1.2645     ZZ     -47.6766
    Octopole Moments (Debye-Ang^2)
       XXX      41.1086    XXY     -14.0300    XYY       1.7491
       YYY      -9.8494    XXZ       3.3159    XYZ      -3.8537
       YYZ       3.8796    XZZ      -2.9533    YZZ      -4.7392
       ZZZ       8.9716
    Hexadecapole Moments (Debye-Ang^3)
      XXXX   -1475.0754   XXXY     -61.8666   XXYY    -281.9053
      XYYY     -24.5901   YYYY    -175.3052   XXXZ      -6.9831
      XXYZ       1.0631   XYYZ     -13.6994   YYYZ     -13.5075
      XXZZ    -280.1041   XYZZ     -12.4603   YYZZ     -44.6189
      XZZZ     -32.9356   YZZZ     -11.5626   ZZZZ    -121.3149
 -----------------------------------------------------------------
 Calculating analytic gradient of the SCF energy
 Gradient of SCF Energy
            1           2           3           4           5           6
    1   0.0000009  -0.0044699  -0.0004850   0.0000077   0.0001791   0.0003732
    2  -0.0000067  -0.0159487  -0.0000147  -0.0000304   0.0000955  -0.0000003
    3   0.0000468  -0.0223067   0.0001107  -0.0000408   0.0001058  -0.0001906
            7           8           9          10          11          12
    1   0.0000332  -0.0000370   0.0000632  -0.0000330   0.0000383   0.0000068
    2   0.0000088   0.0000010  -0.0000097   0.0000359   0.0000338  -0.0000003
    3   0.0000386  -0.0000212  -0.0000181   0.0000794   0.0000420  -0.0000584
           13
    1   0.0043226
    2   0.0158358
    3   0.0222124
 Max gradient component =       2.231E-02
 RMS gradient           =       6.274E-03
 Gradient time:  CPU 11.03 s  wall 0.99 s
 Geometry Optimization Parameters
   NAtoms,    NIC,     NZ,  NCons,   NDum,   NFix, NCnnct, MaxDiis
       13      90       0       1       0       0       0       0


** CONSTRAINED OPTIMIZATION IN DELOCALIZED INTERNAL COORDINATES **
   Searching for a Minimum

   Optimization Cycle:   1

                       Coordinates (Angstroms)
     ATOM                X               Y               Z
      1  S         2.7013800000    0.5389870000    0.0533850000
      2  S        -2.8459760000    0.1257350000   -0.3584640000
      3  C        -0.0318850000    0.1889230000   -0.1038010000
      4  C         1.2647790000   -0.6211650000   -0.0131730000
      5  C        -1.2613260000   -0.7240070000   -0.1577300000
      6  H        -0.1251740000    0.8469140000    0.7686750000
      7  H        -0.0156510000    0.8328790000   -0.9891930000
      8  H         1.2668520000   -1.2410010000    0.8880790000
      9  H         1.3729360000   -1.2744350000   -0.8842400000
     10  H        -1.3061380000   -1.3986880000    0.7032950000
     11  H        -1.2094790000   -1.3639220000   -1.0562840000
     12  H         3.6562740000   -0.4002190000    0.2017020000
     13  H        -2.3583880000    1.9136010000    2.1266500000
   Point Group: c1    Number of degrees of freedom:    33


   Energy is   -915.348262331

              Constraints and their Current Values
                                        Value     Constraint
   Distance(Angs):        2  13             3.100000     3.200000

 Attempting to Generate Delocalized Internal Coordinates

   Using Lagrange Multiplier Algorithm


 34 Hessian modes will be used to form the next step
  Hessian Eigenvalues:
    -0.993846    0.016637    0.045000    0.045000    0.045608    0.048067
     0.067545    0.075108    0.076748    0.079419    0.083599    0.084683
     0.095682    0.123729    0.124451    0.130043    0.134907    0.142319
     0.159612    0.160000    0.193545    0.220555    0.226889    0.249307
     0.258262    0.285120    0.292763    0.330011    0.332061    0.342496
     0.342648    0.343347    0.343742    1.006192

 Minimum Search - Taking P-RFO Step
 Searching for Lamda that Maximizes Along the Constraint modes Only
 Value Taken    Lamda =   0.02317069


 ********************************************
 ** ERROR IN DETERMINING Lamda IN CONFormD **
 ********************************************


 ** Scaling Hessian by  2.785499 **


 34 Hessian modes will be used to form the next step
  Hessian Eigenvalues:
    -0.982954    0.046341    0.125347    0.125347    0.127040    0.133892
     0.188148    0.209213    0.213781    0.221220    0.232865    0.235885
     0.266523    0.344647    0.346659    0.362236    0.375783    0.396428
     0.444600    0.445680    0.539118    0.614357    0.631998    0.694443
     0.719388    0.794202    0.815491    0.919246    0.924956    0.954022
     0.954447    0.956392    0.957492    1.017342

 Minimum Search - Taking P-RFO Step
 Searching for Lamda that Maximizes Along the Constraint modes Only
 Value Taken    Lamda =   0.02360212
 Searching for Lamda that Minimizes Along All other modes
 Value Taken    Lamda =  -0.01235125
 Step Taken.  Stepsize is  0.185459

                             Maximum     Tolerance    Cnvgd?
         Gradient            0.188973       0.000300      NO
         Displacement        0.185447       0.001200      NO
         Energy change     *********       0.000001      NO


 New Cartesian Coordinates Obtained by Inverse Iteration

 Displacement from previous Coordinates is:  0.164501
 ----------------------------------------------------------------
             Standard Nuclear Orientation (Angstroms)
    I     Atom           X                Y                Z
 ----------------------------------------------------------------
    1      S       2.6939820160     0.5447000184     0.0587328270
    2      S      -2.8515310594     0.1042634207    -0.3836328634
    3      C      -0.0375516711     0.1867571506    -0.1096136053
    4      C       1.2608565657    -0.6195440761    -0.0111567681
    5      C      -1.2630654497    -0.7339882440    -0.1701416355
    6      H      -0.1296090431     0.8488805226     0.7662950204
    7      H      -0.0207996282     0.8290429292    -0.9962247982
    8      H       1.2606949744    -1.2371066915     0.8916647769
    9      H       1.3745055268    -1.2746919343    -0.8800972912
   10      H      -1.3063023856    -1.4067168379     0.6924633381
   11      H      -1.2050593471    -1.3758430326    -1.0669668676
   12      H       3.6507231087    -0.3915106882     0.2139260319
   13      H      -2.3186396073     1.9493594630     2.1736528352
 ----------------------------------------------------------------
 Nuclear Repulsion Energy =   261.3895373635 hartrees
 There are       29 alpha and       29 beta electrons

                       Distance Matrix (Angstroms)
             S (  1)   S (  2)   C (  3)   C (  4)   C (  5)   H (  6)
   S (  2)  5.580536
   C (  3)  2.760025  2.828493
   C (  4)  1.847755  4.192179  1.531561
   C (  5)  4.164811  1.808720  1.534053  2.531513
   H (  6)  2.926745  3.047236  1.101861  2.166586  2.160350
   H (  7)  2.926402  2.985568  1.094939  2.170577  2.160718  1.765987
   H (  8)  2.433706  4.509552  2.171495  1.093833  2.783869  2.509981
   H (  9)  2.435694  4.472961  2.173335  1.094163  2.784453  3.079371
   H ( 10)  4.495767  2.414286  2.189113  2.775793  1.094770  2.545148
   H ( 11)  4.489789  2.317009  2.172860  2.787017  1.104372  3.076823
   H ( 12)  1.347564  6.548449  3.747325  2.411249  4.940660  4.016789
   H ( 13)  5.618926  3.198134  3.677422  4.917871  3.715907  2.825520
             H (  7)   H (  8)   H (  9)   H ( 10)   H ( 11)   H ( 12)
   H (  8)  3.078202
   H (  9)  2.527066  1.775811
   H ( 10)  3.082662  2.580295  3.110805
   H ( 11)  2.503797  3.152052  2.588302  1.762611
   H ( 12)  4.053923  2.624233  2.675456  5.082494  5.117443
   H ( 13)  4.072260  4.960715  5.775744  3.805522  4.774793  6.704737

 
 Applying Cartesian multipole field
    Component          Value
    ---------          -----
     (2,0,0)        1.00000E-11
     (0,2,0)        2.00000E-11
     (0,0,2)       -3.00000E-11
 Nucleus-field energy     =     0.0000000107 hartrees
 Requested basis set is 6-31G(d,p)
 There are 46 shells and 123 basis functions
 A cutoff of  1.0D-14 yielded    990 shell pairs
 There are      7203 function pairs
 Smallest overlap matrix eigenvalue = 5.07E-03
 Guess from superposition of atomic densities
 Warning:  Energy on first SCF cycle will be non-variational
 SAD guess density has 58.000000 electrons

 -----------------------------------------------------------------------
  General SCF calculation program by
  Eric Jon Sundstrom, Paul Horn, Yuezhi Mao, Dmitri Zuev, Alec White,
  David Stuck, Shaama M.S., Shane Yost, Joonho Lee, David Small,
  Daniel Levine, Susi Lehtola, Hugh Burton, Evgeny Epifanovsky
 -----------------------------------------------------------------------
 Exchange:     0.2000 Hartree-Fock + 0.0800 Slater + 0.7200 B88
 Correlation:  0.1900 VWN1RPA + 0.8100 LYP
 Using SG-1 standard quadrature grid
 using 12 threads for integral computing
 -------------------------------------------------------
 OpenMP Integral computing Module                
 Release: version 1.0, May 2013, Q-Chem Inc. Pittsburgh 
 -------------------------------------------------------
 -------------------------------------------------------
 OpenMP BLAS3 based DFT computing Module                
 Release: version 1.0, May 2013, Q-Chem Inc. Pittsburgh 
 -------------------------------------------------------
 A unrestricted SCF calculation will be
 performed using DIIS
 SCF converges when DIIS error is below 1.0e-06
 Alpha HF Exchange    Energy =  -6.83622617580203
 Beta HF Exchange     Energy =  -6.83622617580203
 DFT Correlation      Energy =  -2.70140731995495
 DFT Exchange         Energy = -53.82275360729583
 One-Electron (alpha) Energy = -887.40532047323268
 One-Electron (beta)  Energy = -887.40532047323268
 Total Coulomb        Energy = 667.71770781747045
 ---------------------------------------
  Cycle       Energy         DIIS error
 ---------------------------------------
    1    -915.9000090336      2.70e-02  
 Alpha HF Exchange    Energy =  -6.86168344578055
 Beta HF Exchange     Energy =  -6.86168344578055
 DFT Correlation      Energy =  -2.73840591310214
 DFT Exchange         Energy = -54.46299367407158
 One-Electron (alpha) Energy = -893.47417729753113
 One-Electron (beta)  Energy = -893.47417729753158
 Total Coulomb        Energy = 681.36943244934525
    2    -915.1141512502      3.51e-03  
 Alpha HF Exchange    Energy =  -6.78005593074859
 Beta HF Exchange     Energy =  -6.78005593074859
 DFT Correlation      Energy =  -2.68696456776532
 DFT Exchange         Energy = -53.75990978139136
 One-Electron (alpha) Energy = -882.06173892022366
 One-Electron (beta)  Energy = -882.06173892022343
 Total Coulomb        Energy = 658.07681802433501
    3    -914.6641086525      6.22e-03  
 Alpha HF Exchange    Energy =  -6.80654859379225
 Beta HF Exchange     Energy =  -6.80654859379225
 DFT Correlation      Energy =  -2.71029097026423
 DFT Exchange         Energy = -54.05784228982576
 One-Electron (alpha) Energy = -888.45711626399714
 One-Electron (beta)  Energy = -888.45711626399873
 Total Coulomb        Energy = 670.56852337563555
    4    -915.3374022258      8.18e-04  
 Alpha HF Exchange    Energy =  -6.81158556229061
 Beta HF Exchange     Energy =  -6.81158556229062
 DFT Correlation      Energy =  -2.70845460088147
 DFT Exchange         Energy = -54.08079983253931
 One-Electron (alpha) Energy = -887.29037924670502
 One-Electron (beta)  Energy = -887.29037924670831
 Total Coulomb        Energy = 668.34862789286080
    5    -915.2550187843      2.14e-03  
 Alpha HF Exchange    Energy =  -6.81294992793867
 Beta HF Exchange     Energy =  -6.81294992793868
 DFT Correlation      Energy =  -2.71250850797651
 DFT Exchange         Energy = -54.11030915267484
 One-Electron (alpha) Energy = -888.70461612486224
 One-Electron (beta)  Energy = -888.70461612486645
 Total Coulomb        Energy = 671.12814880378619
    6    -915.3402635882      4.39e-04  
 Alpha HF Exchange    Energy =  -6.81276992773430
 Beta HF Exchange     Energy =  -6.81276992773433
 DFT Correlation      Energy =  -2.71243986646584
 DFT Exchange         Energy = -54.10935345743462
 One-Electron (alpha) Energy = -888.68783780000626
 One-Electron (beta)  Energy = -888.68783780001684
 Total Coulomb        Energy = 671.09296388913242
    7    -915.3405075160      3.98e-04  
 Alpha HF Exchange    Energy =  -6.81359616343519
 Beta HF Exchange     Energy =  -6.81359616343527
 DFT Correlation      Energy =  -2.71309083051280
 DFT Exchange         Energy = -54.11593069809570
 One-Electron (alpha) Energy = -888.86616851641099
 One-Electron (beta)  Energy = -888.86616851643089
 Total Coulomb        Energy = 671.45640406307393
    8    -915.3426094510      2.07e-04  
 Alpha HF Exchange    Energy =  -6.81443622668849
 Beta HF Exchange     Energy =  -6.81443622668880
 DFT Correlation      Energy =  -2.71370535801471
 DFT Exchange         Energy = -54.12238732938000
 One-Electron (alpha) Energy = -889.02901276164675
 One-Electron (beta)  Energy = -889.02901276171428
 Total Coulomb        Energy = 671.79010795877537
    9    -915.3433453311      3.21e-05  
 Alpha HF Exchange    Energy =  -6.81452367145834
 Beta HF Exchange     Energy =  -6.81452367145897
 DFT Correlation      Energy =  -2.71376813704940
 DFT Exchange         Energy = -54.12305767990318
 One-Electron (alpha) Energy = -889.04377431440957
 One-Electron (beta)  Energy = -889.04377431454634
 Total Coulomb        Energy = 671.82052749903073
   10    -915.3433569155      6.89e-06  
 Alpha HF Exchange    Energy =  -6.81454786172564
 Beta HF Exchange     Energy =  -6.81454786172691
 DFT Correlation      Energy =  -2.71378284361027
 DFT Exchange         Energy = -54.12324776900867
 One-Electron (alpha) Energy = -889.04747027505925
 One-Electron (beta)  Energy = -889.04747027533858
 Total Coulomb        Energy = 671.82817207921596
   11    -915.3433574330      3.41e-06  
 Alpha HF Exchange    Energy =  -6.81456004459502
 Beta HF Exchange     Energy =  -6.81456004459780
 DFT Correlation      Energy =  -2.71379190653177
 DFT Exchange         Energy = -54.12333780655811
 One-Electron (alpha) Energy = -889.04983834716836
 One-Electron (beta)  Energy = -889.04983834777863
 Total Coulomb        Energy = 671.83303148220909
   12    -915.3433576408      6.57e-07  Convergence criterion met
 ---------------------------------------
 SCF time:   CPU 36.71s  wall 3.00s 
<S^2> =         -0.000000000
 Alpha HF Exchange    Energy =  -6.81456004459502
 Beta HF Exchange     Energy =  -6.81456004459780
 DFT Correlation      Energy =  -2.71379190653177
 DFT Exchange         Energy = -54.12333780655811
 One-Electron (alpha) Energy = -889.04983834716836
 One-Electron (beta)  Energy = -889.04983834777863
 Total Coulomb        Energy = 671.83303148220909
 Nuclear repulsion Energy = 261.38953737426982
 SCF   energy in the final basis set =     -915.3433576408
 Total energy in the final basis set =     -915.3433576408
 
 --------------------------------------------------------------
 
                    Orbital Energies (a.u.)
 --------------------------------------------------------------
 
 Alpha MOs
 -- Occupied --
-88.910 -88.881 -10.239 -10.231 -10.210  -7.968  -7.943  -5.934
 -5.930  -5.921  -5.908  -5.905  -5.898  -0.833  -0.781  -0.705
 -0.623  -0.599  -0.497  -0.458  -0.433  -0.418  -0.389  -0.363
 -0.350  -0.334  -0.262  -0.246  -0.243
 -- Virtual --
 -0.192   0.014   0.042   0.077   0.090   0.111   0.134   0.143
  0.155   0.179   0.203   0.212   0.321   0.343   0.360   0.367
  0.380   0.385   0.388   0.401   0.494   0.512   0.516   0.547
  0.584   0.624   0.639   0.647   0.730   0.743   0.748   0.784
  0.796   0.815   0.823   0.849   0.862   0.868   0.886   0.891
  0.901   0.928   0.936   0.954   1.027   1.105   1.151   1.154
  1.338   1.374   1.402   1.613   1.645   1.651   1.667   1.819
  1.844   1.964   1.999   2.003   2.015   2.038   2.051   2.070
  2.089   2.099   2.107   2.191   2.212   2.238   2.282   2.314
  2.376   2.478   2.558   2.592   2.616   2.698   2.754   2.781
  2.791   2.810   2.857   3.179   3.231   3.311   3.329   3.453
  3.529   3.904   3.978   4.239   4.408   4.610
 
 Beta MOs
 -- Occupied --
-88.910 -88.881 -10.239 -10.231 -10.210  -7.968  -7.943  -5.934
 -5.930  -5.921  -5.908  -5.905  -5.898  -0.833  -0.781  -0.705
 -0.623  -0.599  -0.497  -0.458  -0.433  -0.418  -0.389  -0.363
 -0.350  -0.334  -0.262  -0.246  -0.243
 -- Virtual --
 -0.192   0.014   0.042   0.077   0.090   0.111   0.134   0.143
  0.155   0.179   0.203   0.212   0.321   0.343   0.360   0.367
  0.380   0.385   0.388   0.401   0.494   0.512   0.516   0.547
  0.584   0.624   0.639   0.647   0.730   0.743   0.748   0.784
  0.796   0.815   0.823   0.849   0.862   0.868   0.886   0.891
  0.901   0.928   0.936   0.954   1.027   1.105   1.151   1.154
  1.338   1.374   1.402   1.613   1.645   1.651   1.667   1.819
  1.844   1.964   1.999   2.003   2.015   2.038   2.051   2.070
  2.089   2.099   2.107   2.191   2.212   2.238   2.282   2.314
  2.376   2.478   2.558   2.592   2.616   2.698   2.754   2.781
  2.791   2.810   2.857   3.179   3.231   3.311   3.329   3.453
  3.529   3.904   3.978   4.239   4.408   4.610
 --------------------------------------------------------------
 
          Ground-State Mulliken Net Atomic Charges

     Atom                 Charge (a.u.)    Spin (a.u.)
  --------------------------------------------------------
      1 S                    -0.036256      -0.000000
      2 S                    -0.005399      -0.000000
      3 C                    -0.172394      -0.000000
      4 C                    -0.332462      -0.000000
      5 C                    -0.357298      -0.000000
      6 H                     0.130919      -0.000000
      7 H                     0.137177       0.000000
      8 H                     0.138104      -0.000000
      9 H                     0.136069       0.000000
     10 H                     0.152794      -0.000000
     11 H                     0.156755      -0.000000
     12 H                     0.058242      -0.000000
     13 H                    -0.006250       0.000000
  --------------------------------------------------------
  Sum of atomic charges =     0.000000
  Sum of spin   charges =    -0.000000

 -----------------------------------------------------------------
                    Cartesian Multipole Moments
 -----------------------------------------------------------------
    Charge (ESU x 10^10)
                 0.0000
    Dipole Moment (Debye)
         X       1.1173      Y      -2.5051      Z      -0.0354
       Tot       2.7432
    Quadrupole Moments (Debye-Ang)
        XX     -53.7588     XY      -2.8881     YY     -47.0980
        XZ       0.8060     YZ       1.2025     ZZ     -47.7527
    Octopole Moments (Debye-Ang^2)
       XXX      41.8916    XXY     -13.6677    XYY       2.0247
       YYY      -9.3659    XXZ       3.7653    XYZ      -3.7187
       YYZ       3.9493    XZZ      -2.5118    YZZ      -4.7570
       ZZZ       9.5915
    Hexadecapole Moments (Debye-Ang^3)
      XXXX   -1472.6156   XXXY     -64.8346   XXYY    -282.3670
      XYYY     -27.4235   YYYY    -177.3074   XXXZ     -10.4672
      XXYZ       0.1569   XYYZ     -14.4917   YYYZ     -15.0048
      XXZZ    -280.5926   XYZZ     -12.9609   YYZZ     -45.7705
      XZZZ     -36.2798   YZZZ     -13.0869   ZZZZ    -125.2692
 -----------------------------------------------------------------
 Calculating analytic gradient of the SCF energy
 Gradient of SCF Energy
            1           2           3           4           5           6
    1   0.0000034  -0.0044521  -0.0003665  -0.0001701   0.0000170   0.0012795
    2   0.0000161  -0.0144532  -0.0010222   0.0000564  -0.0009472   0.0019891
    3   0.0000613  -0.0204341  -0.0016933   0.0003784  -0.0007177   0.0023606
            7           8           9          10          11          12
    1  -0.0001742  -0.0000008  -0.0000013   0.0003195  -0.0006104   0.0000069
    2  -0.0000905  -0.0000289   0.0000308   0.0001940  -0.0000093  -0.0000029
    3  -0.0000877  -0.0000234  -0.0000192   0.0001100   0.0000995  -0.0000756
           13
    1   0.0041491
    2   0.0142679
    3   0.0200412
 Max gradient component =       2.043E-02
 RMS gradient           =       5.743E-03
 Gradient time:  CPU 11.01 s  wall 0.97 s
 Geometry Optimization Parameters
   NAtoms,    NIC,     NZ,  NCons,   NDum,   NFix, NCnnct, MaxDiis
       13      90       0       1       0       0       0       0

 Cartesian Hessian Update
 Hessian Updated using BFGS Update
**WARNING** Hereditary positive definiteness endangered


** CONSTRAINED OPTIMIZATION IN DELOCALIZED INTERNAL COORDINATES **
   Searching for a Minimum

   Optimization Cycle:   2

                       Coordinates (Angstroms)
     ATOM                X               Y               Z
      1  S         2.6939820160    0.5447000184    0.0587328270
      2  S        -2.8515310594    0.1042634207   -0.3836328634
      3  C        -0.0375516711    0.1867571506   -0.1096136053
      4  C         1.2608565657   -0.6195440761   -0.0111567681
      5  C        -1.2630654497   -0.7339882440   -0.1701416355
      6  H        -0.1296090431    0.8488805226    0.7662950204
      7  H        -0.0207996282    0.8290429292   -0.9962247982
      8  H         1.2606949744   -1.2371066915    0.8916647769
      9  H         1.3745055268   -1.2746919343   -0.8800972912
     10  H        -1.3063023856   -1.4067168379    0.6924633381
     11  H        -1.2050593471   -1.3758430326   -1.0669668676
     12  H         3.6507231087   -0.3915106882    0.2139260319
     13  H        -2.3186396073    1.9493594630    2.1736528352
   Point Group: c1    Number of degrees of freedom:    33


   Energy is   -915.343357641

              Constraints and their Current Values
                                        Value     Constraint
   Distance(Angs):        2  13             3.198134     3.200000
 Hessian Updated using BFGS Update
**WARNING** Hereditary positive definiteness endangered

   Using Lagrange Multiplier Algorithm


 34 Hessian modes will be used to form the next step
  Hessian Eigenvalues:
    -1.006340    0.046307    0.125342    0.125347    0.127008    0.133868
     0.188143    0.209043    0.213759    0.221209    0.232792    0.235885
     0.266494    0.344644    0.346043    0.362123    0.370785    0.396386
     0.442871    0.445680    0.539014    0.614356    0.631998    0.694416
     0.719388    0.790986    0.815382    0.899860    0.924952    0.954019
     0.954434    0.956390    0.957492    0.995004

 Minimum Search - Taking P-RFO Step
 Searching for Lamda that Maximizes Along the Constraint modes Only
 Value Taken    Lamda =   0.00000667
 Searching for Lamda that Minimizes Along All other modes
 Value Taken    Lamda =  -0.00007798
 Step Taken.  Stepsize is  0.007701

                             Maximum     Tolerance    Cnvgd?
         Gradient            0.007116       0.000300      NO
         Displacement        0.007271       0.001200      NO
         Energy change      0.004905       0.000001      NO


 New Cartesian Coordinates Obtained by Inverse Iteration

 Displacement from previous Coordinates is:  0.008082
 ----------------------------------------------------------------
             Standard Nuclear Orientation (Angstroms)
    I     Atom           X                Y                Z
 ----------------------------------------------------------------
    1      S       2.6938430718     0.5447834098     0.0587201303
    2      S      -2.8513173807     0.1041998368    -0.3834851724
    3      C      -0.0377232279     0.1864105238    -0.1095461581
    4      C       1.2609521845    -0.6197074708    -0.0114836474
    5      C      -1.2629549310    -0.7338651314    -0.1697283970
    6      H      -0.1315407515     0.8474910231     0.7650593479
    7      H      -0.0204913662     0.8289056492    -0.9959834901
    8      H       1.2608954071    -1.2374755116     0.8911942629
    9      H       1.3747586268    -1.2746354927    -0.8805766804
   10      H      -1.3071616218    -1.4070599227     0.6925006386
   11      H      -1.2031353660    -1.3753835008    -1.0667513642
   12      H       3.6507071886    -0.3912580187     0.2141775512
   13      H      -2.3186278337     1.9511966060     2.1748039787
 ----------------------------------------------------------------
 Nuclear Repulsion Energy =   261.4067768250 hartrees
 There are       29 alpha and       29 beta electrons

                       Distance Matrix (Angstroms)
             S (  1)   S (  2)   C (  3)   C (  4)   C (  5)   H (  6)
   S (  2)  5.580185
   C (  3)  2.760109  2.828094
   C (  4)  1.847740  4.192039  1.531666
   C (  5)  4.164539  1.808574  1.533532  2.531438
   H (  6)  2.928027  3.044474  1.100347  2.166732  2.157455
   H (  7)  2.925874  2.985620  1.094928  2.170211  2.160710  1.764639
   H (  8)  2.433680  4.509456  2.171484  1.093830  2.783703  2.510353
   H (  9)  2.435682  4.473031  2.173534  1.094169  2.784829  3.079038
   H ( 10)  4.496600  2.413725  2.189498  2.776819  1.094799  2.543688
   H ( 11)  4.487780  2.317870  2.171089  2.785025  1.104434  3.073275
   H ( 12)  1.347564  6.548206  3.747401  2.411232  4.940530  4.017881
   H ( 13)  5.619668  3.200000  3.679029  4.919634  3.717638  2.826463
             H (  7)   H (  8)   H (  9)   H ( 10)   H ( 11)   H ( 12)
   H (  8)  3.077876
   H (  9)  2.526841  1.775815
   H ( 10)  3.083187  2.581309  3.112042
   H ( 11)  2.502508  3.150241  2.586571  1.762610
   H ( 12)  4.053516  2.624050  2.675590  5.083415  5.115571
   H ( 13)  4.073679  4.962688  5.777755  3.807647  4.776834  6.705528

 
 Applying Cartesian multipole field
    Component          Value
    ---------          -----
     (2,0,0)        1.00000E-11
     (0,2,0)        2.00000E-11
     (0,0,2)       -3.00000E-11
 Nucleus-field energy     =     0.0000000107 hartrees
 Requested basis set is 6-31G(d,p)
 There are 46 shells and 123 basis functions
 A cutoff of  1.0D-14 yielded    990 shell pairs
 There are      7203 function pairs
 Smallest overlap matrix eigenvalue = 5.06E-03
 Guess from superposition of atomic densities
 Warning:  Energy on first SCF cycle will be non-variational
 SAD guess density has 58.000000 electrons

 -----------------------------------------------------------------------
  General SCF calculation program by
  Eric Jon Sundstrom, Paul Horn, Yuezhi Mao, Dmitri Zuev, Alec White,
  David Stuck, Shaama M.S., Shane Yost, Joonho Lee, David Small,
  Daniel Levine, Susi Lehtola, Hugh Burton, Evgeny Epifanovsky
 -----------------------------------------------------------------------
 Exchange:     0.2000 Hartree-Fock + 0.0800 Slater + 0.7200 B88
 Correlation:  0.1900 VWN1RPA + 0.8100 LYP
 Using SG-1 standard quadrature grid
 using 12 threads for integral computing
 -------------------------------------------------------
 OpenMP Integral computing Module                
 Release: version 1.0, May 2013, Q-Chem Inc. Pittsburgh 
 -------------------------------------------------------
 -------------------------------------------------------
 OpenMP BLAS3 based DFT computing Module                
 Release: version 1.0, May 2013, Q-Chem Inc. Pittsburgh 
 -------------------------------------------------------
 A unrestricted SCF calculation will be
 performed using DIIS
 SCF converges when DIIS error is below 1.0e-06
 Alpha HF Exchange    Energy =  -6.83637724348491
 Beta HF Exchange     Energy =  -6.83637724348491
 DFT Correlation      Energy =  -2.70143586428056
 DFT Exchange         Energy = -53.82306243044470
 One-Electron (alpha) Energy = -887.42163645163441
 One-Electron (beta)  Energy = -887.42163645163441
 Total Coulomb        Energy = 667.73257195129872
 ---------------------------------------
  Cycle       Energy         DIIS error
 ---------------------------------------
    1    -915.9011768979      2.70e-02  
 Alpha HF Exchange    Energy =  -6.86181393961953
 Beta HF Exchange     Energy =  -6.86181393961953
 DFT Correlation      Energy =  -2.73846797785879
 DFT Exchange         Energy = -54.46388443172476
 One-Electron (alpha) Energy = -893.49626228513557
 One-Electron (beta)  Energy = -893.49626228513580
 Total Coulomb        Energy = 681.39814893614118
    2    -915.1135790872      3.51e-03  
 Alpha HF Exchange    Energy =  -6.78009342683618
 Beta HF Exchange     Energy =  -6.78009342683618
 DFT Correlation      Energy =  -2.68698334772689
 DFT Exchange         Energy = -53.76014340986359
 One-Electron (alpha) Energy = -882.07379313384502
 One-Electron (beta)  Energy = -882.07379313384513
 Total Coulomb        Energy = 658.08456143855301
    3    -914.6635616047      6.23e-03  
 Alpha HF Exchange    Energy =  -6.80654145663584
 Beta HF Exchange     Energy =  -6.80654145663585
 DFT Correlation      Energy =  -2.71027041219955
 DFT Exchange         Energy = -54.05783716634507
 One-Electron (alpha) Energy = -888.46050100924185
 One-Electron (beta)  Energy = -888.46050100924231
 Total Coulomb        Energy = 670.55814570939037
    4    -915.3372699652      8.22e-04  
 Alpha HF Exchange    Energy =  -6.81161993946484
 Beta HF Exchange     Energy =  -6.81161993946485
 DFT Correlation      Energy =  -2.70852699293251
 DFT Exchange         Energy = -54.08149176823337
 One-Electron (alpha) Energy = -887.32390536503874
 One-Electron (beta)  Energy = -887.32390536503976
 Total Coulomb        Energy = 668.39746571274486
    5    -915.2568268217      2.12e-03  
 Alpha HF Exchange    Energy =  -6.81301340091606
 Beta HF Exchange     Energy =  -6.81301340091607
 DFT Correlation      Energy =  -2.71254314214567
 DFT Exchange         Energy = -54.11081357191129
 One-Electron (alpha) Energy = -888.72210834691430
 One-Electron (beta)  Energy = -888.72210834691600
 Total Coulomb        Energy = 671.14660632896982
    6    -915.3402170450      4.37e-04  
 Alpha HF Exchange    Energy =  -6.81283155556691
 Beta HF Exchange     Energy =  -6.81283155556692
 DFT Correlation      Energy =  -2.71246510994668
 DFT Exchange         Energy = -54.10984560106492
 One-Electron (alpha) Energy = -888.70249709424741
 One-Electron (beta)  Energy = -888.70249709425173
 Total Coulomb        Energy = 671.10578536266041
    7    -915.3404058123      3.99e-04  
 Alpha HF Exchange    Energy =  -6.81366715524366
 Beta HF Exchange     Energy =  -6.81366715524370
 DFT Correlation      Energy =  -2.71312570491478
 DFT Exchange         Energy = -54.11649866390484
 One-Electron (alpha) Energy = -888.88346146051447
 One-Electron (beta)  Energy = -888.88346146052425
 Total Coulomb        Energy = 671.47455975517505
    8    -915.3425450095      2.06e-04  
 Alpha HF Exchange    Energy =  -6.81450422064797
 Beta HF Exchange     Energy =  -6.81450422064813
 DFT Correlation      Energy =  -2.71373756302263
 DFT Exchange         Energy = -54.12293026073195
 One-Electron (alpha) Energy = -889.04566497856331
 One-Electron (beta)  Energy = -889.04566497859867
 Total Coulomb        Energy = 671.80695537981740
    9    -915.3432740067      3.22e-05  
 Alpha HF Exchange    Energy =  -6.81459205703190
 Beta HF Exchange     Energy =  -6.81459205703224
 DFT Correlation      Energy =  -2.71380078711002
 DFT Exchange         Energy = -54.12360284164139
 One-Electron (alpha) Energy = -889.06054367803085
 One-Electron (beta)  Energy = -889.06054367810589
 Total Coulomb        Energy = 671.83761257127185
   10    -915.3432856920      6.72e-06  
 Alpha HF Exchange    Energy =  -6.81461534655137
 Beta HF Exchange     Energy =  -6.81461534655210
 DFT Correlation      Energy =  -2.71381498051240
 DFT Exchange         Energy = -54.12378591389668
 One-Electron (alpha) Energy = -889.06410046729809
 One-Electron (beta)  Energy = -889.06410046745577
 Total Coulomb        Energy = 671.84496950829612
   11    -915.3432861783      3.35e-06  
 Alpha HF Exchange    Energy =  -6.81462733065683
 Beta HF Exchange     Energy =  -6.81462733065843
 DFT Correlation      Energy =  -2.71382385150157
 DFT Exchange         Energy = -54.12387449133504
 One-Electron (alpha) Energy = -889.06642192233119
 One-Electron (beta)  Energy = -889.06642192267850
 Total Coulomb        Energy = 671.84973363421750
   12    -915.3432863792      6.69e-07  Convergence criterion met
 ---------------------------------------
 SCF time:   CPU 36.49s  wall 3.00s 
<S^2> =         -0.000000000
 Alpha HF Exchange    Energy =  -6.81462733065683
 Beta HF Exchange     Energy =  -6.81462733065843
 DFT Correlation      Energy =  -2.71382385150157
 DFT Exchange         Energy = -54.12387449133504
 One-Electron (alpha) Energy = -889.06642192233119
 One-Electron (beta)  Energy = -889.06642192267850
 Total Coulomb        Energy = 671.84973363421750
 Nuclear repulsion Energy = 261.40677683571823
 SCF   energy in the final basis set =     -915.3432863792
 Total energy in the final basis set =     -915.3432863792
 
 --------------------------------------------------------------
 
                    Orbital Energies (a.u.)
 --------------------------------------------------------------
 
 Alpha MOs
 -- Occupied --
-88.910 -88.881 -10.239 -10.232 -10.210  -7.968  -7.943  -5.934
 -5.930  -5.921  -5.908  -5.905  -5.898  -0.834  -0.781  -0.706
 -0.623  -0.599  -0.497  -0.458  -0.433  -0.418  -0.389  -0.363
 -0.350  -0.334  -0.262  -0.246  -0.243
 -- Virtual --
 -0.192   0.014   0.042   0.077   0.090   0.111   0.134   0.143
  0.155   0.179   0.203   0.212   0.321   0.343   0.360   0.367
  0.380   0.385   0.388   0.401   0.494   0.512   0.516   0.547
  0.584   0.624   0.639   0.647   0.730   0.743   0.748   0.784
  0.796   0.815   0.823   0.849   0.862   0.868   0.886   0.890
  0.901   0.929   0.936   0.954   1.028   1.105   1.151   1.154
  1.338   1.375   1.401   1.613   1.645   1.651   1.666   1.819
  1.845   1.964   1.999   2.003   2.014   2.038   2.051   2.070
  2.089   2.100   2.107   2.191   2.212   2.238   2.282   2.315
  2.376   2.478   2.558   2.592   2.616   2.698   2.754   2.781
  2.792   2.810   2.858   3.179   3.231   3.311   3.330   3.453
  3.530   3.904   3.978   4.239   4.408   4.611
 
 Beta MOs
 -- Occupied --
-88.910 -88.881 -10.239 -10.232 -10.210  -7.968  -7.943  -5.934
 -5.930  -5.921  -5.908  -5.905  -5.898  -0.834  -0.781  -0.706
 -0.623  -0.599  -0.497  -0.458  -0.433  -0.418  -0.389  -0.363
 -0.350  -0.334  -0.262  -0.246  -0.243
 -- Virtual --
 -0.192   0.014   0.042   0.077   0.090   0.111   0.134   0.143
  0.155   0.179   0.203   0.212   0.321   0.343   0.360   0.367
  0.380   0.385   0.388   0.401   0.494   0.512   0.516   0.547
  0.584   0.624   0.639   0.647   0.730   0.743   0.748   0.784
  0.796   0.815   0.823   0.849   0.862   0.868   0.886   0.890
  0.901   0.929   0.936   0.954   1.028   1.105   1.151   1.154
  1.338   1.375   1.401   1.613   1.645   1.651   1.666   1.819
  1.845   1.964   1.999   2.003   2.014   2.038   2.051   2.070
  2.089   2.100   2.107   2.191   2.212   2.238   2.282   2.315
  2.376   2.478   2.558   2.592   2.616   2.698   2.754   2.781
  2.792   2.810   2.858   3.179   3.231   3.311   3.330   3.453
  3.530   3.904   3.978   4.239   4.408   4.611
 --------------------------------------------------------------
 
          Ground-State Mulliken Net Atomic Charges

     Atom                 Charge (a.u.)    Spin (a.u.)
  --------------------------------------------------------
      1 S                    -0.036205      -0.000000
      2 S                    -0.005383      -0.000000
      3 C                    -0.172429       0.000000
      4 C                    -0.332539      -0.000000
      5 C                    -0.357390      -0.000000
      6 H                     0.131103      -0.000000
      7 H                     0.137168      -0.000000
      8 H                     0.138103      -0.000000
      9 H                     0.136086       0.000000
     10 H                     0.152817      -0.000000
     11 H                     0.156739      -0.000000
     12 H                     0.058244      -0.000000
     13 H                    -0.006315       0.000000
  --------------------------------------------------------
  Sum of atomic charges =    -0.000000
  Sum of spin   charges =     0.000000

 -----------------------------------------------------------------
                    Cartesian Multipole Moments
 -----------------------------------------------------------------
    Charge (ESU x 10^10)
                 0.0000
    Dipole Moment (Debye)
         X       1.1187      Y      -2.5054      Z      -0.0356
       Tot       2.7441
    Quadrupole Moments (Debye-Ang)
        XX     -53.7552     XY      -2.8890     YY     -47.0990
        XZ       0.8029     YZ       1.1990     ZZ     -47.7551
    Octopole Moments (Debye-Ang^2)
       XXX      41.8951    XXY     -13.6643    XYY       2.0288
       YYY      -9.3635    XXZ       3.7719    XYZ      -3.7096
       YYZ       3.9465    XZZ      -2.5038    YZZ      -4.7596
       ZZZ       9.5794
    Hexadecapole Moments (Debye-Ang^3)
      XXXX   -1472.3983   XXXY     -64.7939   XXYY    -282.3544
      XYYY     -27.4068   YYYY    -177.3580   XXXZ     -10.3888
      XXYZ       0.1351   XYYZ     -14.4799   YYYZ     -15.0360
      XXZZ    -280.5768   XYZZ     -12.9543   YYZZ     -45.7888
      XZZZ     -36.2198   YZZZ     -13.1163   ZZZZ    -125.2983
 -----------------------------------------------------------------
 Calculating analytic gradient of the SCF energy
 Gradient of SCF Energy
            1           2           3           4           5           6
    1   0.0000051  -0.0044227  -0.0005194  -0.0001144   0.0001111   0.0010905
    2   0.0000095  -0.0144375  -0.0007159   0.0000184  -0.0006341   0.0014038
    3   0.0000599  -0.0203306  -0.0011595   0.0002515  -0.0004309   0.0015946
            7           8           9          10          11          12
    1  -0.0000953  -0.0000162   0.0000283   0.0002122  -0.0004164   0.0000077
    2  -0.0000660  -0.0000172   0.0000149   0.0001467   0.0000286  -0.0000020
    3  -0.0000478  -0.0000224  -0.0000177   0.0001033   0.0000726  -0.0000727
           13
    1   0.0041296
    2   0.0142508
    3   0.0199996
 Max gradient component =       2.033E-02
 RMS gradient           =       5.707E-03
 Gradient time:  CPU 10.76 s  wall 0.94 s
 Geometry Optimization Parameters
   NAtoms,    NIC,     NZ,  NCons,   NDum,   NFix, NCnnct, MaxDiis
       13      90       0       1       0       0       0       0

 Cartesian Hessian Update
 Hessian Updated using BFGS Update


** CONSTRAINED OPTIMIZATION IN DELOCALIZED INTERNAL COORDINATES **
   Searching for a Minimum

   Optimization Cycle:   3

                       Coordinates (Angstroms)
     ATOM                X               Y               Z
      1  S         2.6938430718    0.5447834098    0.0587201303
      2  S        -2.8513173807    0.1041998368   -0.3834851724
      3  C        -0.0377232279    0.1864105238   -0.1095461581
      4  C         1.2609521845   -0.6197074708   -0.0114836474
      5  C        -1.2629549310   -0.7338651314   -0.1697283970
      6  H        -0.1315407515    0.8474910231    0.7650593479
      7  H        -0.0204913662    0.8289056492   -0.9959834901
      8  H         1.2608954071   -1.2374755116    0.8911942629
      9  H         1.3747586268   -1.2746354927   -0.8805766804
     10  H        -1.3071616218   -1.4070599227    0.6925006386
     11  H        -1.2031353660   -1.3753835008   -1.0667513642
     12  H         3.6507071886   -0.3912580187    0.2141775512
     13  H        -2.3186278337    1.9511966060    2.1748039787
   Point Group: c1    Number of degrees of freedom:    33


   Energy is   -915.343286379

              Constraints and their Current Values
                                        Value     Constraint
   Distance(Angs):        2  13             3.200000     3.200000
 Hessian Updated using BFGS Update

 32 Hessian modes will be used to form the next step
  Hessian Eigenvalues:
     0.046148    0.098713    0.125349    0.125878    0.130691    0.164436
     0.188581    0.212313    0.214063    0.221364    0.235583    0.235890
     0.274591    0.344664    0.350338    0.362464    0.396840    0.424396
     0.445684    0.540190    0.614361    0.631975    0.689355    0.719388
     0.732777    0.814342    0.819498    0.925100    0.954056    0.954489
     0.956412    0.957499

 Minimum Search - Taking Simple RFO Step
 Searching for Lamda that Minimizes Along All modes
 Value Taken    Lamda =  -0.00003875
 Step Taken.  Stepsize is  0.018070

                             Maximum     Tolerance    Cnvgd?
         Gradient           0.001424      0.000300      NO
         Displacement       0.009525      0.001200      NO
         Energy change      0.000071      0.000001      NO


 New Cartesian Coordinates Obtained by Inverse Iteration

 Displacement from previous Coordinates is:  0.020225
 ----------------------------------------------------------------
             Standard Nuclear Orientation (Angstroms)
    I     Atom           X                Y                Z
 ----------------------------------------------------------------
    1      S       2.6936824416     0.5450569140     0.0585877822
    2      S      -2.8501832915     0.1054935793    -0.3813651236
    3      C      -0.0378524222     0.1853156275    -0.1091142799
    4      C       1.2615062148    -0.6201954832    -0.0123189542
    5      C      -1.2627093383    -0.7335105846    -0.1685038899
    6      H      -0.1369220854     0.8435944098     0.7622160723
    7      H      -0.0195954545     0.8285677154    -0.9949795961
    8      H       1.2620421524    -1.2387236157     0.8898422055
    9      H       1.3753795765    -1.2743077737    -0.8820137245
   10      H      -1.3093594983    -1.4081429995     0.6925289914
   11      H      -1.1991355980    -1.3741278113    -1.0661570127
   12      H       3.6509217527    -0.3904938292     0.2146912848
   13      H      -2.3195704497     1.9550758512     2.1754872446
 ----------------------------------------------------------------
 Nuclear Repulsion Energy =   261.4616062852 hartrees
 There are       29 alpha and       29 beta electrons

                       Distance Matrix (Angstroms)
             S (  1)   S (  2)   C (  3)   C (  4)   C (  5)   H (  6)
   S (  2)  5.578640
   C (  3)  2.760221  2.826605
   C (  4)  1.847693  4.191516  1.531845
   C (  5)  4.164053  1.808124  1.532333  2.531580
   H (  6)  2.931986  3.035516  1.096523  2.167530  2.149627
   H (  7)  2.924425  2.985228  1.094926  2.169276  2.160667  1.761172
   H (  8)  2.433609  4.509245  2.171527  1.093834  2.783830  2.511859
   H (  9)  2.435722  4.473241  2.173729  1.094166  2.785870  3.078321
   H ( 10)  4.499024  2.412153  2.190542  2.779752  1.094844  2.539643
   H ( 11)  4.483565  2.320383  2.167112  2.780961  1.104633  3.064235
   H ( 12)  1.347565  6.547187  3.747461  2.411141  4.940473  4.021258
   H ( 13)  5.621576  3.200000  3.682077  4.923680  3.720181  2.827840
             H (  7)   H (  8)   H (  9)   H ( 10)   H ( 11)   H ( 12)
   H (  8)  3.077148
   H (  9)  2.526025  1.775834
   H ( 10)  3.084486  2.584520  3.115272
   H ( 11)  2.499650  3.146691  2.583022  1.762465
   H ( 12)  4.052420  2.623370  2.676188  5.086092  5.111865
   H ( 13)  4.075631  4.968016  5.781858  3.811946  4.779877  6.707697

 
 Applying Cartesian multipole field
    Component          Value
    ---------          -----
     (2,0,0)        1.00000E-11
     (0,2,0)        2.00000E-11
     (0,0,2)       -3.00000E-11
 Nucleus-field energy     =     0.0000000107 hartrees
 Requested basis set is 6-31G(d,p)
 There are 46 shells and 123 basis functions
 A cutoff of  1.0D-14 yielded    990 shell pairs
 There are      7203 function pairs
 Smallest overlap matrix eigenvalue = 5.05E-03
 Guess from superposition of atomic densities
 Warning:  Energy on first SCF cycle will be non-variational
 SAD guess density has 58.000000 electrons

 -----------------------------------------------------------------------
  General SCF calculation program by
  Eric Jon Sundstrom, Paul Horn, Yuezhi Mao, Dmitri Zuev, Alec White,
  David Stuck, Shaama M.S., Shane Yost, Joonho Lee, David Small,
  Daniel Levine, Susi Lehtola, Hugh Burton, Evgeny Epifanovsky
 -----------------------------------------------------------------------
 Exchange:     0.2000 Hartree-Fock + 0.0800 Slater + 0.7200 B88
 Correlation:  0.1900 VWN1RPA + 0.8100 LYP
 Using SG-1 standard quadrature grid
 using 12 threads for integral computing
 -------------------------------------------------------
 OpenMP Integral computing Module                
 Release: version 1.0, May 2013, Q-Chem Inc. Pittsburgh 
 -------------------------------------------------------
 -------------------------------------------------------
 OpenMP BLAS3 based DFT computing Module                
 Release: version 1.0, May 2013, Q-Chem Inc. Pittsburgh 
 -------------------------------------------------------
 A unrestricted SCF calculation will be
 performed using DIIS
 SCF converges when DIIS error is below 1.0e-06
 Alpha HF Exchange    Energy =  -6.83676624239880
 Beta HF Exchange     Energy =  -6.83676624239880
 DFT Correlation      Energy =  -2.70151794432340
 DFT Exchange         Energy = -53.82385667518481
 One-Electron (alpha) Energy = -887.47410393930591
 One-Electron (beta)  Energy = -887.47410393930591
 Total Coulomb        Energy = 667.78131224505387
 ---------------------------------------
  Cycle       Energy         DIIS error
 ---------------------------------------
    1    -915.9041964420      2.71e-02  
 Alpha HF Exchange    Energy =  -6.86205784287242
 Beta HF Exchange     Energy =  -6.86205784287242
 DFT Correlation      Energy =  -2.73858121789734
 DFT Exchange         Energy = -54.46562386057992
 One-Electron (alpha) Energy = -893.55445252802758
 One-Electron (beta)  Energy = -893.55445252802735
 Total Coulomb        Energy = 681.46230893192887
    2    -915.1133105925      3.51e-03  
 Alpha HF Exchange    Energy =  -6.78023824829971
 Beta HF Exchange     Energy =  -6.78023824829971
 DFT Correlation      Energy =  -2.68706141803879
 DFT Exchange         Energy = -53.76117092122892
 One-Electron (alpha) Energy = -882.12216819420780
 One-Electron (beta)  Energy = -882.12216819420814
 Total Coulomb        Energy = 658.12800769169701
    3    -914.6634312367      6.23e-03  
 Alpha HF Exchange    Energy =  -6.80677963483113
 Beta HF Exchange     Energy =  -6.80677963483112
 DFT Correlation      Energy =  -2.71040199707894
 DFT Exchange         Energy = -54.05958352362575
 One-Electron (alpha) Energy = -888.52415548930799
 One-Electron (beta)  Energy = -888.52415548930708
 Total Coulomb        Energy = 670.63295892805615
    4    -915.3372905450      8.22e-04  
 Alpha HF Exchange    Energy =  -6.81183649775410
 Beta HF Exchange     Energy =  -6.81183649775410
 DFT Correlation      Energy =  -2.70857080715097
 DFT Exchange         Energy = -54.08259208348635
 One-Electron (alpha) Energy = -887.35610333673276
 One-Electron (beta)  Energy = -887.35610333673185
 Total Coulomb        Energy = 668.41065367199042
    5    -915.2547825917      2.15e-03  
 Alpha HF Exchange    Energy =  -6.81321824970504
 Beta HF Exchange     Energy =  -6.81321824970505
 DFT Correlation      Energy =  -2.71264618709942
 DFT Exchange         Energy = -54.11229578499250
 One-Electron (alpha) Energy = -888.77770514053623
 One-Electron (beta)  Energy = -888.77770514053566
 Total Coulomb        Energy = 671.20491649786629
    6    -915.3402659588      4.36e-04  
 Alpha HF Exchange    Energy =  -6.81302080548985
 Beta HF Exchange     Energy =  -6.81302080548983
 DFT Correlation      Energy =  -2.71255650267904
 DFT Exchange         Energy = -54.11120300804147
 One-Electron (alpha) Energy = -888.75528013525468
 One-Electron (beta)  Energy = -888.75528013525241
 Total Coulomb        Energy = 671.15833760521684
    7    -915.3404174911      4.00e-04  
 Alpha HF Exchange    Energy =  -6.81384331752723
 Beta HF Exchange     Energy =  -6.81384331752721
 DFT Correlation      Energy =  -2.71320803226664
 DFT Exchange         Energy = -54.11775112266827
 One-Electron (alpha) Energy = -888.93391141487416
 One-Electron (beta)  Energy = -888.93391141486973
 Total Coulomb        Energy = 671.52232082889248
    8    -915.3425414950      2.09e-04  
 Alpha HF Exchange    Energy =  -6.81468952043916
 Beta HF Exchange     Energy =  -6.81468952043910
 DFT Correlation      Energy =  -2.71382703544739
 DFT Exchange         Energy = -54.12425644598493
 One-Electron (alpha) Energy = -889.09812461133538
 One-Electron (beta)  Energy = -889.09812461132094
 Total Coulomb        Energy = 671.85881212194613
    9    -915.3432933271      3.33e-05  
 Alpha HF Exchange    Energy =  -6.81478161304839
 Beta HF Exchange     Energy =  -6.81478161304825
 DFT Correlation      Energy =  -2.71389336199338
 DFT Exchange         Energy = -54.12496051270705
 One-Electron (alpha) Energy = -889.11383169759108
 One-Electron (beta)  Energy = -889.11383169756061
 Total Coulomb        Energy = 671.89116816620833
   10    -915.3433060339      6.98e-06  
 Alpha HF Exchange    Energy =  -6.81480605268505
 Beta HF Exchange     Energy =  -6.81480605268477
 DFT Correlation      Energy =  -2.71390849970471
 DFT Exchange         Energy = -54.12515225643173
 One-Electron (alpha) Energy = -889.11762622796755
 One-Electron (beta)  Energy = -889.11762622790445
 Total Coulomb        Energy = 671.89901244182568
   11    -915.3433065797      3.39e-06  
 Alpha HF Exchange    Energy =  -6.81481820619343
 Beta HF Exchange     Energy =  -6.81481820619281
 DFT Correlation      Energy =  -2.71391748393963
 DFT Exchange         Energy = -54.12524218438429
 One-Electron (alpha) Energy = -889.11998066727665
 One-Electron (beta)  Energy = -889.11998066713761
 Total Coulomb        Energy = 671.90384433328313
   12    -915.3433067860      6.66e-07  Convergence criterion met
 ---------------------------------------
 SCF time:   CPU 37.17s  wall 3.00s 
<S^2> =          0.000000000
 Alpha HF Exchange    Energy =  -6.81481820619343
 Beta HF Exchange     Energy =  -6.81481820619281
 DFT Correlation      Energy =  -2.71391748393963
 DFT Exchange         Energy = -54.12524218438429
 One-Electron (alpha) Energy = -889.11998066727665
 One-Electron (beta)  Energy = -889.11998066713761
 Total Coulomb        Energy = 671.90384433328313
 Nuclear repulsion Energy = 261.46160629587951
 SCF   energy in the final basis set =     -915.3433067860
 Total energy in the final basis set =     -915.3433067860
 
 --------------------------------------------------------------
 
                    Orbital Energies (a.u.)
 --------------------------------------------------------------
 
 Alpha MOs
 -- Occupied --
-88.910 -88.881 -10.239 -10.232 -10.210  -7.968  -7.943  -5.934
 -5.930  -5.921  -5.908  -5.905  -5.898  -0.834  -0.781  -0.706
 -0.623  -0.599  -0.497  -0.458  -0.433  -0.418  -0.389  -0.363
 -0.350  -0.334  -0.262  -0.246  -0.243
 -- Virtual --
 -0.192   0.014   0.042   0.077   0.090   0.111   0.134   0.144
  0.155   0.180   0.203   0.213   0.320   0.343   0.360   0.367
  0.380   0.385   0.388   0.401   0.494   0.511   0.516   0.547
  0.584   0.624   0.639   0.647   0.730   0.743   0.748   0.784
  0.796   0.815   0.823   0.849   0.862   0.868   0.887   0.890
  0.901   0.930   0.936   0.955   1.028   1.105   1.151   1.154
  1.337   1.376   1.400   1.613   1.645   1.651   1.666   1.820
  1.845   1.965   1.999   2.003   2.014   2.039   2.051   2.071
  2.089   2.101   2.107   2.192   2.212   2.238   2.283   2.315
  2.376   2.479   2.559   2.592   2.616   2.699   2.754   2.782
  2.794   2.811   2.861   3.181   3.231   3.312   3.333   3.453
  3.532   3.904   3.978   4.239   4.408   4.611
 
 Beta MOs
 -- Occupied --
-88.910 -88.881 -10.239 -10.232 -10.210  -7.968  -7.943  -5.934
 -5.930  -5.921  -5.908  -5.905  -5.898  -0.834  -0.781  -0.706
 -0.623  -0.599  -0.497  -0.458  -0.433  -0.418  -0.389  -0.363
 -0.350  -0.334  -0.262  -0.246  -0.243
 -- Virtual --
 -0.192   0.014   0.042   0.077   0.090   0.111   0.134   0.144
  0.155   0.180   0.203   0.213   0.320   0.343   0.360   0.367
  0.380   0.385   0.388   0.401   0.494   0.511   0.516   0.547
  0.584   0.624   0.639   0.647   0.730   0.743   0.748   0.784
  0.796   0.815   0.823   0.849   0.862   0.868   0.887   0.890
  0.901   0.930   0.936   0.955   1.028   1.105   1.151   1.154
  1.337   1.376   1.400   1.613   1.645   1.651   1.666   1.820
  1.845   1.965   1.999   2.003   2.014   2.039   2.051   2.071
  2.089   2.101   2.107   2.192   2.212   2.238   2.283   2.315
  2.376   2.479   2.559   2.592   2.616   2.699   2.754   2.782
  2.794   2.811   2.861   3.181   3.231   3.312   3.333   3.453
  3.532   3.904   3.978   4.239   4.408   4.611
 --------------------------------------------------------------
 
          Ground-State Mulliken Net Atomic Charges

     Atom                 Charge (a.u.)    Spin (a.u.)
  --------------------------------------------------------
      1 S                    -0.036071       0.000000
      2 S                    -0.005390       0.000000
      3 C                    -0.172527       0.000000
      4 C                    -0.332705       0.000000
      5 C                    -0.357648       0.000000
      6 H                     0.131546       0.000000
      7 H                     0.137140       0.000000
      8 H                     0.138096       0.000000
      9 H                     0.136131      -0.000000
     10 H                     0.152861       0.000000
     11 H                     0.156671       0.000000
     12 H                     0.058239      -0.000000
     13 H                    -0.006345      -0.000000
  --------------------------------------------------------
  Sum of atomic charges =     0.000000
  Sum of spin   charges =     0.000000

 -----------------------------------------------------------------
                    Cartesian Multipole Moments
 -----------------------------------------------------------------
    Charge (ESU x 10^10)
                -0.0000
    Dipole Moment (Debye)
         X       1.1207      Y      -2.5063      Z      -0.0358
       Tot       2.7457
    Quadrupole Moments (Debye-Ang)
        XX     -53.7424     XY      -2.8906     YY     -47.0982
        XZ       0.7969     YZ       1.1940     ZZ     -47.7573
    Octopole Moments (Debye-Ang^2)
       XXX      41.8588    XXY     -13.6797    XYY       2.0144
       YYY      -9.4028    XXZ       3.7597    XYZ      -3.6976
       YYZ       3.9304    XZZ      -2.5070    YZZ      -4.7704
       ZZZ       9.4973
    Hexadecapole Moments (Debye-Ang^3)
      XXXX   -1471.7247   XXXY     -64.5107   XXYY    -282.2654
      XYYY     -27.2279   YYYY    -177.4631   XXXZ      -9.9585
      XXYZ       0.1219   XYYZ     -14.4055   YYYZ     -15.0493
      XXZZ    -280.4665   XYZZ     -12.9197   YYZZ     -45.7818
      XZZZ     -35.8840   YZZZ     -13.1265   ZZZZ    -125.1520
 -----------------------------------------------------------------
 Calculating analytic gradient of the SCF energy
 Gradient of SCF Energy
            1           2           3           4           5           6
    1   0.0000045  -0.0042957  -0.0007914   0.0000400   0.0002787   0.0005303
    2  -0.0000010  -0.0144608   0.0000697  -0.0000793   0.0001773  -0.0000967
    3   0.0000566  -0.0201200   0.0002313  -0.0000875   0.0002877  -0.0003768
            7           8           9          10          11          12
    1   0.0000918  -0.0000464   0.0000792  -0.0000694   0.0000812   0.0000068
    2   0.0000079   0.0000056  -0.0000131   0.0000329   0.0000719  -0.0000019
    3   0.0000451  -0.0000144  -0.0000094   0.0000590   0.0000029  -0.0000636
           13
    1   0.0040903
    2   0.0142875
    3   0.0199893
 Max gradient component =       2.012E-02
 RMS gradient           =       5.671E-03
 Gradient time:  CPU 10.96 s  wall 0.98 s
 Geometry Optimization Parameters
   NAtoms,    NIC,     NZ,  NCons,   NDum,   NFix, NCnnct, MaxDiis
       13      90       0       1       0       0       0       0

 Cartesian Hessian Update
 Hessian Updated using BFGS Update


** CONSTRAINED OPTIMIZATION IN DELOCALIZED INTERNAL COORDINATES **
   Searching for a Minimum

   Optimization Cycle:   4

                       Coordinates (Angstroms)
     ATOM                X               Y               Z
      1  S         2.6936824416    0.5450569140    0.0585877822
      2  S        -2.8501832915    0.1054935793   -0.3813651236
      3  C        -0.0378524222    0.1853156275   -0.1091142799
      4  C         1.2615062148   -0.6201954832   -0.0123189542
      5  C        -1.2627093383   -0.7335105846   -0.1685038899
      6  H        -0.1369220854    0.8435944098    0.7622160723
      7  H        -0.0195954545    0.8285677154   -0.9949795961
      8  H         1.2620421524   -1.2387236157    0.8898422055
      9  H         1.3753795765   -1.2743077737   -0.8820137245
     10  H        -1.3093594983   -1.4081429995    0.6925289914
     11  H        -1.1991355980   -1.3741278113   -1.0661570127
     12  H         3.6509217527   -0.3904938292    0.2146912848
     13  H        -2.3195704497    1.9550758512    2.1754872446
   Point Group: c1    Number of degrees of freedom:    33


   Energy is   -915.343306786

              Constraints and their Current Values
                                        Value     Constraint
   Distance(Angs):        2  13             3.200000     3.200000
 Hessian Updated using BFGS Update

 32 Hessian modes will be used to form the next step
  Hessian Eigenvalues:
     0.046658    0.083684    0.125350    0.125947    0.130052    0.166998
     0.188481    0.211077    0.214600    0.221340    0.234946    0.235892
     0.280056    0.344666    0.354511    0.362570    0.397236    0.422999
     0.445684    0.540637    0.614362    0.631976    0.690971    0.719388
     0.776047    0.816532    0.822266    0.925275    0.954092    0.954535
     0.956433    0.957504

 Minimum Search - Taking Simple RFO Step
 Searching for Lamda that Minimizes Along All modes
 Value Taken    Lamda =  -0.00000217
 Step Taken.  Stepsize is  0.003909

                             Maximum     Tolerance    Cnvgd?
         Gradient           0.000442      0.000300      NO
         Displacement       0.001484      0.001200      NO
         Energy change     -0.000020      0.000001      NO


 New Cartesian Coordinates Obtained by Inverse Iteration

 Displacement from previous Coordinates is:  0.004809
 ----------------------------------------------------------------
             Standard Nuclear Orientation (Angstroms)
[...]
   C (  4)  1.848169  4.189392  1.530999
   C (  5)  4.166741  1.806847  1.534313  2.534877
   H (  6)  2.953979  3.009974  1.098533  2.173157  2.144929
   H (  7)  2.911243  2.984851  1.095179  2.170647  2.162920  1.761446
   H (  8)  2.433936  4.511835  2.171203  1.093793  2.798766  2.507160
   H (  9)  2.435923  4.472450  2.172874  1.094010  2.778666  3.082717
   H ( 10)  4.504414  2.413144  2.190138  2.775115  1.094366  2.537854
   H ( 11)  4.479113  2.323604  2.165114  2.789541  1.104576  3.058786
   H ( 12)  1.347551  6.542361  3.745575  2.410860  4.943508  4.030517
   H ( 13)  5.343901  3.200000  3.474967  4.708432  3.648746  2.571629
             H (  7)   H (  8)   H (  9)   H ( 10)   H ( 11)   H ( 12)
   H (  8)  3.077923
   H (  9)  2.537811  1.775699
   H ( 10)  3.084686  2.593804  3.090470
   H ( 11)  2.492587  3.178131  2.582031  1.766564
   H ( 12)  4.048954  2.614759  2.684261  5.083821  5.119285
   H ( 13)  3.831900  4.788753  5.583409  3.811529  4.705371  6.438859

 
 Applying Cartesian multipole field
    Component          Value
    ---------          -----
     (2,0,0)        1.00000E-11
     (0,2,0)        2.00000E-11
     (0,0,2)       -3.00000E-11
 Nucleus-field energy     =     0.0000000108 hartrees
 Requested basis set is 6-31G(d,p)
 There are 46 shells and 123 basis functions
 A cutoff of  1.0D-14 yielded    990 shell pairs
 There are      7203 function pairs
 Smallest overlap matrix eigenvalue = 5.05E-03
 Guess from superposition of atomic densities
 Warning:  Energy on first SCF cycle will be non-variational
 SAD guess density has 58.000000 electrons

 -----------------------------------------------------------------------
  General SCF calculation program by
  Eric Jon Sundstrom, Paul Horn, Yuezhi Mao, Dmitri Zuev, Alec White,
  David Stuck, Shaama M.S., Shane Yost, Joonho Lee, David Small,
  Daniel Levine, Susi Lehtola, Hugh Burton, Evgeny Epifanovsky
 -----------------------------------------------------------------------
 Exchange:     0.2000 Hartree-Fock + 0.0800 Slater + 0.7200 B88
 Correlation:  0.1900 VWN1RPA + 0.8100 LYP
 Using SG-1 standard quadrature grid
 using 12 threads for integral computing
 -------------------------------------------------------
 OpenMP Integral computing Module                
 Release: version 1.0, May 2013, Q-Chem Inc. Pittsburgh 
 -------------------------------------------------------
 -------------------------------------------------------
 OpenMP BLAS3 based DFT computing Module                
 Release: version 1.0, May 2013, Q-Chem Inc. Pittsburgh 
 -------------------------------------------------------
 A unrestricted SCF calculation will be
 performed using DIIS
 SCF converges when DIIS error is below 1.0e-06
 Alpha HF Exchange    Energy =  -6.83673988743446
 Beta HF Exchange     Energy =  -6.83673988743446
 DFT Correlation      Energy =  -2.70180937962320
 DFT Exchange         Energy = -53.82373738796652
 One-Electron (alpha) Energy = -887.74716485375427
 One-Electron (beta)  Energy = -887.74716485375427
 Total Coulomb        Energy = 668.05546307049394
 ---------------------------------------
  Cycle       Energy         DIIS error
 ---------------------------------------
    1    -915.9041439472      2.71e-02  
 Alpha HF Exchange    Energy =  -6.86185464090091
 Beta HF Exchange     Energy =  -6.86185464090091
 DFT Correlation      Energy =  -2.73861293180292
 DFT Exchange         Energy = -54.46431916372892
 One-Electron (alpha) Energy = -893.74229726162321
 One-Electron (beta)  Energy = -893.74229726162298
 Total Coulomb        Energy = 681.56336523144364
    2    -915.1141214369      3.51e-03  
 Alpha HF Exchange    Energy =  -6.78084194833072
 Beta HF Exchange     Energy =  -6.78084194833072
 DFT Correlation      Energy =  -2.68780605654951
 DFT Exchange         Energy = -53.76564799987580
 One-Electron (alpha) Energy = -882.57100687970387
 One-Electron (beta)  Energy = -882.57100687970342
 Total Coulomb        Energy = 658.76019355264805
    3    -914.6632089276      6.22e-03  
 Alpha HF Exchange    Energy =  -6.80669703207425
 Beta HF Exchange     Energy =  -6.80669703207424
 DFT Correlation      Energy =  -2.71072859585697
 DFT Exchange         Energy = -54.05894687933386
 One-Electron (alpha) Energy = -888.83298661837443
 One-Electron (beta)  Energy = -888.83298661837421
 Total Coulomb        Energy = 670.97868359613381
    4    -915.3366099477      8.70e-04  
 Alpha HF Exchange    Energy =  -6.81208345785772
 Beta HF Exchange     Energy =  -6.81208345785774
 DFT Correlation      Energy =  -2.70852781323544
 DFT Exchange         Energy = -54.08034757161414
 One-Electron (alpha) Energy = -887.52527342929693
 One-Electron (beta)  Energy = -887.52527342929761
 Total Coulomb        Energy = 668.49393366568722
    5    -915.2359062612      2.34e-03  
 Alpha HF Exchange    Energy =  -6.81296819867264
 Beta HF Exchange     Energy =  -6.81296819867263
 DFT Correlation      Energy =  -2.71275443815956
 DFT Exchange         Energy = -54.11032630000555
 One-Electron (alpha) Energy = -889.01602602368450
 One-Electron (beta)  Energy = -889.01602602368337
 Total Coulomb        Energy = 671.40791222573796
    6    -915.3394077249      4.95e-04  
 Alpha HF Exchange    Energy =  -6.81278407623106
 Beta HF Exchange     Energy =  -6.81278407623105
 DFT Correlation      Energy =  -2.71268144424689
 DFT Exchange         Energy = -54.10935999959802
 One-Electron (alpha) Energy = -889.00116994210407
 One-Electron (beta)  Energy = -889.00116994210225
 Total Coulomb        Energy = 671.37638083926095
    7    -915.3398194090      4.44e-04  
 Alpha HF Exchange    Energy =  -6.81348658367590
 Beta HF Exchange     Energy =  -6.81348658367589
 DFT Correlation      Energy =  -2.71324630588039
 DFT Exchange         Energy = -54.11503984595832
 One-Electron (alpha) Energy = -889.15554907951355
 One-Electron (beta)  Energy = -889.15554907951093
 Total Coulomb        Energy = 671.69055753013231
    8    -915.3420507159      2.74e-04  
 Alpha HF Exchange    Energy =  -6.81455489243091
 Beta HF Exchange     Energy =  -6.81455489243086
 DFT Correlation      Energy =  -2.71402838373281
 DFT Exchange         Energy = -54.12337484034586
 One-Electron (alpha) Energy = -889.35956970463792
 One-Electron (beta)  Energy = -889.35956970462553
 Total Coulomb        Energy = 672.10856885381611
    9    -915.3433343322      4.53e-05  
 Alpha HF Exchange    Energy =  -6.81469428537877
 Beta HF Exchange     Energy =  -6.81469428537865
 DFT Correlation      Energy =  -2.71412403215421
 DFT Exchange         Energy = -54.12443083924827
 One-Electron (alpha) Energy = -889.38291300998776
 One-Electron (beta)  Energy = -889.38291300996195
 Total Coulomb        Energy = 672.15666022821802
   10    -915.3433600017      1.01e-05  
 Alpha HF Exchange    Energy =  -6.81473546390550
 Beta HF Exchange     Energy =  -6.81473546390524
 DFT Correlation      Energy =  -2.71415158401486
 DFT Exchange         Energy = -54.12474751894972
 One-Electron (alpha) Energy = -889.38978923452748
 One-Electron (beta)  Energy = -889.38978923447269
 Total Coulomb        Energy = 672.17083782949351
   11    -915.3433614381      3.15e-06  
 Alpha HF Exchange    Energy =  -6.81474640455088
 Beta HF Exchange     Energy =  -6.81474640455031
 DFT Correlation      Energy =  -2.71415946951363
 DFT Exchange         Energy = -54.12482897587201
 One-Electron (alpha) Energy = -889.39179150425468
 One-Electron (beta)  Energy = -889.39179150413270
 Total Coulomb        Energy = 672.17495342390600
   12    -915.3433616067      4.77e-07  Convergence criterion met
 ---------------------------------------
 SCF time:   CPU 36.49s  wall 3.00s 
<S^2> =         -0.000000000
 Alpha HF Exchange    Energy =  -6.81474640455088
 Beta HF Exchange     Energy =  -6.81474640455031
 DFT Correlation      Energy =  -2.71415946951363
 DFT Exchange         Energy = -54.12482897587201
 One-Electron (alpha) Energy = -889.39179150425468
 One-Electron (beta)  Energy = -889.39179150413270
 Total Coulomb        Energy = 672.17495342390600
 Nuclear repulsion Energy = 261.73374923222707
 SCF   energy in the final basis set =     -915.3433616067
 Total energy in the final basis set =     -915.3433616067
 
 --------------------------------------------------------------
 
                    Orbital Energies (a.u.)
 --------------------------------------------------------------
 
 Alpha MOs
 -- Occupied --
-88.910 -88.881 -10.239 -10.232 -10.211  -7.967  -7.943  -5.933
 -5.930  -5.920  -5.908  -5.905  -5.898  -0.834  -0.781  -0.706
 -0.623  -0.599  -0.497  -0.458  -0.434  -0.418  -0.388  -0.363
 -0.351  -0.334  -0.262  -0.246  -0.243
 -- Virtual --
 -0.192   0.014   0.042   0.077   0.090   0.112   0.134   0.145
  0.156   0.181   0.203   0.212   0.320   0.343   0.360   0.367
  0.380   0.384   0.388   0.402   0.494   0.510   0.517   0.547
  0.584   0.624   0.639   0.646   0.729   0.743   0.750   0.786
  0.799   0.815   0.823   0.849   0.862   0.871   0.888   0.890
  0.899   0.931   0.935   0.956   1.028   1.106   1.150   1.155
  1.337   1.376   1.399   1.613   1.645   1.651   1.666   1.820
  1.845   1.963   1.999   2.009   2.016   2.039   2.055   2.071
  2.088   2.099   2.109   2.194   2.211   2.237   2.283   2.315
  2.377   2.479   2.559   2.592   2.613   2.698   2.753   2.780
  2.795   2.810   2.859   3.180   3.232   3.312   3.333   3.452
  3.533   3.905   3.978   4.240   4.408   4.611
 
 Beta MOs
 -- Occupied --
-88.910 -88.881 -10.239 -10.232 -10.211  -7.967  -7.943  -5.933
 -5.930  -5.920  -5.908  -5.905  -5.898  -0.834  -0.781  -0.706
 -0.623  -0.599  -0.497  -0.458  -0.434  -0.418  -0.388  -0.363
 -0.351  -0.334  -0.262  -0.246  -0.243
 -- Virtual --
 -0.192   0.014   0.042   0.077   0.090   0.112   0.134   0.145
  0.156   0.181   0.203   0.212   0.320   0.343   0.360   0.367
  0.380   0.384   0.388   0.402   0.494   0.510   0.517   0.547
  0.584   0.624   0.639   0.646   0.729   0.743   0.750   0.786
  0.799   0.815   0.823   0.849   0.862   0.871   0.888   0.890
  0.899   0.931   0.935   0.956   1.028   1.106   1.150   1.155
  1.337   1.376   1.399   1.613   1.645   1.651   1.666   1.820
  1.845   1.963   1.999   2.009   2.016   2.039   2.055   2.071
  2.088   2.099   2.109   2.194   2.211   2.237   2.283   2.315
  2.377   2.479   2.559   2.592   2.613   2.698   2.753   2.780
  2.795   2.810   2.859   3.180   3.232   3.312   3.333   3.452
  3.533   3.905   3.978   4.240   4.408   4.611
 --------------------------------------------------------------
 
          Ground-State Mulliken Net Atomic Charges

     Atom                 Charge (a.u.)    Spin (a.u.)
  --------------------------------------------------------
      1 S                    -0.035808       0.000000
      2 S                    -0.006098       0.000000
      3 C                    -0.172177      -0.000000
      4 C                    -0.332664       0.000000
      5 C                    -0.356079       0.000000
      6 H                     0.129143       0.000000
      7 H                     0.137991       0.000000
      8 H                     0.138620       0.000000
      9 H                     0.136339      -0.000000
     10 H                     0.151236       0.000000
     11 H                     0.157813       0.000000
     12 H                     0.058309       0.000000
     13 H                    -0.006625      -0.000000
  --------------------------------------------------------
  Sum of atomic charges =    -0.000000
  Sum of spin   charges =     0.000000

 -----------------------------------------------------------------
                    Cartesian Multipole Moments
 -----------------------------------------------------------------
    Charge (ESU x 10^10)
                 0.0000
    Dipole Moment (Debye)
         X       1.1542      Y      -2.5115      Z      -0.0724
       Tot       2.7649
    Quadrupole Moments (Debye-Ang)
        XX     -53.5689     XY      -2.8100     YY     -47.0894
        XZ       0.9753     YZ       1.1753     ZZ     -47.8907
    Octopole Moments (Debye-Ang^2)
       XXX      44.1623    XXY     -13.3091    XYY       2.3974
       YYY      -9.0168    XXZ       3.3026    XYZ      -3.8118
       YYZ       3.3735    XZZ      -1.1139    YZZ      -4.8846
       ZZZ       7.9653
    Hexadecapole Moments (Debye-Ang^3)
      XXXX   -1455.5128   XXXY     -70.6732   XXYY    -280.9480
      XYYY     -36.2041   YYYY    -180.8866   XXXZ     -11.7589
      XXYZ      -0.0414   XYYZ     -15.2446   YYYZ     -16.0442
      XXZZ    -278.6587   XYZZ     -15.3041   YYZZ     -46.0194
      XZZZ     -39.2779   YZZZ     -14.2728   ZZZZ    -122.4848
 -----------------------------------------------------------------
 Calculating analytic gradient of the SCF energy
 Gradient of SCF Energy
            1           2           3           4           5           6
    1   0.0000511  -0.0060221   0.0000296  -0.0000829   0.0000443  -0.0000619
    2   0.0000430  -0.0147141  -0.0001224  -0.0000312  -0.0001000   0.0001580
    3  -0.0000456  -0.0188284  -0.0000796  -0.0000974   0.0001994  -0.0000540
            7           8           9          10          11          12
    1   0.0000524   0.0000355  -0.0000272  -0.0000826  -0.0000015  -0.0000100
    2   0.0001203  -0.0000131  -0.0000244   0.0001036  -0.0000385  -0.0000037
    3   0.0000364   0.0000456   0.0000682  -0.0000610  -0.0000812  -0.0000200
           13
    1   0.0060752
    2   0.0146225
    3   0.0189179
 Max gradient component =       1.892E-02
 RMS gradient           =       5.584E-03
 Gradient time:  CPU 11.09 s  wall 0.98 s
 Geometry Optimization Parameters
   NAtoms,    NIC,     NZ,  NCons,   NDum,   NFix, NCnnct, MaxDiis
       13      90       0       1       0       0       0       0

 Cartesian Hessian Update
 Hessian Updated using BFGS Update


** CONSTRAINED OPTIMIZATION IN DELOCALIZED INTERNAL COORDINATES **
   Searching for a Minimum

   Optimization Cycle:  24

                       Coordinates (Angstroms)
     ATOM                X               Y               Z
      1  S         2.6610179029    0.5757204599    0.0747155857
      2  S        -2.8705464284    0.0736461659   -0.3645746533
      3  C        -0.0643138497    0.1749367080   -0.0897061929
      4  C         1.2462962518   -0.6112249634    0.0008905709
      5  C        -1.2773474699   -0.7596559394   -0.1856290917
      6  H        -0.1933727595    0.8075237632    0.7990869500
      7  H        -0.0483346166    0.8448090865   -0.9559813428
      8  H         1.2583130405   -1.2341160757    0.8999149633
      9  H         1.3684481931   -1.2590421213   -0.8721900105
     10  H        -1.3130957149   -1.4650907063    0.6502657243
     11  H        -1.2006603144   -1.3600809826   -1.1095866679
     12  H         3.6295146669   -0.3448868824    0.2490402461
     13  H        -2.0877149018    1.9810634877    2.0826549189
   Point Group: c1    Number of degrees of freedom:    33


   Energy is   -915.343361607

              Constraints and their Current Values
                                        Value     Constraint
   Distance(Angs):        2  13             3.200000     3.200000
 Hessian Updated using BFGS Update

 32 Hessian modes will be used to form the next step
  Hessian Eigenvalues:
     0.000296    0.004924    0.019075    0.050813    0.063515    0.111708
     0.127173    0.177888    0.205849    0.215389    0.222897    0.233357
     0.235094    0.286323    0.330253    0.354511    0.374766    0.415832
     0.444247    0.519664    0.612719    0.624798    0.657333    0.717838
     0.719610    0.765973    0.817353    0.889903    0.942806    0.950148
     0.956053    0.956799

 Minimum Search - Taking Simple RFO Step
 Searching for Lamda that Minimizes Along All modes
 Value Taken    Lamda =   0.00000000
 Step Taken.  Stepsize is  0.017052

                             Maximum     Tolerance    Cnvgd?
         Gradient           0.000125      0.000300     YES
         Displacement       0.007942      0.001200      NO
         Energy change     -0.000001      0.000001     YES


                       Distance Matrix (Angstroms)
             S (  1)   S (  2)   C (  3)   C (  4)   C (  5)   H (  6)
   S (  2)  5.571648
   C (  3)  2.759546  2.821481
   C (  4)  1.848169  4.189392  1.530999
   C (  5)  4.166741  1.806847  1.534313  2.534877
   H (  6)  2.953979  3.009974  1.098533  2.173157  2.144929
   H (  7)  2.911243  2.984851  1.095179  2.170647  2.162920  1.761446
   H (  8)  2.433936  4.511835  2.171203  1.093793  2.798766  2.507160
   H (  9)  2.435923  4.472450  2.172874  1.094010  2.778666  3.082717
   H ( 10)  4.504414  2.413144  2.190138  2.775115  1.094366  2.537854
   H ( 11)  4.479113  2.323604  2.165114  2.789541  1.104576  3.058786
   H ( 12)  1.347551  6.542361  3.745575  2.410860  4.943508  4.030517
   H ( 13)  5.343901  3.200000  3.474967  4.708432  3.648746  2.571629
             H (  7)   H (  8)   H (  9)   H ( 10)   H ( 11)   H ( 12)
   H (  8)  3.077923
   H (  9)  2.537811  1.775699
   H ( 10)  3.084686  2.593804  3.090470
   H ( 11)  2.492587  3.178131  2.582031  1.766564
   H ( 12)  4.048954  2.614759  2.684261  5.083821  5.119285
   H ( 13)  3.831900  4.788753  5.583409  3.811529  4.705371  6.438859

 
 Final energy is   -915.343361606741     


 ******************************
 **  OPTIMIZATION CONVERGED  **
 ******************************

                       Coordinates (Angstroms)
     ATOM                X               Y               Z
      1  S         2.6610179029    0.5757204599    0.0747155857
      2  S        -2.8705464284    0.0736461659   -0.3645746533
      3  C        -0.0643138497    0.1749367080   -0.0897061929
      4  C         1.2462962518   -0.6112249634    0.0008905709
      5  C        -1.2773474699   -0.7596559394   -0.1856290917
      6  H        -0.1933727595    0.8075237632    0.7990869500
      7  H        -0.0483346166    0.8448090865   -0.9559813428
      8  H         1.2583130405   -1.2341160757    0.8999149633
      9  H         1.3684481931   -1.2590421213   -0.8721900105
     10  H        -1.3130957149   -1.4650907063    0.6502657243
     11  H        -1.2006603144   -1.3600809826   -1.1095866679
     12  H         3.6295146669   -0.3448868824    0.2490402461
     13  H        -2.0877149018    1.9810634877    2.0826549189

Z-matrix Print:
$molecule
0 1
S 
H  1 1.347551
C  1 1.848169 2 96.694061
H  3 1.093793 1 108.934859 2 54.831529 0
H  3 1.094010 1 109.068847 2 -63.445995 0
C  3 1.530999 1 109.139188 2 175.578806 0
H  6 1.095179 3 110.389439 1 56.665622 0
H  6 1.098533 3 110.388834 1 -61.212796 0
C  6 1.534313 3 111.574496 1 178.731729 0
H  9 1.094366 6 111.760061 3 55.872361 0
H  9 1.104576 6 109.178724 3 -62.183874 0
S  9 1.806847 6 114.985397 3 -177.629428 0
H  8 2.571629 6 138.864295 3 -158.316023 0
$end

PES scan, value:    3.2000 energy: -915.3433616067
------- Summary of potential scan: ------ 
    3.2000      -915.3433616067
----------------------------------------- 
Archival summary:
1\1\hpc0250\JobtypUnspecified\ProcedureUnspecified\6-31G**\238\knomura\ThuMar1409:30:292019ThuMar1409:30:292019\0\\#,JobtypUnspecified,ProcedureUnspecified,6-31G**,\\0,1\S\H,1,1.34755\C,1,1.84817,2,96.6941\H,3,1.09379,1,108.935,2,54.8315,0\H,3,1.09401,1,109.069,2,-63.446,0\C,3,1.531,1,109.139,2,175.579,0\H,6,1.09518,3,110.389,1,56.6656,0\H,6,1.09853,3,110.389,1,-61.2128,0\C,6,1.53431,3,111.574,1,178.732,0\H,9,1.09437,6,111.76,3,55.8724,0\H,9,1.10458,6,109.179,3,-62.1839,0\S,9,1.80685,6,114.985,3,-177.629,0\H,8,2.57163,6,138.864,3,-158.316,0\\\@

 Total job time:  115.34s(wall), 1282.55s(cpu) 
 Thu Mar 14 09:30:29 2019

        *************************************************************
        *                                                           *
        *  Thank you very much for using Q-Chem.  Have a nice day.  *
        *                                                           *
        *************************************************************


