
Running Job 1 of 1 thiol/02/S-H.xyz.data/inputs/bond_triplet_2.9.in
qchem thiol/02/S-H.xyz.data/inputs/bond_triplet_2.9.in_25114.0 /staging/scratch/2868767/qchem25114/ 1
/usr/usc/qchem/5.1.1/exe/qcprog.exe_s thiol/02/S-H.xyz.data/inputs/bond_triplet_2.9.in_25114.0 /staging/scratch/2868767/qchem25114/
Check license passed

                  Welcome to Q-Chem
     A Quantum Leap Into The Future Of Chemistry


 Q-Chem 5.1, Q-Chem, Inc., Pleasanton, CA (2018)

 Yihan Shao,  Zhengting Gan,  E. Epifanovsky,  A. T. B. Gilbert,  M. Wormit,  
 J. Kussmann,  A. W. Lange,  A. Behn,  Jia Deng,  Xintian Feng,  D. Ghosh,  
 M. Goldey,  P. R. Horn,  L. D. Jacobson,  I. Kaliman,  T. Kus,  A. Landau,  
 Jie Liu,  E. I. Proynov,  R. M. Richard,  R. P. Steele,  E. J. Sundstrom,  
 H. L. Woodcock III,  P. M. Zimmerman,  D. Zuev,  B. Albrecht,  E. Alguire,  
 S. A. Baeppler,  D. Barton,  Z. Benda,  Y. A. Bernard,  E. J. Berquist,  
 K. B. Bravaya,  H. Burton,  D. Casanova,  Chun-Min Chang,  Yunqing Chen,  
 A. Chien,  K. D. Closser,  M. P. Coons,  S. Coriani,  S. Dasgupta,  
 A. L. Dempwolff,  M. Diedenhofen,  Hainam Do,  R. G. Edgar,  Po-Tung Fang,  
 S. Faraji,  S. Fatehi,  Qingguo Feng,  K. D. Fenk,  J. Fosso-Tande,  
 Qinghui Ge,  A. Ghysels,  G. Gidofalvi,  J. Gomes,  J. Gonthier,  A. Gunina,  
 D. Hait,  M. W. D. Hanson-Heine,  P. H. P. Harbach,  A. W. Hauser,  
 J. E. Herr,  E. G. Hohenstein,  Z. C. Holden,  Kerwin Hui,  B. C. Huynh,  
 T.-C. Jagau,  Hyunjun Ji,  B. Kaduk,  K. Khistyaev,  Jaehoon Kim,  
 P. Klunzinger,  K. Koh,  D. Kosenkov,  L. Koulias,  T. Kowalczyk,  
 C. M. Krauter,  A. Kunitsa,  Ka Un Lao,  A. Laurent,  K. V. Lawler,  
 Joonho Lee,  D. Lefrancois,  S. Lehtola,  D. S. Levine,  Yi-Pei Li,  
 You-Sheng Lin,  Fenglai Liu,  E. Livshits,  A. Luenser,  P. Manohar,  
 E. Mansoor,  S. F. Manzer,  Shan-Ping Mao,  Yuezhi Mao,  N. Mardirossian,  
 A. V. Marenich,  T. Markovich,  L. A. Martinez-Martinez,  S. A. Maurer,  
 N. J. Mayhall,  S. C. McKenzie,  J.-M. Mewes,  A. F. Morrison,  
 J. W. Mullinax,  K. Nanda,  T. S. Nguyen-Beck,  R. Olivares-Amaya,  
 J. A. Parkhill,  T. M. Perrine,  F. Plasser,  P. Pokhilko,  S. Prager,  
 A. Prociuk,  E. Ramos,  D. R. Rehn,  F. Rob,  M. Schneider,  N. Sergueev,  
 S. M. Sharada,  S. Sharma,  D. W. Small,  T. Stauch,  T. Stein,  
 Yu-Chuan Su,  A. J. W. Thom,  A. Tkatchenko,  T. Tsuchimochi,  N. M. Tubman,  
 L. Vogt,  M. L. Vidal,  O. Vydrov,  M. A. Watson,  J. Wenzel,  
 M. de Wergifosse,  T. A. Wesolowski,  A. White,  J. Witte,  A. Yamada,  
 Jun Yang,  K. Yao,  S. Yeganeh,  S. R. Yost,  Zhi-Qiang You,  A. Zech,  
 Igor Ying Zhang,  Xing Zhang,  Yan Zhao,  Ying Zhu,  B. R. Brooks,  
 G. K. L. Chan,  C. J. Cramer,  M. S. Gordon,  W. J. Hehre,  A. Klamt,  
 M. W. Schmidt,  C. D. Sherrill,  D. G. Truhlar,  A. Aspuru-Guzik,  R. Baer,  
 A. T. Bell,  N. A. Besley,  Jeng-Da Chai,  A. E. DePrince, III,  
 R. A. DiStasio Jr.,  A. Dreuw,  B. D. Dunietz,  T. R. Furlani,  
 Chao-Ping Hsu,  Yousung Jung,  Jing Kong,  D. S. Lambrecht,  WanZhen Liang,  
 C. Ochsenfeld,  V. A. Rassolov,  L. V. Slipchenko,  J. E. Subotnik,  
 T. Van Voorhis,  J. M. Herbert,  A. I. Krylov,  P. M. W. Gill,  M. Head-Gordon

 Contributors to earlier versions of Q-Chem not listed above: 
 R. D. Adamson,  B. Austin,  J. Baker,  G. J. O. Beran,  K. Brandhorst,  
 S. T. Brown,  E. F. C. Byrd,  A. K. Chakraborty,  C.-L. Cheng,  
 Siu Hung Chien,  D. M. Chipman,  D. L. Crittenden,  H. Dachsel,  
 R. J. Doerksen,  A. D. Dutoi,  L. Fusti-Molnar,  W. A. Goddard III,  
 A. Golubeva-Zadorozhnaya,  S. R. Gwaltney,  G. Hawkins,  A. Heyden,  
 S. Hirata,  G. Kedziora,  F. J. Keil,  C. Kelley,  Jihan Kim,  R. A. King,  
 R. Z. Khaliullin,  P. P. Korambath,  W. Kurlancheek,  A. M. Lee,  M. S. Lee,  
 S. V. Levchenko,  Ching Yeh Lin,  D. Liotard,  R. C. Lochan,  I. Lotan,  
 P. E. Maslen,  N. Nair,  D. P. O'Neill,  D. Neuhauser,  E. Neuscamman,  
 C. M. Oana,  R. Olson,  B. Peters,  R. Peverati,  P. A. Pieniazek,  
 Y. M. Rhee,  J. Ritchie,  M. A. Rohrdanz,  E. Rosta,  N. J. Russ,  
 H. F. Schaefer III,  N. E. Schultz,  N. Shenvi,  A. C. Simmonett,  A. Sodt,  
 D. Stuck,  K. S. Thanthiriwatte,  V. Vanovschi,  Tao Wang,  A. Warshel,  
 C. F. Williams,  Q. Wu,  X. Xu,  W. Zhang

 Please cite Q-Chem as follows:
 Y. Shao et al., Mol. Phys. 113, 184-215 (2015)
 DOI: 10.1080/00268976.2014.952696

 Q-Chem 5.1.1 for Intel X86 EM64T Linux

 Parts of Q-Chem use Armadillo 8.300.2 (Tropical Shenanigans).
 http://arma.sourceforge.net/

 Q-Chem begins on Wed Mar 13 22:44:06 2019  

Host: 
0

     Scratch files written to /staging/scratch/2868767/qchem25114//
 Aug318 |scratch|qcdevops|jenkins|workspace|build_RNUM 6013   
Processing $rem in /usr/usc/qchem/5.1.1/config/preferences.
 MEM_TOTAL  2000 
Input Ideriv = 2
Curr. Ideriv = -1
Max.  Ideriv = 2

Checking the input file for inconsistencies... 	...done.

--------------------------------------------------------------
User input:
--------------------------------------------------------------

$comment
potential surface scanner
$end

$rem
JOBTYPE  PES_SCAN
UNRESTRICTED TRUE
SYM_IGNORE  TRUE
GEOM_OPT_MAX_CYCLES 400
SCF_MAX_CYCLES 400
METHOD   B3LYP
BASIS   6-31G**
PDB_PRINT 2
SCF_CONVERGENCE 6
THRESH 14
SCF_PRINT 1
$end
$molecule
0 3
S 1.359876 -0.117515 -1.706785
C -0.956984 -0.070554 -0.101561
C 0.283573 -0.802795 -0.549952
C -1.969832 -1.013904 0.560261
H -1.423494 0.429632 -0.959556
H 2.057371 3.379627 -0.595067
H -0.689918 0.733585 0.605152
H 0.736177 -1.529212 0.126110
H -2.845118 -0.456509 0.908510
H -2.308949 -1.782982 -0.139935
H -1.527592 -1.518963 1.425785
H 1.997488 2.653394 -0.749959
$end
$scan
stre 1 12 2.900000 2.901000 0.100000
$end
--------------------------------------------------------------
 ----------------------------------------------------------------
             Standard Nuclear Orientation (Angstroms)
    I     Atom           X                Y                Z
 ----------------------------------------------------------------
    1      S       1.3598760000    -0.1175150000    -1.7067850000
    2      C      -0.9569840000    -0.0705540000    -0.1015610000
    3      C       0.2835730000    -0.8027950000    -0.5499520000
    4      C      -1.9698320000    -1.0139040000     0.5602610000
    5      H      -1.4234940000     0.4296320000    -0.9595560000
    6      H       2.0573710000     3.3796270000    -0.5950670000
    7      H      -0.6899180000     0.7335850000     0.6051520000
    8      H       0.7361770000    -1.5292120000     0.1261100000
    9      H      -2.8451180000    -0.4565090000     0.9085100000
   10      H      -2.3089490000    -1.7829820000    -0.1399350000
   11      H      -1.5275920000    -1.5189630000     1.4257850000
   12      H       1.9974880000     2.6533940000    -0.7499590000
 ----------------------------------------------------------------
 Nuclear Repulsion Energy =   154.8265967339 hartrees
 There are       22 alpha and       20 beta electrons
 Requested basis set is 6-31G(d,p)
 There are 41 shells and 104 basis functions

 Total QAlloc Memory Limit   2000 MB
 Mega-Array Size       188 MB
 MEM_STATIC part       192 MB
A total of 1 constraints
  
            1
    1   1.0100000
    2   1.0100000
    3  12.0100000
    4   2.9000000
    5   2.9010000
    6   0.1000000
    7   0.0000000
    8   0.0000000
    9   0.0000000
   10   0.0000000

                       Distance Matrix (Angstroms)
             S (  1)   C (  2)   C (  3)   C (  4)   H (  5)   H (  6)
   C (  2)  2.819005
   C (  3)  1.722295  1.508712
   C (  4)  4.126738  1.534203  2.520907
   H (  5)  2.933406  1.097257  2.144931  2.166131
   H (  6)  3.735294  4.607997  4.543242  6.070936  4.577307
   H (  7)  3.204852  1.103362  2.154626  2.166544  1.754660  3.998707
   H (  8)  2.396120  2.246400  1.090684  2.788640  3.111257  5.134428
   H (  9)  4.963533  2.175834  3.469255  1.094574  2.509169  6.403990
   H ( 10)  4.323086  2.182130  2.801794  1.093963  2.520212  6.776756
   H ( 11)  4.484922  2.180887  2.774302  1.095350  3.081836  6.397811
   H ( 12)  3.000000  4.070530  3.862998  5.559261  4.085605  0.744978
             H (  7)   H (  8)   H (  9)   H ( 10)   H ( 11)
   H (  8)  2.717256
   H (  9)  2.480572  3.819492
   H ( 10)  3.083752  3.067242  1.773766
   H ( 11)  2.539510  2.610347  1.769818  1.769662
   H ( 12)  3.569894  4.455625  5.989395  6.212806  5.879508
 
 A cutoff of  1.0D-14 yielded    786 shell pairs
 There are      5184 function pairs
 
 -------------------------------------------------------
 OpenMP Integral Computing Module                       
 Release: version 1.0, May 2013, Q-Chem Inc. Pittsburgh 
 -------------------------------------------------------
 Integral Job Info:
 Integral job number is                      11
 Integral operator is                         1
 short-range coefficients                     0
 long-range coefficients              100000000
 Omega coefficients                           0
 if combine SR and LR in K                    0
 Integral screening is                        0
 Integral computing path is                   2
 max size of driver memory is            800000
 size of driver memory is                593474
 size of scratch memory is             15267112
 max col of scratch BK array               1296
 max len of scratch array in speh3          155
 max len of scratch index in speh4           18
 max int batch size is                      520
 min int batch size is                       52
 fixed nKL is                                52
 max L of basis functions is                  2
 order of int derivative is                   0
 number of shells is                         41
 number of basis is                         104
 number of cartesian basis is               104
 number of contracted shell pairs           786
 number of primitive shell pairs           2788
 maxK2 (contraction) of shell pair           36
 max number of K2 of shell pair               1
 max number of CS2 of shell pair             77
 max number of PS2 of shell pair            246
 mem total for path MDJ                  513890
 -------------------------------------------------------
 Smallest overlap matrix eigenvalue = 5.67E-03

 Scale SEOQF with 1.000000e-01/1.000000e-01/1.000000e-01

 Standard Electronic Orientation quadrupole field applied
 Nucleus-field energy     =    -0.0000000002 hartrees
 Guess from superposition of atomic densities
 Warning:  Energy on first SCF cycle will be non-variational
 SAD guess density has 42.000000 electrons

 -----------------------------------------------------------------------
  General SCF calculation program by
  Eric Jon Sundstrom, Paul Horn, Yuezhi Mao, Dmitri Zuev, Alec White,
  David Stuck, Shaama M.S., Shane Yost, Joonho Lee, David Small,
  Daniel Levine, Susi Lehtola, Hugh Burton, Evgeny Epifanovsky
 -----------------------------------------------------------------------
 Exchange:     0.2000 Hartree-Fock + 0.0800 Slater + 0.7200 B88
 Correlation:  0.1900 VWN1RPA + 0.8100 LYP
 Using SG-1 standard quadrature grid
 using 12 threads for integral computing
 -------------------------------------------------------
 OpenMP Integral computing Module                
 Release: version 1.0, May 2013, Q-Chem Inc. Pittsburgh 
 -------------------------------------------------------
 -------------------------------------------------------
 OpenMP BLAS3 based DFT computing Module                
 Release: version 1.0, May 2013, Q-Chem Inc. Pittsburgh 
 -------------------------------------------------------
 A unrestricted SCF calculation will be
 performed using DIIS
 SCF converges when DIIS error is below 1.0e-06
 Alpha HF Exchange    Energy =  -4.32380831374205
 Beta HF Exchange     Energy =  -4.32380831374205
 DFT Correlation      Energy =  -1.85892268471093
 DFT Exchange         Energy = -33.94876015100758
 One-Electron (alpha) Energy = -506.16313628080070
 One-Electron (beta)  Energy = -506.16313628080070
 Total Coulomb        Energy = 384.49462249936443
 ---------------------------------------
  Cycle       Energy         DIIS error
 ---------------------------------------
    1    -517.4603527917      2.87e-02  
 Alpha HF Exchange    Energy =  -4.45155543658044
 Beta HF Exchange     Energy =  -4.25769130063937
 DFT Correlation      Energy =  -1.87853800529308
 DFT Exchange         Energy = -34.55409377038592
 One-Electron (alpha) Energy = -522.02094033463902
 One-Electron (beta)  Energy = -496.04478740800744
 Total Coulomb        Energy = 391.26377050108897
    2    -517.1172390207      4.02e-03  
 Alpha HF Exchange    Energy =  -4.40541284310220
 Beta HF Exchange     Energy =  -4.20762476888278
 DFT Correlation      Energy =  -1.85330854179735
 DFT Exchange         Energy = -34.15094128802745
 One-Electron (alpha) Energy = -519.32578799635917
 One-Electron (beta)  Energy = -493.51556619918108
 Total Coulomb        Energy = 385.64162654062261
    3    -516.9904183630      5.96e-03  
 Alpha HF Exchange    Energy =  -4.42595715783529
 Beta HF Exchange     Energy =  -4.23182647906076
 DFT Correlation      Energy =  -1.86509257887853
 DFT Exchange         Energy = -34.32755600137629
 One-Electron (alpha) Energy = -520.65011571637626
 One-Electron (beta)  Energy = -494.55241577706249
 Total Coulomb        Energy = 388.01212209514506
    4    -517.2142448817      7.29e-04  
 Alpha HF Exchange    Energy =  -4.43049693718373
 Beta HF Exchange     Energy =  -4.23575854751964
 DFT Correlation      Energy =  -1.86587898591050
 DFT Exchange         Energy = -34.35944243796038
 One-Electron (alpha) Energy = -520.92532724922035
 One-Electron (beta)  Energy = -494.75829331632548
 Total Coulomb        Energy = 388.53115248937996
    5    -517.2174482510      3.49e-04  
 Alpha HF Exchange    Energy =  -4.43024163964119
 Beta HF Exchange     Energy =  -4.23535265992474
 DFT Correlation      Energy =  -1.86543249194905
 DFT Exchange         Energy = -34.35558639937707
 One-Electron (alpha) Energy = -520.90315958564508
 One-Electron (beta)  Energy = -494.70161196384163
 Total Coulomb        Energy = 388.44659720565812
    6    -517.2181908010      9.16e-05  
 Alpha HF Exchange    Energy =  -4.42976935044126
 Beta HF Exchange     Energy =  -4.23534753260746
 DFT Correlation      Energy =  -1.86521440630025
 DFT Exchange         Energy = -34.35299753525407
 One-Electron (alpha) Energy = -520.86928616710804
 One-Electron (beta)  Energy = -494.67341007006729
 Total Coulomb        Energy = 388.38117029753107
    7    -517.2182580305      3.31e-05  
 Alpha HF Exchange    Energy =  -4.42993237274591
 Beta HF Exchange     Energy =  -4.23549608435641
 DFT Correlation      Energy =  -1.86521766203513
 DFT Exchange         Energy = -34.35403972476669
 One-Electron (alpha) Energy = -520.88217331866599
 One-Electron (beta)  Energy = -494.68022779449916
 Total Coulomb        Energy = 388.40222207020770
    8    -517.2182681531      1.14e-05  
 Alpha HF Exchange    Energy =  -4.42994423801512
 Beta HF Exchange     Energy =  -4.23556051888031
 DFT Correlation      Energy =  -1.86520461405265
 DFT Exchange         Energy = -34.35426024890548
 One-Electron (alpha) Energy = -520.88288305381604
 One-Electron (beta)  Energy = -494.68104298986162
 Total Coulomb        Energy = 388.40402950976448
    9    -517.2182694200      5.30e-06  
 Alpha HF Exchange    Energy =  -4.42992267096286
 Beta HF Exchange     Energy =  -4.23555275726765
 DFT Correlation      Energy =  -1.86519347306702
 DFT Exchange         Energy = -34.35412375638244
 One-Electron (alpha) Energy = -520.88080307289795
 One-Electron (beta)  Energy = -494.67943104715567
 Total Coulomb        Energy = 388.40016040002735
   10    -517.2182696440      1.19e-06  
 Alpha HF Exchange    Energy =  -4.42992580771102
 Beta HF Exchange     Energy =  -4.23555706103421
 DFT Correlation      Energy =  -1.86519465498606
 DFT Exchange         Energy = -34.35415488681693
 One-Electron (alpha) Energy = -520.88112323729285
 One-Electron (beta)  Energy = -494.67988973162727
 Total Coulomb        Energy = 388.40097896729731
   11    -517.2182696784      4.48e-07  Convergence criterion met
 ---------------------------------------
 SCF time:   CPU 26.60s  wall 2.00s 
<S^2> =          2.005058786
 Alpha HF Exchange    Energy =  -4.42992580771102
 Beta HF Exchange     Energy =  -4.23555706103421
 DFT Correlation      Energy =  -1.86519465498606
 DFT Exchange         Energy = -34.35415488681693
 One-Electron (alpha) Energy = -520.88112323729285
 One-Electron (beta)  Energy = -494.67988973162727
 Total Coulomb        Energy = 388.40097896729731
 Nuclear repulsion Energy = 154.82659673373900
 SCF   energy in the final basis set =     -517.2182696784
 Total energy in the final basis set =     -517.2182696784
 
 --------------------------------------------------------------
 
                    Orbital Energies (a.u.)
 --------------------------------------------------------------
 
 Alpha MOs
 -- Occupied --
-88.910 -10.215 -10.204 -10.184  -7.971  -5.941  -5.931  -5.926
 -0.818  -0.752  -0.644  -0.575  -0.462  -0.437  -0.423  -0.422
 -0.372  -0.364  -0.350  -0.310  -0.295  -0.171
 -- Virtual --
  0.058   0.106   0.109   0.125   0.151   0.161   0.173   0.188
  0.225   0.237   0.304   0.363   0.380   0.395   0.498   0.518
  0.535   0.554   0.579   0.631   0.645   0.667   0.683   0.742
  0.767   0.803   0.828   0.833   0.860   0.884   0.889   0.912
  0.939   0.973   0.999   1.050   1.120   1.184   1.311   1.440
  1.553   1.599   1.670   1.685   1.685   1.762   1.822   1.856
  1.909   2.028   2.045   2.059   2.091   2.119   2.200   2.246
  2.270   2.369   2.386   2.413   2.434   2.521   2.617   2.623
  2.624   2.680   2.713   2.742   2.817   2.875   2.904   3.182
  3.274   3.303   3.403   3.460   3.524   3.896   4.153   4.208
  4.382   4.606
 
 Beta MOs
 -- Occupied --
-88.904 -10.203 -10.202 -10.183  -7.964  -5.927  -5.923  -5.919
 -0.796  -0.731  -0.629  -0.547  -0.452  -0.428  -0.422  -0.407
 -0.363  -0.355  -0.341  -0.271
 -- Virtual --
 -0.164  -0.040   0.078   0.110   0.115   0.131   0.154   0.164
  0.176   0.192   0.233   0.247   0.321   0.384   0.397   0.411
  0.508   0.535   0.543   0.559   0.620   0.641   0.658   0.681
  0.704   0.796   0.808   0.823   0.839   0.841   0.862   0.891
  0.897   0.926   0.941   0.987   1.026   1.071   1.124   1.191
  1.321   1.446   1.558   1.622   1.674   1.685   1.685   1.785
  1.826   1.883   1.921   2.045   2.060   2.064   2.094   2.123
  2.212   2.251   2.282   2.375   2.387   2.424   2.443   2.533
  2.624   2.624   2.630   2.685   2.721   2.745   2.821   2.877
  2.906   3.183   3.279   3.310   3.408   3.461   3.526   3.917
  4.154   4.230   4.389   4.610
 --------------------------------------------------------------
 
          Ground-State Mulliken Net Atomic Charges

     Atom                 Charge (a.u.)    Spin (a.u.)
  --------------------------------------------------------
      1 S                     0.089142       1.109349
      2 C                    -0.184732      -0.019951
      3 C                    -0.279287       0.829036
      4 C                    -0.316446       0.013747
      5 H                     0.113800       0.009653
      6 H                    -0.019596       0.005430
      7 H                     0.117106       0.049628
      8 H                     0.135807       0.001244
      9 H                     0.107145       0.002535
     10 H                     0.118069       0.001492
     11 H                     0.107741      -0.001058
     12 H                     0.011251      -0.001104
  --------------------------------------------------------
  Sum of atomic charges =    -0.000000
  Sum of spin   charges =     2.000000

 -----------------------------------------------------------------
                    Cartesian Multipole Moments
 -----------------------------------------------------------------
    Charge (ESU x 10^10)
                -0.0000
    Dipole Moment (Debye)
         X      -0.8045      Y      -0.2343      Z       0.9776
       Tot       1.2876
    Quadrupole Moments (Debye-Ang)
        XX     -34.4563     XY      -1.4802     YY     -34.6836
        XZ       0.8348     YZ      -1.3158     ZZ     -36.5247
    Octopole Moments (Debye-Ang^2)
       XXX      -7.5191    XXY       5.5765    XYY      -1.1623
       YYY      26.2520    XXZ      22.0802    XYZ      -0.0105
       YYZ      24.4217    XZZ      -3.5006    YZZ      11.3930
       ZZZ      72.0386
    Hexadecapole Moments (Debye-Ang^3)
      XXXX    -462.0793   XXXY     -79.2232   XXYY    -116.6487
      XYYY     -69.1048   YYYY    -227.4207   XXXZ     120.8196
      XXYZ       6.8253   XYYZ      43.6189   YYYZ      10.8138
      XXZZ    -127.4722   XYZZ     -22.6767   YYZZ     -93.7391
      XZZZ     127.1733   YZZZ       2.0975   ZZZZ    -322.1076
 -----------------------------------------------------------------
 Calculating analytic gradient of the SCF energy
 Gradient of SCF Energy
            1           2           3           4           5           6
    1   0.0002131  -0.0000015  -0.0000679  -0.0000056   0.0000289  -0.0000040
    2   0.0007110   0.0000491  -0.0001253  -0.0000112   0.0000078   0.0001823
    3   0.0002553  -0.0000176  -0.0000436  -0.0000341  -0.0000059   0.0000103
            7           8           9          10          11          12
    1  -0.0000230   0.0000517  -0.0000074  -0.0000065  -0.0000113  -0.0001664
    2  -0.0000251   0.0000731   0.0000051  -0.0000052   0.0000143  -0.0008757
    3   0.0000128   0.0000772  -0.0000149  -0.0000030   0.0000014  -0.0002379
 Max gradient component =       8.757E-04
 RMS gradient           =       2.071E-04
 Gradient time:  CPU 8.26 s  wall 0.74 s
 Geometry Optimization Parameters
   NAtoms,    NIC,     NZ,  NCons,   NDum,   NFix, NCnnct, MaxDiis
       12      70       0       1       0       0       0       0


** CONSTRAINED OPTIMIZATION IN DELOCALIZED INTERNAL COORDINATES **
   Searching for a Minimum

   Optimization Cycle:   1

                       Coordinates (Angstroms)
     ATOM                X               Y               Z
      1  S         1.3598760000   -0.1175150000   -1.7067850000
      2  C        -0.9569840000   -0.0705540000   -0.1015610000
      3  C         0.2835730000   -0.8027950000   -0.5499520000
      4  C        -1.9698320000   -1.0139040000    0.5602610000
      5  H        -1.4234940000    0.4296320000   -0.9595560000
      6  H         2.0573710000    3.3796270000   -0.5950670000
      7  H        -0.6899180000    0.7335850000    0.6051520000
      8  H         0.7361770000   -1.5292120000    0.1261100000
      9  H        -2.8451180000   -0.4565090000    0.9085100000
     10  H        -2.3089490000   -1.7829820000   -0.1399350000
     11  H        -1.5275920000   -1.5189630000    1.4257850000
     12  H         1.9974880000    2.6533940000   -0.7499590000
   Point Group: c1    Number of degrees of freedom:    30


   Energy is   -517.218269678

              Constraints and their Current Values
                                        Value     Constraint
   Distance(Angs):        1  12             3.000000     2.900000

 Attempting to Generate Delocalized Internal Coordinates

   Using Lagrange Multiplier Algorithm


 31 Hessian modes will be used to form the next step
  Hessian Eigenvalues:
    -0.993126    0.045000    0.045000    0.045000    0.048326    0.072076
     0.082258    0.082851    0.083260    0.109961    0.136147    0.155148
     0.160000    0.160000    0.160000    0.160000    0.200000    0.200000
     0.219246    0.222463    0.290387    0.314802    0.333131    0.333353
     0.339873    0.342016    0.342894    0.343586    0.347337    0.384746
     1.006922

 Minimum Search - Taking P-RFO Step
 Searching for Lamda that Maximizes Along the Constraint modes Only
 Value Taken    Lamda =   0.01792388
 Searching for Lamda that Minimizes Along All other modes
 Value Taken    Lamda =  -0.01717589
 Step Taken.  Stepsize is  0.185721

                             Maximum     Tolerance    Cnvgd?
         Gradient            0.188973       0.000300      NO
         Displacement        0.185712       0.001200      NO
         Energy change     *********       0.000001      NO


 New Cartesian Coordinates Obtained by Inverse Iteration

 Displacement from previous Coordinates is:  0.211407
 ----------------------------------------------------------------
             Standard Nuclear Orientation (Angstroms)
    I     Atom           X                Y                Z
 ----------------------------------------------------------------
    1      S       1.3678685831    -0.0851392228    -1.6971430282
    2      C      -0.9534968465    -0.0577857468    -0.0979755636
    3      C       0.2919662659    -0.7814298998    -0.5465931525
    4      C      -1.9633348604    -1.0096543143     0.5561906881
    5      H      -1.4202048916     0.4442309954    -0.9548081164
    6      H       2.0259610430     3.3182200552    -0.5966500361
    7      H      -0.6925066435     0.7442479138     0.6134086279
    8      H       0.7461266843    -1.5094858327     0.1266444510
    9      H      -2.8425377277    -0.4585862035     0.9046294500
   10      H      -2.2963505169    -1.7769180370    -0.1489081163
   11      H      -1.5210179042    -1.5168141767     1.4204441451
   12      H       1.9701248144     2.5929184692    -0.7562363489
 ----------------------------------------------------------------
 Nuclear Repulsion Energy =   155.0758752602 hartrees
 There are       22 alpha and       20 beta electrons

                       Distance Matrix (Angstroms)
             S (  1)   C (  2)   C (  3)   C (  4)   H (  5)   H (  6)
   C (  2)  2.819011
   C (  3)  1.722252  1.508674
   C (  4)  4.126640  1.534197  2.520834
   H (  5)  2.933368  1.097269  2.144858  2.166077
   H (  6)  3.636898  4.530261  4.451559  5.997835  4.501572
   H (  7)  3.204946  1.103377  2.154642  2.166668  1.754668  3.934418
   H (  8)  2.396148  2.246466  1.090677  2.788463  3.111196  5.046571
   H (  9)  4.963487  2.175852  3.469206  1.094570  2.509107  6.341954
   H ( 10)  4.322690  2.182033  2.801523  1.093964  2.520041  6.696513
   H ( 11)  4.484942  2.180927  2.774335  1.095349  3.081831  6.326712
   H ( 12)  2.901726  4.000888  3.774439  5.493005  4.018784  0.744747
             H (  7)   H (  8)   H (  9)   H ( 10)   H ( 11)
   H (  8)  2.717705
   H (  9)  2.480777  3.819445
   H ( 10)  3.083783  3.066613  1.773770
   H ( 11)  2.539712  2.610348  1.769838  1.769650
   H ( 12)  3.518965  4.371198  5.935645  6.137355  5.815146
 
 Applying Cartesian multipole field
    Component          Value
    ---------          -----
     (2,0,0)        1.00000E-11
     (0,2,0)        2.00000E-11
     (0,0,2)       -3.00000E-11
 Nucleus-field energy     =    -0.0000000002 hartrees
 Requested basis set is 6-31G(d,p)
 There are 41 shells and 104 basis functions
 A cutoff of  1.0D-14 yielded    788 shell pairs
 There are      5203 function pairs
 Smallest overlap matrix eigenvalue = 5.67E-03
 Guess from superposition of atomic densities
 Warning:  Energy on first SCF cycle will be non-variational
 SAD guess density has 42.000000 electrons

 -----------------------------------------------------------------------
  General SCF calculation program by
  Eric Jon Sundstrom, Paul Horn, Yuezhi Mao, Dmitri Zuev, Alec White,
  David Stuck, Shaama M.S., Shane Yost, Joonho Lee, David Small,
  Daniel Levine, Susi Lehtola, Hugh Burton, Evgeny Epifanovsky
 -----------------------------------------------------------------------
 Exchange:     0.2000 Hartree-Fock + 0.0800 Slater + 0.7200 B88
 Correlation:  0.1900 VWN1RPA + 0.8100 LYP
 Using SG-1 standard quadrature grid
 using 12 threads for integral computing
 -------------------------------------------------------
 OpenMP Integral computing Module                
 Release: version 1.0, May 2013, Q-Chem Inc. Pittsburgh 
 -------------------------------------------------------
 -------------------------------------------------------
 OpenMP BLAS3 based DFT computing Module                
 Release: version 1.0, May 2013, Q-Chem Inc. Pittsburgh 
 -------------------------------------------------------
 A unrestricted SCF calculation will be
 performed using DIIS
 SCF converges when DIIS error is below 1.0e-06
 Alpha HF Exchange    Energy =  -4.32398235738703
 Beta HF Exchange     Energy =  -4.32398235738703
 DFT Correlation      Energy =  -1.85922487552129
 DFT Exchange         Energy = -33.94906792270329
 One-Electron (alpha) Energy = -506.41225194037946
 One-Electron (beta)  Energy = -506.41225194037946
 Total Coulomb        Energy = 384.74320026034741
 ---------------------------------------
  Cycle       Energy         DIIS error
 ---------------------------------------
    1    -517.4616858734      2.87e-02  
 Alpha HF Exchange    Energy =  -4.45156137692506
 Beta HF Exchange     Energy =  -4.25769015944996
 DFT Correlation      Energy =  -1.87877375354815
 DFT Exchange         Energy = -34.55417852395993
 One-Electron (alpha) Energy = -522.26829016710099
 One-Electron (beta)  Energy = -496.28404521378411
 Total Coulomb        Energy = 391.50162401305965
    2    -517.1170399217      4.02e-03  
 Alpha HF Exchange    Energy =  -4.40554067502043
 Beta HF Exchange     Energy =  -4.20769806972240
 DFT Correlation      Energy =  -1.85359793029973
 DFT Exchange         Energy = -34.15182098991674
 One-Electron (alpha) Energy = -519.58394512967379
 One-Electron (beta)  Energy = -493.76248281257944
 Total Coulomb        Energy = 385.89925733320263
    3    -516.9899530140      5.97e-03  
 Alpha HF Exchange    Energy =  -4.42605371579806
 Beta HF Exchange     Energy =  -4.23186441850248
 DFT Correlation      Energy =  -1.86535951387513
 DFT Exchange         Energy = -34.32811680652858
 One-Electron (alpha) Energy = -520.90415576560440
 One-Electron (beta)  Energy = -494.79385310420543
 Total Coulomb        Energy = 388.25946940998671
    4    -517.2140586545      7.30e-04  
 Alpha HF Exchange    Energy =  -4.43058400746012
 Beta HF Exchange     Energy =  -4.23579555963341
 DFT Correlation      Energy =  -1.86614293458589
 DFT Exchange         Energy = -34.35995560544986
 One-Electron (alpha) Energy = -521.17943782707039
 One-Electron (beta)  Energy = -494.99991114233916
 Total Coulomb        Energy = 388.77868765254351
    5    -517.2172641640      3.49e-04  
 Alpha HF Exchange    Energy =  -4.43032743713042
 Beta HF Exchange     Energy =  -4.23538713746591
 DFT Correlation      Energy =  -1.86569508642534
 DFT Exchange         Energy = -34.35608197617599
 One-Electron (alpha) Energy = -521.15709075298162
 One-Electron (beta)  Energy = -494.94287266845151
 Total Coulomb        Energy = 388.69357051878740
    6    -517.2180092798      9.16e-05  
 Alpha HF Exchange    Energy =  -4.42985669022026
 Beta HF Exchange     Energy =  -4.23538352938564
 DFT Correlation      Energy =  -1.86547737176199
 DFT Exchange         Energy = -34.35350416117686
 One-Electron (alpha) Energy = -521.12322985430569
 One-Electron (beta)  Energy = -494.91456970534057
 Total Coulomb        Energy = 388.62806963647608
    7    -517.2180764157      3.32e-05  
 Alpha HF Exchange    Energy =  -4.43002058822962
 Beta HF Exchange     Energy =  -4.23553229581271
 DFT Correlation      Energy =  -1.86548096635812
 DFT Exchange         Energy = -34.35455086748888
 One-Electron (alpha) Energy = -521.13621694168853
 One-Electron (beta)  Energy = -494.92145088844916
 Total Coulomb        Energy = 388.64929074958206
    8    -517.2180865384      1.14e-05  
 Alpha HF Exchange    Energy =  -4.43003237443457
 Beta HF Exchange     Energy =  -4.23559679832347
 DFT Correlation      Energy =  -1.86546787573481
 DFT Exchange         Energy = -34.35477111524148
 One-Electron (alpha) Energy = -521.13692343442642
 One-Electron (beta)  Energy = -494.92225417834470
 Total Coulomb        Energy = 388.65108272285141
    9    -517.2180877937      5.30e-06  
 Alpha HF Exchange    Energy =  -4.43001073669436
 Beta HF Exchange     Energy =  -4.23558899124215
 DFT Correlation      Energy =  -1.86545671599909
 DFT Exchange         Energy = -34.35463416388903
 One-Electron (alpha) Energy = -521.13483388547809
 One-Electron (beta)  Energy = -494.92062933172650
 Total Coulomb        Energy = 388.64719055382176
   10    -517.2180880112      1.17e-06  
 Alpha HF Exchange    Energy =  -4.43001388596075
 Beta HF Exchange     Energy =  -4.23559329583388
 DFT Correlation      Energy =  -1.86545789994964
 DFT Exchange         Energy = -34.35466536895246
 One-Electron (alpha) Energy = -521.13515601258894
 One-Electron (beta)  Energy = -494.92108684209518
 Total Coulomb        Energy = 388.64801000428707
   11    -517.2180880411      4.21e-07  Convergence criterion met
 ---------------------------------------
 SCF time:   CPU 25.68s  wall 3.00s 
<S^2> =          2.005061296
 Alpha HF Exchange    Energy =  -4.43001388596075
 Beta HF Exchange     Energy =  -4.23559329583388
 DFT Correlation      Energy =  -1.86545789994964
 DFT Exchange         Energy = -34.35466536895246
 One-Electron (alpha) Energy = -521.13515601258894
 One-Electron (beta)  Energy = -494.92108684209518
 Total Coulomb        Energy = 388.64801000428707
 Nuclear repulsion Energy = 155.07587525999719
 SCF   energy in the final basis set =     -517.2180880411
 Total energy in the final basis set =     -517.2180880411
 
 --------------------------------------------------------------
 
                    Orbital Energies (a.u.)
 --------------------------------------------------------------
 
 Alpha MOs
 -- Occupied --
-88.911 -10.215 -10.204 -10.184  -7.971  -5.941  -5.931  -5.926
 -0.818  -0.752  -0.644  -0.575  -0.462  -0.437  -0.423  -0.422
 -0.372  -0.364  -0.350  -0.310  -0.295  -0.171
 -- Virtual --
  0.058   0.108   0.110   0.125   0.151   0.161   0.172   0.188
  0.225   0.237   0.305   0.362   0.380   0.399   0.498   0.518
  0.535   0.554   0.579   0.631   0.646   0.669   0.685   0.745
  0.767   0.802   0.828   0.832   0.860   0.884   0.889   0.912
  0.939   0.975   0.999   1.050   1.126   1.183   1.311   1.440
  1.553   1.600   1.670   1.686   1.686   1.762   1.822   1.856
  1.909   2.028   2.045   2.059   2.091   2.119   2.199   2.246
  2.270   2.368   2.388   2.413   2.435   2.521   2.617   2.625
  2.625   2.680   2.713   2.742   2.817   2.875   2.904   3.182
  3.274   3.303   3.403   3.460   3.523   3.897   4.155   4.208
  4.382   4.606
 
 Beta MOs
 -- Occupied --
-88.904 -10.203 -10.202 -10.184  -7.965  -5.927  -5.923  -5.919
 -0.796  -0.731  -0.629  -0.547  -0.452  -0.428  -0.421  -0.407
 -0.363  -0.355  -0.341  -0.271
 -- Virtual --
 -0.164  -0.040   0.078   0.112   0.116   0.131   0.154   0.164
  0.175   0.192   0.233   0.247   0.322   0.384   0.398   0.414
  0.508   0.535   0.543   0.559   0.621   0.642   0.661   0.682
  0.705   0.798   0.808   0.822   0.839   0.841   0.863   0.891
  0.897   0.926   0.942   0.988   1.026   1.071   1.130   1.191
  1.321   1.446   1.558   1.622   1.674   1.686   1.687   1.785
  1.826   1.883   1.921   2.045   2.060   2.064   2.094   2.123
  2.211   2.251   2.282   2.375   2.389   2.425   2.443   2.533
  2.625   2.625   2.630   2.684   2.721   2.745   2.821   2.877
  2.906   3.182   3.279   3.310   3.408   3.461   3.526   3.917
  4.155   4.231   4.389   4.610
 --------------------------------------------------------------
 
          Ground-State Mulliken Net Atomic Charges

     Atom                 Charge (a.u.)    Spin (a.u.)
  --------------------------------------------------------
      1 S                     0.090152       1.108746
      2 C                    -0.184726      -0.019944
      3 C                    -0.279147       0.828895
      4 C                    -0.316481       0.013756
      5 H                     0.113860       0.009683
      6 H                    -0.020479       0.006649
      7 H                     0.117242       0.049516
      8 H                     0.135883       0.001255
      9 H                     0.107183       0.002539
     10 H                     0.118083       0.001494
     11 H                     0.107760      -0.001058
     12 H                     0.010671      -0.001531
  --------------------------------------------------------
  Sum of atomic charges =     0.000000
  Sum of spin   charges =     2.000000

 -----------------------------------------------------------------
                    Cartesian Multipole Moments
 -----------------------------------------------------------------
    Charge (ESU x 10^10)
                -0.0000
    Dipole Moment (Debye)
         X      -0.8104      Y      -0.2567      Z       0.9724
       Tot       1.2916
    Quadrupole Moments (Debye-Ang)
        XX     -34.4567     XY      -1.5203     YY     -34.7358
        XZ       0.8321     YZ      -1.2826     ZZ     -36.5141
    Octopole Moments (Debye-Ang^2)
       XXX      -7.9894    XXY       4.9752    XYY      -1.5246
       YYY      24.3479    XXZ      21.9458    XYZ      -0.0119
       YYZ      24.2231    XZZ      -3.6748    YZZ      10.7893
       ZZZ      71.6474
    Hexadecapole Moments (Debye-Ang^3)
      XXXX    -460.9630   XXXY     -79.1956   XXYY    -115.8839
      XYYY     -69.6670   YYYY    -222.6766   XXXZ     120.5131
      XXYZ       7.4436   XYYZ      43.5901   YYYZ      13.0937
      XXZZ    -126.8396   XYZZ     -22.5853   YYZZ     -91.9300
      XZZZ     127.0402   YZZZ       4.4097   ZZZZ    -319.2794
 -----------------------------------------------------------------
 Calculating analytic gradient of the SCF energy
 Gradient of SCF Energy
            1           2           3           4           5           6
    1   0.0002278  -0.0000027  -0.0000442  -0.0000214   0.0000187  -0.0000507
    2   0.0011494  -0.0000081  -0.0000982  -0.0000074   0.0000071  -0.0003132
    3   0.0003907  -0.0000141  -0.0000435  -0.0000266  -0.0000133  -0.0001044
            7           8           9          10          11          12
    1   0.0000009   0.0000593  -0.0000078   0.0000147  -0.0000176  -0.0001771
    2   0.0000042   0.0000854   0.0000045   0.0000028   0.0000072  -0.0008337
    3   0.0000180   0.0000882  -0.0000198  -0.0000099   0.0000011  -0.0002664
 Max gradient component =       1.149E-03
 RMS gradient           =       2.620E-04
 Gradient time:  CPU 8.05 s  wall 0.70 s
 Geometry Optimization Parameters
   NAtoms,    NIC,     NZ,  NCons,   NDum,   NFix, NCnnct, MaxDiis
       12      70       0       1       0       0       0       0

 Cartesian Hessian Update
 Hessian Updated using BFGS Update


** CONSTRAINED OPTIMIZATION IN DELOCALIZED INTERNAL COORDINATES **
   Searching for a Minimum

   Optimization Cycle:   2

                       Coordinates (Angstroms)
     ATOM                X               Y               Z
      1  S         1.3678685831   -0.0851392228   -1.6971430282
      2  C        -0.9534968465   -0.0577857468   -0.0979755636
      3  C         0.2919662659   -0.7814298998   -0.5465931525
      4  C        -1.9633348604   -1.0096543143    0.5561906881
      5  H        -1.4202048916    0.4442309954   -0.9548081164
      6  H         2.0259610430    3.3182200552   -0.5966500361
      7  H        -0.6925066435    0.7442479138    0.6134086279
      8  H         0.7461266843   -1.5094858327    0.1266444510
      9  H        -2.8425377277   -0.4585862035    0.9046294500
     10  H        -2.2963505169   -1.7769180370   -0.1489081163
     11  H        -1.5210179042   -1.5168141767    1.4204441451
     12  H         1.9701248144    2.5929184692   -0.7562363489
   Point Group: c1    Number of degrees of freedom:    30


   Energy is   -517.218088041

              Constraints and their Current Values
                                        Value     Constraint
   Distance(Angs):        1  12             2.901726     2.900000
 Hessian Updated using BFGS Update

   Using Lagrange Multiplier Algorithm


 28 Hessian modes will be used to form the next step
  Hessian Eigenvalues:
    -0.998732    0.044997    0.045153    0.048328    0.072098    0.082258
     0.082851    0.083264    0.109963    0.136154    0.155149    0.160000
     0.160026    0.199998    0.200003    0.219247    0.222463    0.290387
     0.314810    0.333139    0.333363    0.339874    0.342016    0.342894
     0.343586    0.347337    0.387618    1.001274

 Minimum Search - Taking P-RFO Step
 Searching for Lamda that Maximizes Along the Constraint modes Only
 Value Taken    Lamda =   0.00000082
 Searching for Lamda that Minimizes Along All other modes
 Value Taken    Lamda =  -0.00001443
 Step Taken.  Stepsize is  0.004411

                             Maximum     Tolerance    Cnvgd?
         Gradient            0.003261       0.000300      NO
         Displacement        0.003261       0.001200      NO
         Energy change      0.000182       0.000001      NO


 New Cartesian Coordinates Obtained by Inverse Iteration

 Displacement from previous Coordinates is:  0.006047
 ----------------------------------------------------------------
             Standard Nuclear Orientation (Angstroms)
    I     Atom           X                Y                Z
 ----------------------------------------------------------------
    1      S       1.3687252737    -0.0850550603    -1.6965076877
    2      C      -0.9530684068    -0.0575219756    -0.0978282151
    3      C       0.2922868701    -0.7813588934    -0.5464617116
    4      C      -1.9631607351    -1.0093208649     0.5560501025
    5      H      -1.4195550996     0.4448650433    -0.9545595557
    6      H       2.0244143929     3.3176977869    -0.5967741072
    7      H      -0.6920205149     0.7442205220     0.6138166038
    8      H       0.7457169943    -1.5103890372     0.1261873684
    9      H      -2.8422548337    -0.4581400567     0.9045840176
   10      H      -2.2963838351    -1.7763974180    -0.1491679486
   11      H      -1.5209472255    -1.5167391776     1.4202053497
   12      H       1.9688451199     2.5919431317    -0.7565412161
 ----------------------------------------------------------------
 Nuclear Repulsion Energy =   155.0788974962 hartrees
 There are       22 alpha and       20 beta electrons

                       Distance Matrix (Angstroms)
             S (  1)   C (  2)   C (  3)   C (  4)   H (  5)   H (  6)
   C (  2)  2.819089
   C (  3)  1.722256  1.508682
   C (  4)  4.126712  1.534198  2.520822
   H (  5)  2.933566  1.097265  2.144894  2.166127
   H (  6)  3.635666  4.528406  4.450288  5.996070  4.499123
   H (  7)  3.204991  1.103347  2.154646  2.166574  1.754629  3.932853
   H (  8)  2.396233  2.246526  1.090661  2.788166  3.111179  5.046599
   H (  9)  4.963590  2.175856  3.469201  1.094570  2.509165  6.339992
   H ( 10)  4.322953  2.182124  2.801635  1.093973  2.520216  6.694733
   H ( 11)  4.484844  2.180878  2.774235  1.095349  3.081831  6.325312
   H ( 12)  2.900000  3.998893  3.772817  5.491145  4.016268  0.745207
             H (  7)   H (  8)   H (  9)   H ( 10)   H ( 11)
   H (  8)  2.718113
   H (  9)  2.480670  3.819250
   H ( 10)  3.083771  3.066098  1.773745
   H ( 11)  2.539551  2.610036  1.769845  1.769649
   H ( 12)  3.517409  4.370856  5.933720  6.135428  5.813617
 
 Applying Cartesian multipole field
    Component          Value
    ---------          -----
     (2,0,0)        1.00000E-11
     (0,2,0)        2.00000E-11
     (0,0,2)       -3.00000E-11
 Nucleus-field energy     =    -0.0000000002 hartrees
 Requested basis set is 6-31G(d,p)
 There are 41 shells and 104 basis functions
 A cutoff of  1.0D-14 yielded    788 shell pairs
 There are      5203 function pairs
 Smallest overlap matrix eigenvalue = 5.67E-03
 Guess from superposition of atomic densities
 Warning:  Energy on first SCF cycle will be non-variational
 SAD guess density has 42.000000 electrons

 -----------------------------------------------------------------------
  General SCF calculation program by
  Eric Jon Sundstrom, Paul Horn, Yuezhi Mao, Dmitri Zuev, Alec White,
  David Stuck, Shaama M.S., Shane Yost, Joonho Lee, David Small,
  Daniel Levine, Susi Lehtola, Hugh Burton, Evgeny Epifanovsky
 -----------------------------------------------------------------------
 Exchange:     0.2000 Hartree-Fock + 0.0800 Slater + 0.7200 B88
 Correlation:  0.1900 VWN1RPA + 0.8100 LYP
 Using SG-1 standard quadrature grid
 using 12 threads for integral computing
 -------------------------------------------------------
 OpenMP Integral computing Module                
 Release: version 1.0, May 2013, Q-Chem Inc. Pittsburgh 
 -------------------------------------------------------
 -------------------------------------------------------
 OpenMP BLAS3 based DFT computing Module                
 Release: version 1.0, May 2013, Q-Chem Inc. Pittsburgh 
 -------------------------------------------------------
 A unrestricted SCF calculation will be
 performed using DIIS
 SCF converges when DIIS error is below 1.0e-06
 Alpha HF Exchange    Energy =  -4.32397346836046
 Beta HF Exchange     Energy =  -4.32397346836046
 DFT Correlation      Energy =  -1.85922770100226
 DFT Exchange         Energy = -33.94904394557258
 One-Electron (alpha) Energy = -506.41546459571782
 One-Electron (beta)  Energy = -506.41546459571782
 Total Coulomb        Energy = 384.74651649559917
 ---------------------------------------
  Cycle       Energy         DIIS error
 ---------------------------------------
    1    -517.4617337832      2.87e-02  
 Alpha HF Exchange    Energy =  -4.45154189834725
 Beta HF Exchange     Energy =  -4.25767248900876
 DFT Correlation      Energy =  -1.87877278294134
 DFT Exchange         Energy = -34.55404455181500
 One-Electron (alpha) Energy = -522.27130295724555
 One-Electron (beta)  Energy = -496.28711629927926
 Total Coulomb        Energy = 391.50450908091352
    2    -517.1170444018      4.02e-03  
 Alpha HF Exchange    Energy =  -4.40552599187877
 Beta HF Exchange     Energy =  -4.20768586729968
 DFT Correlation      Energy =  -1.85359918008125
 DFT Exchange         Energy = -34.15172601711730
 One-Electron (alpha) Energy = -519.58716315200684
 One-Electron (beta)  Energy = -493.76557185585466
 Total Coulomb        Energy = 385.90239981042976
    3    -516.9899747578      5.97e-03  
 Alpha HF Exchange    Energy =  -4.42603890159950
 Beta HF Exchange     Energy =  -4.23185090312687
 DFT Correlation      Energy =  -1.86535984921831
 DFT Exchange         Energy = -34.32801581537166
 One-Electron (alpha) Energy = -520.90731672312745
 One-Electron (beta)  Energy = -494.79693912152072
 Total Coulomb        Energy = 388.26256760941232
    4    -517.2140562086      7.30e-04  
 Alpha HF Exchange    Energy =  -4.43056840005866
 Beta HF Exchange     Energy =  -4.23578146343108
 DFT Correlation      Energy =  -1.86614318925201
 DFT Exchange         Energy = -34.35984942166196
 One-Electron (alpha) Energy = -521.18258691637141
 One-Electron (beta)  Energy = -495.00297427934305
 Total Coulomb        Energy = 388.78174535352207
    5    -517.2172608206      3.49e-04  
 Alpha HF Exchange    Energy =  -4.43031185252996
 Beta HF Exchange     Energy =  -4.23537300130652
 DFT Correlation      Energy =  -1.86569534280836
 DFT Exchange         Energy = -34.35597575668403
 One-Electron (alpha) Energy = -521.16024275931591
 One-Electron (beta)  Energy = -494.94593272440619
 Total Coulomb        Energy = 388.69662814909049
    6    -517.2180057920      9.15e-05  
 Alpha HF Exchange    Energy =  -4.42984116776864
 Beta HF Exchange     Energy =  -4.23536938016107
 DFT Correlation      Energy =  -1.86547766108954
 DFT Exchange         Energy = -34.35339828291323
 One-Electron (alpha) Energy = -521.12638390844745
 One-Electron (beta)  Energy = -494.91762774394778
 Total Coulomb        Energy = 388.63112774035858
    7    -517.2180729080      3.32e-05  
 Alpha HF Exchange    Energy =  -4.43000507456909
 Beta HF Exchange     Energy =  -4.23551812162179
 DFT Correlation      Energy =  -1.86548125898727
 DFT Exchange         Energy = -34.35444494817206
 One-Electron (alpha) Energy = -521.13937158258227
 One-Electron (beta)  Energy = -494.92450852740836
 Total Coulomb        Energy = 388.65234899035352
    8    -517.2180830270      1.14e-05  
 Alpha HF Exchange    Energy =  -4.43001684761002
 Beta HF Exchange     Energy =  -4.23558260106163
 DFT Correlation      Energy =  -1.86546816610756
 DFT Exchange         Energy = -34.35466506771020
 One-Electron (alpha) Energy = -521.14007714795002
 One-Electron (beta)  Energy = -494.92531047751805
 Total Coulomb        Energy = 388.65413853025666
    9    -517.2180842817      5.30e-06  
 Alpha HF Exchange    Energy =  -4.42999521470041
 Beta HF Exchange     Energy =  -4.23557479115397
 DFT Correlation      Energy =  -1.86545700893988
 DFT Exchange         Energy = -34.35452813583095
 One-Electron (alpha) Energy = -521.13798789151167
 One-Electron (beta)  Energy = -494.92368569515025
 Total Coulomb        Energy = 388.65024674217597
   10    -517.2180844991      1.17e-06  
 Alpha HF Exchange    Energy =  -4.42999836466971
 Beta HF Exchange     Energy =  -4.23557909494604
 DFT Correlation      Energy =  -1.86545819322309
 DFT Exchange         Energy = -34.35455934263386
 One-Electron (alpha) Energy = -521.13831004223709
 One-Electron (beta)  Energy = -494.92414314811248
 Total Coulomb        Energy = 388.65106616086496
   11    -517.2180845290      4.21e-07  Convergence criterion met
 ---------------------------------------
 SCF time:   CPU 25.36s  wall 2.00s 
<S^2> =          2.005062067
 Alpha HF Exchange    Energy =  -4.42999836466971
 Beta HF Exchange     Energy =  -4.23557909494604
 DFT Correlation      Energy =  -1.86545819322309
 DFT Exchange         Energy = -34.35455934263386
 One-Electron (alpha) Energy = -521.13831004223709
 One-Electron (beta)  Energy = -494.92414314811248
 Total Coulomb        Energy = 388.65106616086496
 Nuclear repulsion Energy = 155.07889749596893
 SCF   energy in the final basis set =     -517.2180845290
 Total energy in the final basis set =     -517.2180845290
 
 --------------------------------------------------------------
 
                    Orbital Energies (a.u.)
 --------------------------------------------------------------
 
 Alpha MOs
 -- Occupied --
-88.911 -10.215 -10.204 -10.184  -7.971  -5.941  -5.931  -5.926
 -0.818  -0.752  -0.644  -0.575  -0.462  -0.437  -0.423  -0.422
 -0.372  -0.364  -0.350  -0.310  -0.295  -0.171
 -- Virtual --
  0.058   0.108   0.110   0.125   0.151   0.161   0.172   0.188
  0.225   0.237   0.305   0.362   0.380   0.399   0.498   0.518
  0.535   0.554   0.579   0.631   0.646   0.669   0.685   0.745
  0.767   0.802   0.828   0.832   0.860   0.884   0.889   0.912
  0.939   0.975   0.999   1.050   1.126   1.183   1.311   1.440
  1.553   1.600   1.670   1.686   1.686   1.762   1.822   1.856
  1.909   2.028   2.045   2.059   2.091   2.120   2.199   2.246
  2.270   2.368   2.387   2.413   2.435   2.521   2.617   2.624
  2.625   2.680   2.713   2.742   2.817   2.875   2.904   3.182
  3.274   3.303   3.403   3.460   3.523   3.897   4.153   4.208
  4.382   4.606
 
 Beta MOs
 -- Occupied --
-88.904 -10.203 -10.202 -10.184  -7.965  -5.927  -5.923  -5.919
 -0.796  -0.731  -0.629  -0.547  -0.452  -0.428  -0.421  -0.407
 -0.363  -0.355  -0.341  -0.271
 -- Virtual --
 -0.164  -0.040   0.078   0.112   0.116   0.131   0.154   0.164
  0.175   0.192   0.233   0.247   0.322   0.384   0.398   0.415
  0.508   0.535   0.543   0.559   0.621   0.642   0.661   0.682
  0.705   0.798   0.808   0.822   0.839   0.841   0.863   0.891
  0.897   0.926   0.942   0.988   1.026   1.071   1.130   1.191
  1.321   1.446   1.558   1.622   1.674   1.686   1.687   1.785
  1.826   1.883   1.921   2.045   2.060   2.064   2.094   2.123
  2.211   2.251   2.282   2.375   2.388   2.425   2.443   2.533
  2.624   2.625   2.630   2.684   2.721   2.745   2.821   2.877
  2.906   3.182   3.279   3.310   3.408   3.461   3.526   3.917
  4.153   4.231   4.389   4.610
 --------------------------------------------------------------
 
          Ground-State Mulliken Net Atomic Charges

     Atom                 Charge (a.u.)    Spin (a.u.)
  --------------------------------------------------------
      1 S                     0.090170       1.108697
      2 C                    -0.184704      -0.019966
      3 C                    -0.279171       0.828951
      4 C                    -0.316502       0.013751
      5 H                     0.113865       0.009708
      6 H                    -0.020478       0.006693
      7 H                     0.117254       0.049513
      8 H                     0.135895       0.001231
      9 H                     0.107187       0.002534
     10 H                     0.118078       0.001493
     11 H                     0.107763      -0.001058
     12 H                     0.010643      -0.001548
  --------------------------------------------------------
  Sum of atomic charges =    -0.000000
  Sum of spin   charges =     2.000000

 -----------------------------------------------------------------
                    Cartesian Multipole Moments
 -----------------------------------------------------------------
    Charge (ESU x 10^10)
                 0.0000
    Dipole Moment (Debye)
         X      -0.8109      Y      -0.2576      Z       0.9720
       Tot       1.2918
    Quadrupole Moments (Debye-Ang)
        XX     -34.4597     XY      -1.5211     YY     -34.7325
        XZ       0.8307     YZ      -1.2816     ZZ     -36.5151
    Octopole Moments (Debye-Ang^2)
       XXX      -8.0380    XXY       4.9687    XYY      -1.5381
       YYY      24.3241    XXZ      21.9372    XYZ      -0.0114
       YYZ      24.2123    XZZ      -3.6884    YZZ      10.7821
       ZZZ      71.6260
    Hexadecapole Moments (Debye-Ang^3)
      XXXX    -461.0377   XXXY     -79.1499   XXYY    -115.8886
      XYYY     -69.6302   YYYY    -222.6162   XXXZ     120.5300
      XXYZ       7.4459   XYYZ      43.5932   YYYZ      13.1026
      XXZZ    -126.8205   XYZZ     -22.5686   YYZZ     -91.8880
      XZZZ     127.0607   YZZZ       4.4255   ZZZZ    -319.1142
 -----------------------------------------------------------------
 Calculating analytic gradient of the SCF energy
 Gradient of SCF Energy
            1           2           3           4           5           6
    1   0.0002318  -0.0000079  -0.0000286  -0.0000156   0.0000203  -0.0000256
    2   0.0011569   0.0000103  -0.0001008  -0.0000016   0.0000104  -0.0000028
    3   0.0003840  -0.0000120  -0.0000280  -0.0000251  -0.0000088  -0.0000350
            7           8           9          10          11          12
    1  -0.0000075   0.0000524  -0.0000093   0.0000065  -0.0000139  -0.0002026
    2  -0.0000113   0.0000822   0.0000030  -0.0000033   0.0000075  -0.0011506
    3   0.0000091   0.0000834  -0.0000219  -0.0000073  -0.0000004  -0.0003380
 Max gradient component =       1.157E-03
 RMS gradient           =       2.912E-04
 Gradient time:  CPU 8.12 s  wall 0.71 s
 Geometry Optimization Parameters
   NAtoms,    NIC,     NZ,  NCons,   NDum,   NFix, NCnnct, MaxDiis
       12      70       0       1       0       0       0       0

 Cartesian Hessian Update
 Hessian Updated using BFGS Update


** CONSTRAINED OPTIMIZATION IN DELOCALIZED INTERNAL COORDINATES **
   Searching for a Minimum

   Optimization Cycle:   3

                       Coordinates (Angstroms)
     ATOM                X               Y               Z
      1  S         1.3687252737   -0.0850550603   -1.6965076877
      2  C        -0.9530684068   -0.0575219756   -0.0978282151
      3  C         0.2922868701   -0.7813588934   -0.5464617116
      4  C        -1.9631607351   -1.0093208649    0.5560501025
      5  H        -1.4195550996    0.4448650433   -0.9545595557
      6  H         2.0244143929    3.3176977869   -0.5967741072
      7  H        -0.6920205149    0.7442205220    0.6138166038
      8  H         0.7457169943   -1.5103890372    0.1261873684
      9  H        -2.8422548337   -0.4581400567    0.9045840176
     10  H        -2.2963838351   -1.7763974180   -0.1491679486
     11  H        -1.5209472255   -1.5167391776    1.4202053497
     12  H         1.9688451199    2.5919431317   -0.7565412161
   Point Group: c1    Number of degrees of freedom:    30


   Energy is   -517.218084529

              Constraints and their Current Values
                                        Value     Constraint
   Distance(Angs):        1  12             2.900000     2.900000
 Hessian Updated using BFGS Update

 28 Hessian modes will be used to form the next step
  Hessian Eigenvalues:
     0.015121    0.045000    0.045033    0.047942    0.072093    0.082257
     0.082851    0.083258    0.109962    0.136082    0.155157    0.159729
     0.160000    0.160217    0.192549    0.200001    0.219255    0.222440
     0.290388    0.314831    0.333218    0.333399    0.339876    0.342016
     0.342894    0.343594    0.347236    0.556524

 Minimum Search - Taking Simple RFO Step
 Searching for Lamda that Minimizes Along All modes
 Value Taken    Lamda =  -0.00000111
 Step Taken.  Stepsize is  0.008498

                             Maximum     Tolerance    Cnvgd?
         Gradient           0.000071      0.000300     YES
         Displacement       0.004509      0.001200      NO
         Energy change      0.000004      0.000001      NO


 New Cartesian Coordinates Obtained by Inverse Iteration

 Displacement from previous Coordinates is:  0.015018
 ----------------------------------------------------------------
             Standard Nuclear Orientation (Angstroms)
    I     Atom           X                Y                Z
 ----------------------------------------------------------------
    1      S       1.3708557817    -0.0863935291    -1.6950740696
    2      C      -0.9518954729    -0.0573752298    -0.0975404945
    3      C       0.2928158727    -0.7822293698    -0.5462696973
    4      C      -1.9629410473    -1.0084881539     0.5558607656
    5      H      -1.4177389831     0.4459582498    -0.9540628448
    6      H       2.0211184071     3.3186116021    -0.5971136689
    7      H      -0.6902580688     0.7437017385     0.6145933718
    8      H       0.7440534835    -1.5140492804     0.1247613980
    9      H      -2.8415050189    -0.4566131846     0.9046328289
   10      H      -2.2969903508    -1.7750068451    -0.1495889095
   11      H      -1.5211616136    -1.5166378849     1.4198090565
   12      H       1.9662450104     2.5923258870    -0.7570047362
 ----------------------------------------------------------------
 Nuclear Repulsion Energy =   155.0782998721 hartrees
 There are       22 alpha and       20 beta electrons

                       Distance Matrix (Angstroms)
             S (  1)   C (  2)   C (  3)   C (  4)   H (  5)   H (  6)
   C (  2)  2.819243
   C (  3)  1.722240  1.508668
   C (  4)  4.126884  1.534198  2.520778
   H (  5)  2.934068  1.097263  2.144933  2.166225
   H (  6)  3.636264  4.526110  4.450451  5.993819  4.495029
   H (  7)  3.204967  1.103319  2.154647  2.166412  1.754583  3.930643
   H (  8)  2.396431  2.246678  1.090623  2.787339  3.111083  5.050407
   H (  9)  4.963821  2.175860  3.469166  1.094570  2.509282  6.336614
   H ( 10)  4.323544  2.182257  2.801796  1.093983  2.520505  6.692630
   H ( 11)  4.484625  2.180794  2.774047  1.095350  3.081842  6.324189
   H ( 12)  2.900000  3.996418  3.772585  5.488896  4.012116  0.745699
             H (  7)   H (  8)   H (  9)   H ( 10)   H ( 11)
   H (  8)  2.719306
   H (  9)  2.480472  3.818717
   H ( 10)  3.083741  3.064525  1.773708
   H ( 11)  2.539273  2.609282  1.769849  1.769654
   H ( 12)  3.515068  4.374195  5.930559  6.133329  5.812410
 
 Applying Cartesian multipole field
    Component          Value
    ---------          -----
     (2,0,0)        1.00000E-11
     (0,2,0)        2.00000E-11
     (0,0,2)       -3.00000E-11
 Nucleus-field energy     =    -0.0000000002 hartrees
 Requested basis set is 6-31G(d,p)
 There are 41 shells and 104 basis functions
 A cutoff of  1.0D-14 yielded    788 shell pairs
 There are      5203 function pairs
 Smallest overlap matrix eigenvalue = 5.67E-03
 Guess from superposition of atomic densities
 Warning:  Energy on first SCF cycle will be non-variational
 SAD guess density has 42.000000 electrons

 -----------------------------------------------------------------------
  General SCF calculation program by
  Eric Jon Sundstrom, Paul Horn, Yuezhi Mao, Dmitri Zuev, Alec White,
  David Stuck, Shaama M.S., Shane Yost, Joonho Lee, David Small,
  Daniel Levine, Susi Lehtola, Hugh Burton, Evgeny Epifanovsky
 -----------------------------------------------------------------------
 Exchange:     0.2000 Hartree-Fock + 0.0800 Slater + 0.7200 B88
 Correlation:  0.1900 VWN1RPA + 0.8100 LYP
 Using SG-1 standard quadrature grid
 using 12 threads for integral computing
 -------------------------------------------------------
 OpenMP Integral computing Module                
 Release: version 1.0, May 2013, Q-Chem Inc. Pittsburgh 
 -------------------------------------------------------
 -------------------------------------------------------
 OpenMP BLAS3 based DFT computing Module                
 Release: version 1.0, May 2013, Q-Chem Inc. Pittsburgh 
 -------------------------------------------------------
 A unrestricted SCF calculation will be
 performed using DIIS
 SCF converges when DIIS error is below 1.0e-06
 Alpha HF Exchange    Energy =  -4.32396416735889
 Beta HF Exchange     Energy =  -4.32396416735889
 DFT Correlation      Energy =  -1.85922617453875
 DFT Exchange         Energy = -33.94902077259093
 One-Electron (alpha) Energy = -506.41504478349049
 One-Electron (beta)  Energy = -506.41504478349049
 Total Coulomb        Energy = 384.74616804772381
 ---------------------------------------
  Cycle       Energy         DIIS error
 ---------------------------------------
    1    -517.4617969292      2.87e-02  
 Alpha HF Exchange    Energy =  -4.45152191259375
 Beta HF Exchange     Energy =  -4.25765749552293
 DFT Correlation      Energy =  -1.87876861739081
 DFT Exchange         Energy = -34.55391460370288
 One-Electron (alpha) Energy = -522.27084707981192
 One-Electron (beta)  Energy = -496.28693222197018
 Total Coulomb        Energy = 391.50428211085887
    2    -517.1170599483      4.02e-03  
 Alpha HF Exchange    Energy =  -4.40550575710455
 Beta HF Exchange     Energy =  -4.20767607409220
 DFT Correlation      Energy =  -1.85359675454342
 DFT Exchange         Energy = -34.15160997364290
 One-Electron (alpha) Energy = -519.58652598597121
 One-Electron (beta)  Energy = -493.76488319496639
 Total Coulomb        Energy = 385.90142579762124
    3    -516.9900720708      5.96e-03  
 Alpha HF Exchange    Energy =  -4.42602142843827
 Beta HF Exchange     Energy =  -4.23183987531788
 DFT Correlation      Energy =  -1.86535671226577
 DFT Exchange         Energy = -34.32791096885327
 One-Electron (alpha) Energy = -520.90686266193757
 One-Electron (beta)  Energy = -494.79667001378311
 Total Coulomb        Energy = 388.26230159256568
    4    -517.2140601961      7.29e-04  
 Alpha HF Exchange    Energy =  -4.43054903202180
 Beta HF Exchange     Energy =  -4.23576879333115
 DFT Correlation      Energy =  -1.86613983566660
 DFT Exchange         Energy = -34.35973158541300
 One-Electron (alpha) Energy = -521.18203393330009
 One-Electron (beta)  Energy = -495.00259062408270
 Total Coulomb        Energy = 388.78125168191195
    5    -517.2172622500      3.49e-04  
 Alpha HF Exchange    Energy =  -4.43029254913218
 Beta HF Exchange     Energy =  -4.23536033679146
 DFT Correlation      Energy =  -1.86569208341707
 DFT Exchange         Energy = -34.35585856611507
 One-Electron (alpha) Energy = -521.15970066002956
 One-Electron (beta)  Energy = -494.94556028900018
 Total Coulomb        Energy = 388.69615794192060
    6    -517.2180066707      9.15e-05  
 Alpha HF Exchange    Energy =  -4.42982204007956
 Beta HF Exchange     Energy =  -4.23535661406197
 DFT Correlation      Energy =  -1.86547450787711
 DFT Exchange         Energy = -34.35328188094770
 One-Electron (alpha) Energy = -521.12585578548180
 One-Electron (beta)  Energy = -494.91726184798881
 Total Coulomb        Energy = 388.63067908053966
    7    -517.2180737240      3.31e-05  
 Alpha HF Exchange    Energy =  -4.42998593260031
 Beta HF Exchange     Energy =  -4.23550525883286
 DFT Correlation      Energy =  -1.86547810488262
 DFT Exchange         Energy = -34.35432821328445
 One-Electron (alpha) Energy = -521.13884108903062
 One-Electron (beta)  Energy = -494.92413947459420
 Total Coulomb        Energy = 388.65189436984519
    8    -517.2180838315      1.14e-05  
 Alpha HF Exchange    Energy =  -4.42999767432168
 Beta HF Exchange     Energy =  -4.23556966732054
 DFT Correlation      Energy =  -1.86546501098833
 DFT Exchange         Energy = -34.35454799306940
 One-Electron (alpha) Energy = -521.13954420145626
 One-Electron (beta)  Energy = -494.92493846020142
 Total Coulomb        Energy = 388.65367805043343
    9    -517.2180850850      5.29e-06  
 Alpha HF Exchange    Energy =  -4.42997605955466
 Beta HF Exchange     Energy =  -4.23556185252707
 DFT Correlation      Energy =  -1.86545386208643
 DFT Exchange         Energy = -34.35441114201249
 One-Electron (alpha) Energy = -521.13745633988685
 One-Electron (beta)  Energy = -494.92331458805756
 Total Coulomb        Energy = 388.64978866994306
   10    -517.2180853023      1.17e-06  
 Alpha HF Exchange    Energy =  -4.42997921058307
 Beta HF Exchange     Energy =  -4.23556615366896
 DFT Correlation      Energy =  -1.86545504722362
 DFT Exchange         Energy = -34.35444234662107
 One-Electron (alpha) Energy = -521.13777840686407
 One-Electron (beta)  Energy = -494.92377190438083
 Total Coulomb        Energy = 388.65060786525612
   11    -517.2180853322      4.21e-07  Convergence criterion met
 ---------------------------------------
 SCF time:   CPU 25.88s  wall 2.00s 
<S^2> =          2.005064021
 Alpha HF Exchange    Energy =  -4.42997921058307
 Beta HF Exchange     Energy =  -4.23556615366896
 DFT Correlation      Energy =  -1.86545504722362
 DFT Exchange         Energy = -34.35444234662107
 One-Electron (alpha) Energy = -521.13777840686407
 One-Electron (beta)  Energy = -494.92377190438083
 Total Coulomb        Energy = 388.65060786525612
 Nuclear repulsion Energy = 155.07829987188200
 SCF   energy in the final basis set =     -517.2180853322
 Total energy in the final basis set =     -517.2180853322
 
 --------------------------------------------------------------
 
                    Orbital Energies (a.u.)
 --------------------------------------------------------------
 
 Alpha MOs
 -- Occupied --
-88.911 -10.215 -10.204 -10.184  -7.971  -5.941  -5.931  -5.926
 -0.818  -0.752  -0.644  -0.575  -0.462  -0.437  -0.423  -0.422
 -0.372  -0.364  -0.350  -0.310  -0.295  -0.171
 -- Virtual --
  0.058   0.108   0.110   0.125   0.151   0.161   0.172   0.188
  0.225   0.237   0.305   0.362   0.380   0.399   0.498   0.518
  0.535   0.554   0.579   0.631   0.646   0.669   0.685   0.745
  0.767   0.802   0.828   0.833   0.860   0.884   0.889   0.912
  0.939   0.975   0.999   1.050   1.126   1.183   1.310   1.440
  1.553   1.600   1.670   1.686   1.686   1.762   1.822   1.856
  1.909   2.028   2.045   2.059   2.091   2.120   2.199   2.246
  2.270   2.368   2.386   2.413   2.435   2.520   2.618   2.623
  2.624   2.680   2.713   2.742   2.818   2.875   2.904   3.182
  3.274   3.303   3.403   3.460   3.523   3.897   4.150   4.208
  4.382   4.606
 
 Beta MOs
 -- Occupied --
-88.904 -10.203 -10.202 -10.184  -7.965  -5.927  -5.923  -5.919
 -0.796  -0.731  -0.629  -0.547  -0.452  -0.428  -0.421  -0.407
 -0.363  -0.355  -0.341  -0.271
 -- Virtual --
 -0.164  -0.040   0.078   0.112   0.116   0.131   0.154   0.164
  0.175   0.192   0.233   0.247   0.322   0.384   0.398   0.415
  0.508   0.535   0.543   0.559   0.621   0.642   0.661   0.682
  0.705   0.798   0.808   0.823   0.839   0.841   0.863   0.891
  0.897   0.926   0.942   0.988   1.026   1.071   1.129   1.191
  1.321   1.446   1.558   1.623   1.674   1.686   1.687   1.785
  1.826   1.884   1.921   2.045   2.060   2.064   2.094   2.123
  2.211   2.251   2.282   2.375   2.387   2.425   2.443   2.533
  2.624   2.624   2.630   2.684   2.720   2.745   2.821   2.877
  2.906   3.182   3.279   3.311   3.408   3.461   3.526   3.917
  4.151   4.231   4.389   4.610
 --------------------------------------------------------------
 
          Ground-State Mulliken Net Atomic Charges

     Atom                 Charge (a.u.)    Spin (a.u.)
  --------------------------------------------------------
      1 S                     0.090163       1.108611
      2 C                    -0.184641      -0.020037
      3 C                    -0.279247       0.829090
      4 C                    -0.316559       0.013734
      5 H                     0.113875       0.009787
      6 H                    -0.020413       0.006738
      7 H                     0.117267       0.049524
      8 H                     0.135922       0.001169
      9 H                     0.107194       0.002518
     10 H                     0.118068       0.001488
     11 H                     0.107772      -0.001057
     12 H                     0.010597      -0.001567
  --------------------------------------------------------
  Sum of atomic charges =    -0.000000
  Sum of spin   charges =     2.000000

 -----------------------------------------------------------------
                    Cartesian Multipole Moments
 -----------------------------------------------------------------
    Charge (ESU x 10^10)
                -0.0000
    Dipole Moment (Debye)
         X      -0.8118      Y      -0.2587      Z       0.9710
       Tot       1.2918
    Quadrupole Moments (Debye-Ang)
        XX     -34.4673     XY      -1.5205     YY     -34.7184
        XZ       0.8267     YZ      -1.2805     ZZ     -36.5177
    Octopole Moments (Debye-Ang^2)
       XXX      -8.1503    XXY       4.9844    XYY      -1.5564
       YYY      24.3557    XXZ      21.9172    XYZ      -0.0108
       YYZ      24.1875    XZZ      -3.7188    YZZ      10.7934
       ZZZ      71.5790
    Hexadecapole Moments (Debye-Ang^3)
      XXXX    -461.2629   XXXY     -78.9844   XXYY    -115.9172
      XYYY     -69.4702   YYYY    -222.6107   XXXZ     120.5877
      XXYZ       7.4179   XYYZ      43.5983   YYYZ      13.0059
      XXZZ    -126.7842   XYZZ     -22.5120   YYZZ     -91.8344
      XZZZ     127.1216   YZZZ       4.3502   ZZZZ    -318.7556
 -----------------------------------------------------------------
 Calculating analytic gradient of the SCF energy
 Gradient of SCF Energy
            1           2           3           4           5           6
    1   0.0002319  -0.0000205   0.0000020  -0.0000042   0.0000248   0.0000039
    2   0.0011494   0.0000295  -0.0000894   0.0000053   0.0000156   0.0003364
    3   0.0003691  -0.0000244   0.0000077  -0.0000229  -0.0000027   0.0000434
            7           8           9          10          11          12
    1  -0.0000179   0.0000359  -0.0000117  -0.0000052  -0.0000088  -0.0002302
    2  -0.0000317   0.0000700   0.0000015  -0.0000100   0.0000076  -0.0014842
    3   0.0000021   0.0000704  -0.0000232  -0.0000028  -0.0000018  -0.0004150
 Max gradient component =       1.484E-03
 RMS gradient           =       3.366E-04
 Gradient time:  CPU 8.17 s  wall 0.73 s
 Geometry Optimization Parameters
   NAtoms,    NIC,     NZ,  NCons,   NDum,   NFix, NCnnct, MaxDiis
       12      70       0       1       0       0       0       0

 Cartesian Hessian Update
 Hessian Updated using BFGS Update


** CONSTRAINED OPTIMIZATION IN DELOCALIZED INTERNAL COORDINATES **
   Searching for a Minimum

   Optimization Cycle:   4

                       Coordinates (Angstroms)
     ATOM                X               Y               Z
      1  S         1.3708557817   -0.0863935291   -1.6950740696
      2  C        -0.9518954729   -0.0573752298   -0.0975404945
      3  C         0.2928158727   -0.7822293698   -0.5462696973
      4  C        -1.9629410473   -1.0084881539    0.5558607656
      5  H        -1.4177389831    0.4459582498   -0.9540628448
      6  H         2.0211184071    3.3186116021   -0.5971136689
      7  H        -0.6902580688    0.7437017385    0.6145933718
      8  H         0.7440534835   -1.5140492804    0.1247613980
      9  H        -2.8415050189   -0.4566131846    0.9046328289
     10  H        -2.2969903508   -1.7750068451   -0.1495889095
     11  H        -1.5211616136   -1.5166378849    1.4198090565
     12  H         1.9662450104    2.5923258870   -0.7570047362
   Point Group: c1    Number of degrees of freedom:    30


   Energy is   -517.218085332

              Constraints and their Current Values
                                        Value     Constraint
   Distance(Angs):        1  12             2.900000     2.900000
 Hessian Updated using BFGS Update

 29 Hessian modes will be used to form the next step
  Hessian Eigenvalues:
     0.004569    0.045000    0.045051    0.048294    0.072336    0.082257
     0.082851    0.083267    0.109982    0.136223    0.155180    0.159753
     0.160000    0.160000    0.160536    0.191010    0.200001    0.219298
     0.222437    0.290388    0.314805    0.333236    0.333382    0.339878
     0.342016    0.342894    0.343595    0.347266    0.805815

 Minimum Search - Taking Simple RFO Step
 Searching for Lamda that Minimizes Along All modes
 Value Taken    Lamda =  -0.00000196
 Step Taken.  Stepsize is  0.019871

                             Maximum     Tolerance    Cnvgd?
         Gradient           0.000226      0.000300     YES
         Displacement       0.010126      0.001200      NO
         Energy change     -0.000001      0.000001     YES


                       Distance Matrix (Angstroms)
             S (  1)   C (  2)   C (  3)   C (  4)   H (  5)   H (  6)
   C (  2)  2.819243
   C (  3)  1.722240  1.508668
   C (  4)  4.126884  1.534198  2.520778
   H (  5)  2.934068  1.097263  2.144933  2.166225
   H (  6)  3.636264  4.526110  4.450451  5.993819  4.495029
   H (  7)  3.204967  1.103319  2.154647  2.166412  1.754583  3.930643
   H (  8)  2.396431  2.246678  1.090623  2.787339  3.111083  5.050407
   H (  9)  4.963821  2.175860  3.469166  1.094570  2.509282  6.336614
   H ( 10)  4.323544  2.182257  2.801796  1.093983  2.520505  6.692630
   H ( 11)  4.484625  2.180794  2.774047  1.095350  3.081842  6.324189
   H ( 12)  2.900000  3.996418  3.772585  5.488896  4.012116  0.745699
             H (  7)   H (  8)   H (  9)   H ( 10)   H ( 11)
   H (  8)  2.719306
   H (  9)  2.480472  3.818717
   H ( 10)  3.083741  3.064525  1.773708
   H ( 11)  2.539273  2.609282  1.769849  1.769654
   H ( 12)  3.515068  4.374195  5.930559  6.133329  5.812410
 
 Final energy is   -517.218085332204     


 ******************************
 **  OPTIMIZATION CONVERGED  **
 ******************************

                       Coordinates (Angstroms)
     ATOM                X               Y               Z
      1  S         1.3708557817   -0.0863935291   -1.6950740696
      2  C        -0.9518954729   -0.0573752298   -0.0975404945
      3  C         0.2928158727   -0.7822293698   -0.5462696973
      4  C        -1.9629410473   -1.0084881539    0.5558607656
      5  H        -1.4177389831    0.4459582498   -0.9540628448
      6  H         2.0211184071    3.3186116021   -0.5971136689
      7  H        -0.6902580688    0.7437017385    0.6145933718
      8  H         0.7440534835   -1.5140492804    0.1247613980
      9  H        -2.8415050189   -0.4566131846    0.9046328289
     10  H        -2.2969903508   -1.7750068451   -0.1495889095
     11  H        -1.5211616136   -1.5166378849    1.4198090565
     12  H         1.9662450104    2.5923258870   -0.7570047362

Z-matrix Print:
$molecule
0 3
S 
C  1 1.722240
H  2 1.090623 1 114.994885
C  2 1.508668 1 121.380331 3 154.910779 0
H  4 1.097263 2 109.784888 1 39.872637 0
H  4 1.103319 2 110.192405 1 -76.210479 0
C  4 1.534198 2 111.871367 1 161.903206 0
H  7 1.093983 4 111.159637 2 -61.648693 0
H  7 1.094570 4 110.615242 2 178.023718 0
H  7 1.095350 4 110.960641 2 58.382871 0
H  1 2.900000 2 106.615265 3 -104.334129 0
H  11 0.745699 1 169.773931 2 -95.107897 0
$end

PES scan, value:    2.9000 energy: -517.2180853322
------- Summary of potential scan: ------ 
    2.9000      -517.2180853322
----------------------------------------- 
Archival summary:
1\1\hpc0250\JobtypUnspecified\ProcedureUnspecified\6-31G**\138(3)\knomura\WedMar1322:44:202019WedMar1322:44:202019\0\\#,JobtypUnspecified,ProcedureUnspecified,6-31G**,\\0,3\S\C,1,1.72224\H,2,1.09062,1,114.995\C,2,1.50867,1,121.38,3,154.911,0\H,4,1.09726,2,109.785,1,39.8726,0\H,4,1.10332,2,110.192,1,-76.2105,0\C,4,1.5342,2,111.871,1,161.903,0\H,7,1.09398,4,111.16,2,-61.6487,0\H,7,1.09457,4,110.615,2,178.024,0\H,7,1.09535,4,110.961,2,58.3829,0\H,1,2.9,2,106.615,3,-104.334,0\H,11,0.745699,1,169.774,2,-95.1079,0\\\@

 Total job time:  13.82s(wall), 155.58s(cpu) 
 Wed Mar 13 22:44:20 2019

        *************************************************************
        *                                                           *
        *  Thank you very much for using Q-Chem.  Have a nice day.  *
        *                                                           *
        *************************************************************


