
Running Job 1 of 1 thiol/02/S-H.xyz.data/inputs/bond_triplet_3.2.in
qchem thiol/02/S-H.xyz.data/inputs/bond_triplet_3.2.in_25023.0 /staging/scratch/2868767/qchem25023/ 1
/usr/usc/qchem/5.1.1/exe/qcprog.exe_s thiol/02/S-H.xyz.data/inputs/bond_triplet_3.2.in_25023.0 /staging/scratch/2868767/qchem25023/
Check license passed

                  Welcome to Q-Chem
     A Quantum Leap Into The Future Of Chemistry


 Q-Chem 5.1, Q-Chem, Inc., Pleasanton, CA (2018)

 Yihan Shao,  Zhengting Gan,  E. Epifanovsky,  A. T. B. Gilbert,  M. Wormit,  
 J. Kussmann,  A. W. Lange,  A. Behn,  Jia Deng,  Xintian Feng,  D. Ghosh,  
 M. Goldey,  P. R. Horn,  L. D. Jacobson,  I. Kaliman,  T. Kus,  A. Landau,  
 Jie Liu,  E. I. Proynov,  R. M. Richard,  R. P. Steele,  E. J. Sundstrom,  
 H. L. Woodcock III,  P. M. Zimmerman,  D. Zuev,  B. Albrecht,  E. Alguire,  
 S. A. Baeppler,  D. Barton,  Z. Benda,  Y. A. Bernard,  E. J. Berquist,  
 K. B. Bravaya,  H. Burton,  D. Casanova,  Chun-Min Chang,  Yunqing Chen,  
 A. Chien,  K. D. Closser,  M. P. Coons,  S. Coriani,  S. Dasgupta,  
 A. L. Dempwolff,  M. Diedenhofen,  Hainam Do,  R. G. Edgar,  Po-Tung Fang,  
 S. Faraji,  S. Fatehi,  Qingguo Feng,  K. D. Fenk,  J. Fosso-Tande,  
 Qinghui Ge,  A. Ghysels,  G. Gidofalvi,  J. Gomes,  J. Gonthier,  A. Gunina,  
 D. Hait,  M. W. D. Hanson-Heine,  P. H. P. Harbach,  A. W. Hauser,  
 J. E. Herr,  E. G. Hohenstein,  Z. C. Holden,  Kerwin Hui,  B. C. Huynh,  
 T.-C. Jagau,  Hyunjun Ji,  B. Kaduk,  K. Khistyaev,  Jaehoon Kim,  
 P. Klunzinger,  K. Koh,  D. Kosenkov,  L. Koulias,  T. Kowalczyk,  
 C. M. Krauter,  A. Kunitsa,  Ka Un Lao,  A. Laurent,  K. V. Lawler,  
 Joonho Lee,  D. Lefrancois,  S. Lehtola,  D. S. Levine,  Yi-Pei Li,  
 You-Sheng Lin,  Fenglai Liu,  E. Livshits,  A. Luenser,  P. Manohar,  
 E. Mansoor,  S. F. Manzer,  Shan-Ping Mao,  Yuezhi Mao,  N. Mardirossian,  
 A. V. Marenich,  T. Markovich,  L. A. Martinez-Martinez,  S. A. Maurer,  
 N. J. Mayhall,  S. C. McKenzie,  J.-M. Mewes,  A. F. Morrison,  
 J. W. Mullinax,  K. Nanda,  T. S. Nguyen-Beck,  R. Olivares-Amaya,  
 J. A. Parkhill,  T. M. Perrine,  F. Plasser,  P. Pokhilko,  S. Prager,  
 A. Prociuk,  E. Ramos,  D. R. Rehn,  F. Rob,  M. Schneider,  N. Sergueev,  
 S. M. Sharada,  S. Sharma,  D. W. Small,  T. Stauch,  T. Stein,  
 Yu-Chuan Su,  A. J. W. Thom,  A. Tkatchenko,  T. Tsuchimochi,  N. M. Tubman,  
 L. Vogt,  M. L. Vidal,  O. Vydrov,  M. A. Watson,  J. Wenzel,  
 M. de Wergifosse,  T. A. Wesolowski,  A. White,  J. Witte,  A. Yamada,  
 Jun Yang,  K. Yao,  S. Yeganeh,  S. R. Yost,  Zhi-Qiang You,  A. Zech,  
 Igor Ying Zhang,  Xing Zhang,  Yan Zhao,  Ying Zhu,  B. R. Brooks,  
 G. K. L. Chan,  C. J. Cramer,  M. S. Gordon,  W. J. Hehre,  A. Klamt,  
 M. W. Schmidt,  C. D. Sherrill,  D. G. Truhlar,  A. Aspuru-Guzik,  R. Baer,  
 A. T. Bell,  N. A. Besley,  Jeng-Da Chai,  A. E. DePrince, III,  
 R. A. DiStasio Jr.,  A. Dreuw,  B. D. Dunietz,  T. R. Furlani,  
 Chao-Ping Hsu,  Yousung Jung,  Jing Kong,  D. S. Lambrecht,  WanZhen Liang,  
 C. Ochsenfeld,  V. A. Rassolov,  L. V. Slipchenko,  J. E. Subotnik,  
 T. Van Voorhis,  J. M. Herbert,  A. I. Krylov,  P. M. W. Gill,  M. Head-Gordon

 Contributors to earlier versions of Q-Chem not listed above: 
 R. D. Adamson,  B. Austin,  J. Baker,  G. J. O. Beran,  K. Brandhorst,  
 S. T. Brown,  E. F. C. Byrd,  A. K. Chakraborty,  C.-L. Cheng,  
 Siu Hung Chien,  D. M. Chipman,  D. L. Crittenden,  H. Dachsel,  
 R. J. Doerksen,  A. D. Dutoi,  L. Fusti-Molnar,  W. A. Goddard III,  
 A. Golubeva-Zadorozhnaya,  S. R. Gwaltney,  G. Hawkins,  A. Heyden,  
 S. Hirata,  G. Kedziora,  F. J. Keil,  C. Kelley,  Jihan Kim,  R. A. King,  
 R. Z. Khaliullin,  P. P. Korambath,  W. Kurlancheek,  A. M. Lee,  M. S. Lee,  
 S. V. Levchenko,  Ching Yeh Lin,  D. Liotard,  R. C. Lochan,  I. Lotan,  
 P. E. Maslen,  N. Nair,  D. P. O'Neill,  D. Neuhauser,  E. Neuscamman,  
 C. M. Oana,  R. Olson,  B. Peters,  R. Peverati,  P. A. Pieniazek,  
 Y. M. Rhee,  J. Ritchie,  M. A. Rohrdanz,  E. Rosta,  N. J. Russ,  
 H. F. Schaefer III,  N. E. Schultz,  N. Shenvi,  A. C. Simmonett,  A. Sodt,  
 D. Stuck,  K. S. Thanthiriwatte,  V. Vanovschi,  Tao Wang,  A. Warshel,  
 C. F. Williams,  Q. Wu,  X. Xu,  W. Zhang

 Please cite Q-Chem as follows:
 Y. Shao et al., Mol. Phys. 113, 184-215 (2015)
 DOI: 10.1080/00268976.2014.952696

 Q-Chem 5.1.1 for Intel X86 EM64T Linux

 Parts of Q-Chem use Armadillo 8.300.2 (Tropical Shenanigans).
 http://arma.sourceforge.net/

 Q-Chem begins on Wed Mar 13 22:43:14 2019  

Host: 
0

     Scratch files written to /staging/scratch/2868767/qchem25023//
 Aug318 |scratch|qcdevops|jenkins|workspace|build_RNUM 6013   
Processing $rem in /usr/usc/qchem/5.1.1/config/preferences.
 MEM_TOTAL  2000 
Input Ideriv = 2
Curr. Ideriv = -1
Max.  Ideriv = 2

Checking the input file for inconsistencies... 	...done.

--------------------------------------------------------------
User input:
--------------------------------------------------------------

$comment
potential surface scanner
$end

$rem
JOBTYPE  PES_SCAN
UNRESTRICTED TRUE
SYM_IGNORE  TRUE
GEOM_OPT_MAX_CYCLES 400
SCF_MAX_CYCLES 400
METHOD   B3LYP
BASIS   6-31G**
PDB_PRINT 2
SCF_CONVERGENCE 6
THRESH 14
SCF_PRINT 1
$end
$molecule
0 3
S 1.299269 -0.185641 -1.750382
C -0.992875 -0.108820 -0.111208
C 0.251245 -0.839681 -0.550975
C -1.994432 -1.046825 0.575031
H -1.468340 0.368551 -0.977308
H 2.229415 3.564491 -0.603903
H -0.729158 0.713067 0.576226
H 0.718925 -1.543495 0.138332
H -2.871955 -0.489787 0.918197
H -2.331516 -1.831219 -0.108967
H -1.543331 -1.532906 1.446858
H 2.145353 2.836066 -0.728899
$end
$scan
stre 1 12 3.200000 3.201000 0.100000
$end
--------------------------------------------------------------
 ----------------------------------------------------------------
             Standard Nuclear Orientation (Angstroms)
    I     Atom           X                Y                Z
 ----------------------------------------------------------------
    1      S       1.2992690000    -0.1856410000    -1.7503820000
    2      C      -0.9928750000    -0.1088200000    -0.1112080000
    3      C       0.2512450000    -0.8396810000    -0.5509750000
    4      C      -1.9944320000    -1.0468250000     0.5750310000
    5      H      -1.4683400000     0.3685510000    -0.9773080000
    6      H       2.2294150000     3.5644910000    -0.6039030000
    7      H      -0.7291580000     0.7130670000     0.5762260000
    8      H       0.7189250000    -1.5434950000     0.1383320000
    9      H      -2.8719550000    -0.4897870000     0.9181970000
   10      H      -2.3315160000    -1.8312190000    -0.1089670000
   11      H      -1.5433310000    -1.5329060000     1.4468580000
   12      H       2.1453530000     2.8360660000    -0.7288990000
 ----------------------------------------------------------------
 Nuclear Repulsion Energy =   154.1234819059 hartrees
 There are       22 alpha and       20 beta electrons
 Requested basis set is 6-31G(d,p)
 There are 41 shells and 104 basis functions

 Total QAlloc Memory Limit   2000 MB
 Mega-Array Size       188 MB
 MEM_STATIC part       192 MB
A total of 1 constraints
  
            1
    1   1.0100000
    2   1.0100000
    3  12.0100000
    4   3.2000000
    5   3.2010000
    6   0.1000000
    7   0.0000000
    8   0.0000000
    9   0.0000000
   10   0.0000000

                       Distance Matrix (Angstroms)
             S (  1)   C (  2)   C (  3)   C (  4)   H (  5)   H (  6)
   C (  2)  2.818992
   C (  3)  1.721830  1.508439
   C (  4)  4.122821  1.534240  2.520687
   H (  5)  2.926505  1.097305  2.144425  2.165599
   H (  6)  4.030270  4.911122  4.828322  6.363569  4.901720
   H (  7)  3.214856  1.103454  2.154715  2.167519  1.754579  4.275100
   H (  8)  2.397458  2.247403  1.090515  2.792793  3.112025  5.378105
   H (  9)  4.961142  2.176178  3.469189  1.094578  2.509944  6.691632
   H ( 10)  4.311006  2.181427  2.801638  1.093962  2.517554  7.082425
   H ( 11)  4.485292  2.181420  2.773518  1.095376  3.081841  6.665035
   H ( 12)  3.300000  4.347686  4.138891  5.823650  4.382820  0.743837
             H (  7)   H (  8)   H (  9)   H ( 10)   H ( 11)
   H (  8)  2.716757
   H (  9)  2.481004  3.822684
   H ( 10)  3.083899  3.073944  1.773860
   H ( 11)  2.542690  2.613456  1.769978  1.769412
   H ( 12)  3.804378  4.686933  6.240801  6.496939  6.117861
 
 A cutoff of  1.0D-14 yielded    778 shell pairs
 There are      5154 function pairs
 
 -------------------------------------------------------
 OpenMP Integral Computing Module                       
 Release: version 1.0, May 2013, Q-Chem Inc. Pittsburgh 
 -------------------------------------------------------
 Integral Job Info:
 Integral job number is                      11
 Integral operator is                         1
 short-range coefficients                     0
 long-range coefficients              100000000
 Omega coefficients                           0
 if combine SR and LR in K                    0
 Integral screening is                        0
 Integral computing path is                   2
 max size of driver memory is            800000
 size of driver memory is                593474
 size of scratch memory is             15267112
 max col of scratch BK array               1296
 max len of scratch array in speh3          155
 max len of scratch index in speh4           18
 max int batch size is                      520
 min int batch size is                       52
 fixed nKL is                                52
 max L of basis functions is                  2
 order of int derivative is                   0
 number of shells is                         41
 number of basis is                         104
 number of cartesian basis is               104
 number of contracted shell pairs           778
 number of primitive shell pairs           2755
 maxK2 (contraction) of shell pair           36
 max number of K2 of shell pair               1
 max number of CS2 of shell pair             74
 max number of PS2 of shell pair            240
 mem total for path MDJ                  513890
 -------------------------------------------------------
 Smallest overlap matrix eigenvalue = 5.69E-03

 Scale SEOQF with 1.000000e-01/1.000000e-01/1.000000e-01

 Standard Electronic Orientation quadrupole field applied
 Nucleus-field energy     =    -0.0000000002 hartrees
 Guess from superposition of atomic densities
 Warning:  Energy on first SCF cycle will be non-variational
 SAD guess density has 42.000000 electrons

 -----------------------------------------------------------------------
  General SCF calculation program by
  Eric Jon Sundstrom, Paul Horn, Yuezhi Mao, Dmitri Zuev, Alec White,
  David Stuck, Shaama M.S., Shane Yost, Joonho Lee, David Small,
  Daniel Levine, Susi Lehtola, Hugh Burton, Evgeny Epifanovsky
 -----------------------------------------------------------------------
 Exchange:     0.2000 Hartree-Fock + 0.0800 Slater + 0.7200 B88
 Correlation:  0.1900 VWN1RPA + 0.8100 LYP
 Using SG-1 standard quadrature grid
 using 12 threads for integral computing
 -------------------------------------------------------
 OpenMP Integral computing Module                
 Release: version 1.0, May 2013, Q-Chem Inc. Pittsburgh 
 -------------------------------------------------------
 -------------------------------------------------------
 OpenMP BLAS3 based DFT computing Module                
 Release: version 1.0, May 2013, Q-Chem Inc. Pittsburgh 
 -------------------------------------------------------
 A unrestricted SCF calculation will be
 performed using DIIS
 SCF converges when DIIS error is below 1.0e-06
 Alpha HF Exchange    Energy =  -4.32360595841684
 Beta HF Exchange     Energy =  -4.32360595841684
 DFT Correlation      Energy =  -1.85824229160482
 DFT Exchange         Energy = -33.94860003249649
 One-Electron (alpha) Energy = -505.45923787516028
 One-Electron (beta)  Energy = -505.45923787516028
 Total Coulomb        Energy = 383.79039438865902
 ---------------------------------------
  Cycle       Energy         DIIS error
 ---------------------------------------
    1    -517.4586536969      2.87e-02  
 Alpha HF Exchange    Energy =  -4.45173018781174
 Beta HF Exchange     Energy =  -4.25782935107703
 DFT Correlation      Energy =  -1.87808311436542
 DFT Exchange         Energy = -34.55515769458793
 One-Electron (alpha) Energy = -521.32424579343740
 One-Electron (beta)  Energy = -495.36831721022963
 Total Coulomb        Energy = 390.59444355373643
    2    -517.1174378921      4.02e-03  
 Alpha HF Exchange    Energy =  -4.40524889899689
 Beta HF Exchange     Energy =  -4.20755297720019
 DFT Correlation      Energy =  -1.85270898263023
 DFT Exchange         Energy = -34.14978819792867
 One-Electron (alpha) Energy = -518.60057837045201
 One-Electron (beta)  Energy = -492.81620431883221
 Total Coulomb        Energy = 384.91706714615009
    3    -516.9915326942      5.95e-03  
 Alpha HF Exchange    Energy =  -4.42588753917806
 Beta HF Exchange     Energy =  -4.23185157560399
 DFT Correlation      Energy =  -1.86454896343754
 DFT Exchange         Energy = -34.32729728145488
 One-Electron (alpha) Energy = -519.93683296579195
 One-Electron (beta)  Energy = -493.86891320153308
 Total Coulomb        Energy = 387.31736188140667
    4    -517.2144877399      7.27e-04  
 Alpha HF Exchange    Energy =  -4.43044320484028
 Beta HF Exchange     Energy =  -4.23577897708809
 DFT Correlation      Energy =  -1.86534554776365
 DFT Exchange         Energy = -34.35925517295397
 One-Electron (alpha) Energy = -520.21153334185283
 One-Electron (beta)  Energy = -494.07363058857533
 Total Coulomb        Energy = 387.83482947105642
    5    -517.2176754563      3.47e-04  
 Alpha HF Exchange    Energy =  -4.43018792852482
 Beta HF Exchange     Energy =  -4.23537607912336
 DFT Correlation      Energy =  -1.86490146717550
 DFT Exchange         Energy = -34.35541867402703
 One-Electron (alpha) Energy = -520.18962423750099
 One-Electron (beta)  Energy = -494.01763069030989
 Total Coulomb        Energy = 387.75124816629352
    6    -517.2184090047      9.17e-05  
 Alpha HF Exchange    Energy =  -4.42971437787200
 Beta HF Exchange     Energy =  -4.23536783277659
 DFT Correlation      Energy =  -1.86468302630890
 DFT Exchange         Energy = -34.35281681019175
 One-Electron (alpha) Energy = -520.15591639005447
 One-Electron (beta)  Energy = -493.98969120282777
 Total Coulomb        Energy = 387.68623152422458
    7    -517.2184762101      3.29e-05  
 Alpha HF Exchange    Energy =  -4.42987524303924
 Beta HF Exchange     Energy =  -4.23551495894006
 DFT Correlation      Energy =  -1.86468553646829
 DFT Exchange         Energy = -34.35384486086603
 One-Electron (alpha) Energy = -520.16858892318010
 One-Electron (beta)  Energy = -493.99633408490917
 Total Coulomb        Energy = 387.70687545229407
    8    -517.2184862494      1.14e-05  
 Alpha HF Exchange    Energy =  -4.42988729822040
 Beta HF Exchange     Energy =  -4.23557898537171
 DFT Correlation      Energy =  -1.86467258663919
 DFT Exchange         Energy = -34.35406533036795
 One-Electron (alpha) Energy = -520.16930422504345
 One-Electron (beta)  Energy = -493.99715053088710
 Total Coulomb        Energy = 387.70868953364516
    9    -517.2184875172      5.29e-06  
 Alpha HF Exchange    Energy =  -4.42986601693780
 Beta HF Exchange     Energy =  -4.23557123840850
 DFT Correlation      Energy =  -1.86466148153766
 DFT Exchange         Energy = -34.35393013792101
 One-Electron (alpha) Energy = -520.16725738395940
 One-Electron (beta)  Energy = -493.99556766581986
 Total Coulomb        Energy = 387.70488427468081
   10    -517.2184877442      1.20e-06  
 Alpha HF Exchange    Energy =  -4.42986913232618
 Beta HF Exchange     Energy =  -4.23557545183006
 DFT Correlation      Energy =  -1.86466264140253
 DFT Exchange         Energy = -34.35396081687908
 One-Electron (alpha) Energy = -520.16757328487881
 One-Electron (beta)  Energy = -493.99602426172157
 Total Coulomb        Energy = 387.70569590181168
   11    -517.2184877815      4.64e-07  Convergence criterion met
 ---------------------------------------
 SCF time:   CPU 25.93s  wall 2.00s 
<S^2> =          2.005071351
 Alpha HF Exchange    Energy =  -4.42986913232618
 Beta HF Exchange     Energy =  -4.23557545183006
 DFT Correlation      Energy =  -1.86466264140253
 DFT Exchange         Energy = -34.35396081687908
 One-Electron (alpha) Energy = -520.16757328487881
 One-Electron (beta)  Energy = -493.99602426172157
 Total Coulomb        Energy = 387.70569590181168
 Nuclear repulsion Energy = 154.12348190571581
 SCF   energy in the final basis set =     -517.2184877815
 Total energy in the final basis set =     -517.2184877815
 
 --------------------------------------------------------------
 
                    Orbital Energies (a.u.)
 --------------------------------------------------------------
 
 Alpha MOs
 -- Occupied --
-88.910 -10.214 -10.203 -10.184  -7.970  -5.941  -5.931  -5.926
 -0.818  -0.752  -0.644  -0.574  -0.462  -0.436  -0.424  -0.422
 -0.372  -0.364  -0.350  -0.309  -0.295  -0.170
 -- Virtual --
  0.059   0.101   0.110   0.125   0.151   0.161   0.173   0.189
  0.225   0.235   0.302   0.363   0.380   0.384   0.498   0.518
  0.535   0.554   0.578   0.628   0.633   0.666   0.681   0.738
  0.766   0.805   0.828   0.832   0.859   0.883   0.890   0.912
  0.938   0.970   0.999   1.050   1.101   1.184   1.310   1.441
  1.554   1.597   1.670   1.682   1.683   1.761   1.822   1.857
  1.909   2.029   2.045   2.060   2.090   2.120   2.199   2.246
  2.271   2.369   2.385   2.413   2.434   2.522   2.618   2.622
  2.623   2.680   2.714   2.742   2.817   2.875   2.904   3.182
  3.274   3.304   3.403   3.460   3.524   3.896   4.157   4.208
  4.383   4.606
 
 Beta MOs
 -- Occupied --
-88.904 -10.203 -10.202 -10.183  -7.964  -5.927  -5.923  -5.919
 -0.796  -0.731  -0.629  -0.547  -0.452  -0.427  -0.424  -0.407
 -0.363  -0.355  -0.340  -0.271
 -- Virtual --
 -0.164  -0.039   0.078   0.104   0.115   0.131   0.153   0.164
  0.176   0.193   0.233   0.246   0.319   0.385   0.392   0.406
  0.508   0.535   0.543   0.559   0.615   0.633   0.651   0.680
  0.703   0.794   0.809   0.824   0.839   0.841   0.862   0.890
  0.897   0.927   0.941   0.982   1.026   1.070   1.105   1.192
  1.321   1.447   1.559   1.621   1.674   1.683   1.683   1.783
  1.827   1.885   1.921   2.045   2.060   2.065   2.093   2.124
  2.211   2.251   2.283   2.375   2.386   2.424   2.443   2.534
  2.623   2.623   2.630   2.685   2.721   2.745   2.821   2.877
  2.906   3.183   3.279   3.311   3.408   3.461   3.526   3.917
  4.157   4.230   4.390   4.609
 --------------------------------------------------------------
 
          Ground-State Mulliken Net Atomic Charges

     Atom                 Charge (a.u.)    Spin (a.u.)
  --------------------------------------------------------
      1 S                     0.087388       1.110876
      2 C                    -0.184297      -0.020287
      3 C                    -0.280155       0.829847
      4 C                    -0.316053       0.014104
      5 H                     0.113358       0.009250
      6 H                    -0.016803       0.003009
      7 H                     0.116573       0.049770
      8 H                     0.135771       0.000720
      9 H                     0.106911       0.002773
     10 H                     0.118022       0.001499
     11 H                     0.107655      -0.001079
     12 H                     0.011629      -0.000482
  --------------------------------------------------------
  Sum of atomic charges =    -0.000000
  Sum of spin   charges =     2.000000

 -----------------------------------------------------------------
                    Cartesian Multipole Moments
 -----------------------------------------------------------------
    Charge (ESU x 10^10)
                -0.0000
    Dipole Moment (Debye)
         X      -0.7838      Y      -0.1814      Z       0.9882
       Tot       1.2743
    Quadrupole Moments (Debye-Ang)
        XX     -34.3608     XY      -1.3829     YY     -34.6613
        XZ       0.8559     YZ      -1.3962     ZZ     -36.5175
    Octopole Moments (Debye-Ang^2)
       XXX      -4.3044    XXY       6.9773    XYY       0.3234
       YYY      30.8068    XXZ      22.5843    XYZ       0.0117
       YYZ      25.0917    XZZ      -2.3852    YZZ      12.7766
       ZZZ      73.4359
    Hexadecapole Moments (Debye-Ang^3)
      XXXX    -464.4171   XXXY     -83.9023   XXYY    -119.1518
      XYYY     -71.7593   YYYY    -243.2573   XXXZ     120.3125
      XXYZ       5.7452   XYYZ      43.2588   YYYZ       6.2926
      XXZZ    -129.8838   XYZZ     -24.6587   YYZZ     -99.9151
      XZZZ     125.9849   YZZZ      -2.3596   ZZZZ    -333.9965
 -----------------------------------------------------------------
 Calculating analytic gradient of the SCF energy
 Gradient of SCF Energy
            1           2           3           4           5           6
    1   0.0000687   0.0000128   0.0000328  -0.0000125   0.0000197  -0.0000278
    2   0.0001022  -0.0000221   0.0000464  -0.0000050  -0.0000344   0.0000305
    3   0.0000574   0.0000082   0.0000522  -0.0000253  -0.0000373  -0.0000565
            7           8           9          10          11          12
    1  -0.0000385   0.0000081  -0.0000036   0.0000111  -0.0000081  -0.0000626
    2   0.0000211   0.0000030  -0.0000107  -0.0000142  -0.0000074  -0.0001092
    3  -0.0000255   0.0000346  -0.0000253  -0.0000184  -0.0000128   0.0000488
 Max gradient component =       1.092E-04
 RMS gradient           =       3.999E-05
 Gradient time:  CPU 7.66 s  wall 0.64 s
 Geometry Optimization Parameters
   NAtoms,    NIC,     NZ,  NCons,   NDum,   NFix, NCnnct, MaxDiis
       12      70       0       1       0       0       0       0


** CONSTRAINED OPTIMIZATION IN DELOCALIZED INTERNAL COORDINATES **
   Searching for a Minimum

   Optimization Cycle:   1

                       Coordinates (Angstroms)
     ATOM                X               Y               Z
      1  S         1.2992690000   -0.1856410000   -1.7503820000
      2  C        -0.9928750000   -0.1088200000   -0.1112080000
      3  C         0.2512450000   -0.8396810000   -0.5509750000
      4  C        -1.9944320000   -1.0468250000    0.5750310000
      5  H        -1.4683400000    0.3685510000   -0.9773080000
      6  H         2.2294150000    3.5644910000   -0.6039030000
      7  H        -0.7291580000    0.7130670000    0.5762260000
      8  H         0.7189250000   -1.5434950000    0.1383320000
      9  H        -2.8719550000   -0.4897870000    0.9181970000
     10  H        -2.3315160000   -1.8312190000   -0.1089670000
     11  H        -1.5433310000   -1.5329060000    1.4468580000
     12  H         2.1453530000    2.8360660000   -0.7288990000
   Point Group: c1    Number of degrees of freedom:    30


   Energy is   -517.218487782

              Constraints and their Current Values
                                        Value     Constraint
   Distance(Angs):        1  12             3.300000     3.200000

 Attempting to Generate Delocalized Internal Coordinates

   Using Lagrange Multiplier Algorithm


 31 Hessian modes will be used to form the next step
  Hessian Eigenvalues:
    -0.995012    0.045000    0.045000    0.045000    0.048106    0.072071
     0.082252    0.082889    0.083219    0.109967    0.136150    0.155434
     0.160000    0.160000    0.160000    0.160000    0.200000    0.200000
     0.219239    0.222297    0.290353    0.315079    0.333030    0.333861
     0.339819    0.341987    0.342889    0.343588    0.347532    0.386256
     1.005013

 Minimum Search - Taking P-RFO Step
 Searching for Lamda that Maximizes Along the Constraint modes Only
 Value Taken    Lamda =   0.01774300
 Searching for Lamda that Minimizes Along All other modes
 Value Taken    Lamda =  -0.01735319
 Step Taken.  Stepsize is  0.185715

                             Maximum     Tolerance    Cnvgd?
         Gradient            0.188972       0.000300      NO
         Displacement        0.185713       0.001200      NO
         Energy change     *********       0.000001      NO


 New Cartesian Coordinates Obtained by Inverse Iteration

 Displacement from previous Coordinates is:  0.213791
 ----------------------------------------------------------------
             Standard Nuclear Orientation (Angstroms)
    I     Atom           X                Y                Z
 ----------------------------------------------------------------
    1      S       1.3084874018    -0.1550296674    -1.7415521601
    2      C      -0.9883163710    -0.0961837883    -0.1082363626
    3      C       0.2601598670    -0.8195121310    -0.5481490659
    4      C      -1.9875274470    -1.0417776002     0.5709707692
    5      H      -1.4636060920     0.3831884047    -0.9733236809
    6      H       2.1943259515     3.5032841884    -0.6039993862
    7      H      -0.7299921312     0.7235702615     0.5837736069
    8      H       0.7291385942    -1.5244656583     0.1391074840
    9      H      -2.8684638936    -0.4902332332     0.9142745169
   10      H      -2.3192653815    -1.8245118072    -0.1175259827
   11      H      -1.5366275195    -1.5298298201     1.4417989622
   12      H       2.1142870214     2.7753018510    -0.7341367008
 ----------------------------------------------------------------
 Nuclear Repulsion Energy =   154.3377568872 hartrees
 There are       22 alpha and       20 beta electrons

                       Distance Matrix (Angstroms)
             S (  1)   C (  2)   C (  3)   C (  4)   H (  5)   H (  6)
   C (  2)  2.818952
   C (  3)  1.721842  1.508450
   C (  4)  4.122839  1.534240  2.520700
   H (  5)  2.926492  1.097303  2.144442  2.165610
   H (  6)  3.932175  4.830234  4.736104  6.286974  4.822019
   H (  7)  3.214728  1.103452  2.154705  2.167490  1.754594  4.205859
   H (  8)  2.397474  2.247403  1.090515  2.792806  3.112037  5.289353
   H (  9)  4.961119  2.176180  3.469207  1.094581  2.509884  6.624589
   H ( 10)  4.311058  2.181428  2.801588  1.093961  2.517634  6.999612
   H ( 11)  4.485363  2.181421  2.773606  1.095375  3.081848  6.590716
   H ( 12)  3.201725  4.273562  4.049082  5.753111  4.310538  0.743842
             H (  7)   H (  8)   H (  9)   H ( 10)   H ( 11)
   H (  8)  2.716699
   H (  9)  2.481050  3.822730
   H ( 10)  3.083883  3.073866  1.773846
   H ( 11)  2.542574  2.613567  1.769981  1.769422
   H ( 12)  3.746520  4.600999  6.181326  6.418324  6.049631
 
 Applying Cartesian multipole field
    Component          Value
    ---------          -----
     (2,0,0)        1.00000E-11
     (0,2,0)        2.00000E-11
     (0,0,2)       -3.00000E-11
 Nucleus-field energy     =    -0.0000000002 hartrees
 Requested basis set is 6-31G(d,p)
 There are 41 shells and 104 basis functions
 A cutoff of  1.0D-14 yielded    778 shell pairs
 There are      5154 function pairs
 Smallest overlap matrix eigenvalue = 5.68E-03
 Guess from superposition of atomic densities
 Warning:  Energy on first SCF cycle will be non-variational
 SAD guess density has 42.000000 electrons

 -----------------------------------------------------------------------
  General SCF calculation program by
  Eric Jon Sundstrom, Paul Horn, Yuezhi Mao, Dmitri Zuev, Alec White,
  David Stuck, Shaama M.S., Shane Yost, Joonho Lee, David Small,
  Daniel Levine, Susi Lehtola, Hugh Burton, Evgeny Epifanovsky
 -----------------------------------------------------------------------
 Exchange:     0.2000 Hartree-Fock + 0.0800 Slater + 0.7200 B88
 Correlation:  0.1900 VWN1RPA + 0.8100 LYP
 Using SG-1 standard quadrature grid
 using 12 threads for integral computing
 -------------------------------------------------------
 OpenMP Integral computing Module                
 Release: version 1.0, May 2013, Q-Chem Inc. Pittsburgh 
 -------------------------------------------------------
 -------------------------------------------------------
 OpenMP BLAS3 based DFT computing Module                
 Release: version 1.0, May 2013, Q-Chem Inc. Pittsburgh 
 -------------------------------------------------------
 A unrestricted SCF calculation will be
 performed using DIIS
 SCF converges when DIIS error is below 1.0e-06
 Alpha HF Exchange    Energy =  -4.32366903277634
 Beta HF Exchange     Energy =  -4.32366903277634
 DFT Correlation      Energy =  -1.85843065575548
 DFT Exchange         Energy = -33.94865816407835
 One-Electron (alpha) Energy = -505.67351666260817
 One-Electron (beta)  Energy = -505.67351666260817
 Total Coulomb        Energy = 384.00455809036549
 ---------------------------------------
  Cycle       Energy         DIIS error
 ---------------------------------------
    1    -517.4591452333      2.87e-02  
 Alpha HF Exchange    Energy =  -4.45169422492204
 Beta HF Exchange     Energy =  -4.25781284668736
 DFT Correlation      Energy =  -1.87821566736760
 DFT Exchange         Energy = -34.55496885961251
 One-Electron (alpha) Energy = -521.53837340608356
 One-Electron (beta)  Energy = -495.57380100694138
 Total Coulomb        Energy = 390.79970876871113
    2    -517.1174003560      4.02e-03  
 Alpha HF Exchange    Energy =  -4.40529297623639
 Beta HF Exchange     Energy =  -4.20757702186527
 DFT Correlation      Energy =  -1.85288237178848
 DFT Exchange         Energy = -34.15011139754094
 One-Electron (alpha) Energy = -518.82183597311257
 One-Electron (beta)  Energy = -493.02762761968830
 Total Coulomb        Energy = 385.13629841776424
    3    -516.9912720555      5.96e-03  
 Alpha HF Exchange    Energy =  -4.42591635616322
 Beta HF Exchange     Energy =  -4.23185985201417
 DFT Correlation      Energy =  -1.86470813940034
 DFT Exchange         Energy = -34.32744343415052
 One-Electron (alpha) Energy = -520.15544505844377
 One-Electron (beta)  Energy = -494.07601588540695
 Total Coulomb        Energy = 387.52918348159710
    4    -517.2144483570      7.28e-04  
 Alpha HF Exchange    Energy =  -4.43046732619770
 Beta HF Exchange     Energy =  -4.23578644078503
 DFT Correlation      Energy =  -1.86550165197663
 DFT Exchange         Energy = -34.35937364089676
 One-Electron (alpha) Energy = -520.43034674940998
 One-Electron (beta)  Energy = -494.28094883717051
 Total Coulomb        Energy = 388.04703010247005
    5    -517.2176376570      3.47e-04  
 Alpha HF Exchange    Energy =  -4.43021140308472
 Beta HF Exchange     Energy =  -4.23538190166578
 DFT Correlation      Energy =  -1.86505679620115
 DFT Exchange         Energy = -34.35552589878432
 One-Electron (alpha) Energy = -520.40832642245005
 One-Electron (beta)  Energy = -494.22471114200857
 Total Coulomb        Energy = 387.96308363570824
    6    -517.2183730415      9.17e-05  
 Alpha HF Exchange    Energy =  -4.42973854904706
 Beta HF Exchange     Energy =  -4.23537441249095
 DFT Correlation      Energy =  -1.86483875218520
 DFT Exchange         Energy = -34.35292914449769
 One-Electron (alpha) Energy = -520.37459305855577
 One-Electron (beta)  Energy = -494.19669185952671
 Total Coulomb        Energy = 387.89796866789379
    7    -517.2184402215      3.29e-05  
 Alpha HF Exchange    Energy =  -4.42990015183686
 Beta HF Exchange     Energy =  -4.23552180909942
 DFT Correlation      Energy =  -1.86484148363677
 DFT Exchange         Energy = -34.35396119304239
 One-Electron (alpha) Energy = -520.38733607216102
 One-Electron (beta)  Energy = -494.20337626383821
 Total Coulomb        Energy = 387.91872981260610
    8    -517.2184502741      1.14e-05  
 Alpha HF Exchange    Energy =  -4.42991214095249
 Beta HF Exchange     Energy =  -4.23558589458572
 DFT Correlation      Energy =  -1.86482851703646
 DFT Exchange         Energy = -34.35418145465165
 One-Electron (alpha) Energy = -520.38804873267065
 One-Electron (beta)  Energy = -494.20418688929300
 Total Coulomb        Energy = 387.92053520270372
    9    -517.2184515395      5.29e-06  
 Alpha HF Exchange    Energy =  -4.42989079888462
 Beta HF Exchange     Energy =  -4.23557812406297
 DFT Correlation      Energy =  -1.86481741014069
 DFT Exchange         Energy = -34.35404591789388
 One-Electron (alpha) Energy = -520.38599431157309
 One-Electron (beta)  Energy = -494.20259603821398
 Total Coulomb        Energy = 387.91671394898356
   10    -517.2184517648      1.20e-06  
 Alpha HF Exchange    Energy =  -4.42989392366121
 Beta HF Exchange     Energy =  -4.23558235629861
 DFT Correlation      Energy =  -1.86481857519222
 DFT Exchange         Energy = -34.35407671342779
 One-Electron (alpha) Energy = -520.38631155373355
 One-Electron (beta)  Energy = -494.20305304063368
 Total Coulomb        Energy = 387.91752747518001
   11    -517.2184518008      4.57e-07  Convergence criterion met
 ---------------------------------------
 SCF time:   CPU 25.54s  wall 3.00s 
<S^2> =          2.005072100
 Alpha HF Exchange    Energy =  -4.42989392366121
 Beta HF Exchange     Energy =  -4.23558235629861
 DFT Correlation      Energy =  -1.86481857519222
 DFT Exchange         Energy = -34.35407671342779
 One-Electron (alpha) Energy = -520.38631155373355
 One-Electron (beta)  Energy = -494.20305304063368
 Total Coulomb        Energy = 387.91752747518001
 Nuclear repulsion Energy = 154.33775688693893
 SCF   energy in the final basis set =     -517.2184518008
 Total energy in the final basis set =     -517.2184518008
 
 --------------------------------------------------------------
 
                    Orbital Energies (a.u.)
 --------------------------------------------------------------
 
 Alpha MOs
 -- Occupied --
-88.910 -10.214 -10.204 -10.184  -7.970  -5.941  -5.931  -5.926
 -0.818  -0.752  -0.644  -0.574  -0.462  -0.436  -0.424  -0.422
 -0.372  -0.364  -0.350  -0.310  -0.295  -0.171
 -- Virtual --
  0.059   0.103   0.110   0.125   0.151   0.161   0.173   0.189
  0.225   0.236   0.303   0.363   0.380   0.387   0.498   0.518
  0.535   0.554   0.578   0.630   0.637   0.666   0.682   0.739
  0.766   0.805   0.828   0.832   0.859   0.884   0.890   0.912
  0.938   0.970   0.999   1.050   1.108   1.184   1.310   1.441
  1.554   1.598   1.670   1.683   1.683   1.761   1.822   1.857
  1.909   2.029   2.045   2.059   2.090   2.120   2.199   2.246
  2.271   2.369   2.386   2.413   2.434   2.522   2.618   2.623
  2.623   2.680   2.714   2.742   2.817   2.875   2.904   3.182
  3.274   3.304   3.403   3.460   3.524   3.896   4.158   4.208
  4.383   4.606
 
 Beta MOs
 -- Occupied --
-88.904 -10.203 -10.202 -10.183  -7.964  -5.927  -5.923  -5.919
 -0.796  -0.731  -0.629  -0.547  -0.452  -0.428  -0.423  -0.407
 -0.363  -0.355  -0.340  -0.271
 -- Virtual --
 -0.164  -0.039   0.078   0.106   0.115   0.131   0.153   0.164
  0.176   0.193   0.233   0.246   0.319   0.385   0.395   0.407
  0.508   0.535   0.543   0.559   0.617   0.636   0.653   0.680
  0.704   0.794   0.808   0.824   0.839   0.840   0.862   0.890
  0.897   0.927   0.941   0.983   1.026   1.070   1.111   1.192
  1.321   1.447   1.559   1.621   1.674   1.683   1.684   1.783
  1.826   1.885   1.921   2.045   2.060   2.065   2.093   2.124
  2.211   2.251   2.283   2.375   2.387   2.424   2.443   2.534
  2.623   2.624   2.630   2.685   2.721   2.745   2.821   2.877
  2.906   3.183   3.279   3.311   3.408   3.461   3.526   3.917
  4.158   4.230   4.390   4.609
 --------------------------------------------------------------
 
          Ground-State Mulliken Net Atomic Charges

     Atom                 Charge (a.u.)    Spin (a.u.)
  --------------------------------------------------------
      1 S                     0.087991       1.110511
      2 C                    -0.184323      -0.020256
      3 C                    -0.280073       0.829793
      4 C                    -0.316079       0.014105
      5 H                     0.113411       0.009252
      6 H                    -0.018101       0.003527
      7 H                     0.116703       0.049718
      8 H                     0.135831       0.000736
      9 H                     0.106950       0.002772
     10 H                     0.118034       0.001501
     11 H                     0.107673      -0.001079
     12 H                     0.011983      -0.000581
  --------------------------------------------------------
  Sum of atomic charges =     0.000000
  Sum of spin   charges =     2.000000

 -----------------------------------------------------------------
                    Cartesian Multipole Moments
 -----------------------------------------------------------------
    Charge (ESU x 10^10)
                 0.0000
    Dipole Moment (Debye)
         X      -0.7903      Y      -0.2019      Z       0.9839
       Tot       1.2781
    Quadrupole Moments (Debye-Ang)
        XX     -34.3659     XY      -1.4208     YY     -34.7042
        XZ       0.8585     YZ      -1.3621     ZZ     -36.5062
    Octopole Moments (Debye-Ang^2)
       XXX      -4.8483    XXY       6.3931    XYY      -0.0531
       YYY      29.0058    XXZ      22.4735    XYZ       0.0141
       YYZ      24.9187    XZZ      -2.5882    YZZ      12.1985
       ZZZ      73.0824
    Hexadecapole Moments (Debye-Ang^3)
      XXXX    -463.0295   XXXY     -83.4801   XXYY    -118.2469
      XYYY     -71.8973   YYYY    -237.7904   XXXZ     120.1532
      XXYZ       6.3599   XYYZ      43.3096   YYYZ       8.5387
      XXZZ    -129.2327   XYZZ     -24.4139   YYZZ     -98.0345
      XZZZ     125.9912   YZZZ      -0.1495   ZZZZ    -331.3015
 -----------------------------------------------------------------
 Calculating analytic gradient of the SCF energy
 Gradient of SCF Energy
            1           2           3           4           5           6
    1   0.0000796   0.0000190   0.0000472  -0.0000259   0.0000171  -0.0000562
    2   0.0002228  -0.0000294   0.0000488  -0.0000142  -0.0000354  -0.0001311
    3   0.0000930   0.0000086   0.0000456  -0.0000177  -0.0000395  -0.0000941
            7           8           9          10          11          12
    1  -0.0000382   0.0000078  -0.0000070   0.0000278  -0.0000120  -0.0000594
    2   0.0000293   0.0000077  -0.0000094  -0.0000037  -0.0000093  -0.0000761
    3  -0.0000194   0.0000380  -0.0000280  -0.0000222  -0.0000110   0.0000468
 Max gradient component =       2.228E-04
 RMS gradient           =       5.879E-05
 Gradient time:  CPU 7.65 s  wall 0.64 s
 Geometry Optimization Parameters
   NAtoms,    NIC,     NZ,  NCons,   NDum,   NFix, NCnnct, MaxDiis
       12      70       0       1       0       0       0       0

 Cartesian Hessian Update
 Hessian Updated using BFGS Update


** CONSTRAINED OPTIMIZATION IN DELOCALIZED INTERNAL COORDINATES **
   Searching for a Minimum

   Optimization Cycle:   2

                       Coordinates (Angstroms)
     ATOM                X               Y               Z
      1  S         1.3084874018   -0.1550296674   -1.7415521601
      2  C        -0.9883163710   -0.0961837883   -0.1082363626
      3  C         0.2601598670   -0.8195121310   -0.5481490659
      4  C        -1.9875274470   -1.0417776002    0.5709707692
      5  H        -1.4636060920    0.3831884047   -0.9733236809
      6  H         2.1943259515    3.5032841884   -0.6039993862
      7  H        -0.7299921312    0.7235702615    0.5837736069
      8  H         0.7291385942   -1.5244656583    0.1391074840
      9  H        -2.8684638936   -0.4902332332    0.9142745169
     10  H        -2.3192653815   -1.8245118072   -0.1175259827
     11  H        -1.5366275195   -1.5298298201    1.4417989622
     12  H         2.1142870214    2.7753018510   -0.7341367008
   Point Group: c1    Number of degrees of freedom:    30


   Energy is   -517.218451801

              Constraints and their Current Values
                                        Value     Constraint
   Distance(Angs):        1  12             3.201725     3.200000
 Hessian Updated using BFGS Update

   Using Lagrange Multiplier Algorithm


 28 Hessian modes will be used to form the next step
  Hessian Eigenvalues:
    -0.999635    0.044998    0.045021    0.048111    0.072087    0.082252
     0.082889    0.083224    0.109967    0.136150    0.155435    0.159999
     0.160039    0.199977    0.200010    0.219240    0.222296    0.290353
     0.315079    0.333034    0.333864    0.339819    0.341987    0.342889
     0.343591    0.347532    0.387374    1.000366

 Minimum Search - Taking P-RFO Step
 Searching for Lamda that Maximizes Along the Constraint modes Only
 Value Taken    Lamda =   0.00000127
 Searching for Lamda that Minimizes Along All other modes
 Value Taken    Lamda =  -0.00001236
 Step Taken.  Stepsize is  0.003528

                             Maximum     Tolerance    Cnvgd?
         Gradient            0.003259       0.000300      NO
         Displacement        0.003259       0.001200      NO
         Energy change      0.000036       0.000001      NO


 New Cartesian Coordinates Obtained by Inverse Iteration

 Displacement from previous Coordinates is:  0.004110
 ----------------------------------------------------------------
             Standard Nuclear Orientation (Angstroms)
    I     Atom           X                Y                Z
 ----------------------------------------------------------------
    1      S       1.3087332098    -0.1545177519    -1.7414611650
    2      C      -0.9882646492    -0.0960677192    -0.1084777227
    3      C       0.2602403045    -0.8193773833    -0.5483725980
    4      C      -1.9873577622    -1.0415970471     0.5709787749
    5      H      -1.4636134537     0.3833066476    -0.9735236924
    6      H       2.1936343019     3.5023336697    -0.6033699763
    7      H      -0.7298552952     0.7236511014     0.5835134114
    8      H       0.7292696953    -1.5242089665     0.1389747469
    9      H      -2.8683149283    -0.4900320592     0.9141947261
   10      H      -2.3191762246    -1.8246060793    -0.1171889517
   11      H      -1.5363269439    -1.5293109129     1.4419271775
   12      H       2.1136317456     2.7742275008    -0.7341927308
 ----------------------------------------------------------------
 Nuclear Repulsion Energy =   154.3406007990 hartrees
 There are       22 alpha and       20 beta electrons

                       Distance Matrix (Angstroms)
             S (  1)   C (  2)   C (  3)   C (  4)   H (  5)   H (  6)
   C (  2)  2.818909
   C (  3)  1.721870  1.508459
   C (  4)  4.122924  1.534234  2.520719
   H (  5)  2.926583  1.097297  2.144499  2.165675
   H (  6)  3.930759  4.828860  4.734789  6.285467  4.820872
   H (  7)  3.214425  1.103434  2.154621  2.167388  1.754594  4.204350
   H (  8)  2.397472  2.247386  1.090515  2.792778  3.112074  5.287870
   H (  9)  4.961130  2.176156  3.469212  1.094581  2.509858  6.623090
   H ( 10)  4.311517  2.181570  2.801748  1.093975  2.517971  6.998437
   H ( 11)  4.485352  2.181356  2.773617  1.095374  3.081849  6.588877
   H ( 12)  3.200000  4.272221  4.047664  5.751704  4.309346  0.744079
             H (  7)   H (  8)   H (  9)   H ( 10)   H ( 11)
   H (  8)  2.716530
   H (  9)  2.481005  3.822709
   H ( 10)  3.083916  3.073903  1.773808
   H ( 11)  2.542264  2.613549  1.769970  1.769434
   H ( 12)  3.745214  4.599504  6.179997  6.417145  6.047986
 
 Applying Cartesian multipole field
    Component          Value
    ---------          -----
     (2,0,0)        1.00000E-11
     (0,2,0)        2.00000E-11
     (0,0,2)       -3.00000E-11
 Nucleus-field energy     =    -0.0000000002 hartrees
 Requested basis set is 6-31G(d,p)
 There are 41 shells and 104 basis functions
 A cutoff of  1.0D-14 yielded    778 shell pairs
 There are      5154 function pairs
 Smallest overlap matrix eigenvalue = 5.68E-03
 Guess from superposition of atomic densities
 Warning:  Energy on first SCF cycle will be non-variational
 SAD guess density has 42.000000 electrons

 -----------------------------------------------------------------------
  General SCF calculation program by
  Eric Jon Sundstrom, Paul Horn, Yuezhi Mao, Dmitri Zuev, Alec White,
  David Stuck, Shaama M.S., Shane Yost, Joonho Lee, David Small,
  Daniel Levine, Susi Lehtola, Hugh Burton, Evgeny Epifanovsky
 -----------------------------------------------------------------------
 Exchange:     0.2000 Hartree-Fock + 0.0800 Slater + 0.7200 B88
 Correlation:  0.1900 VWN1RPA + 0.8100 LYP
 Using SG-1 standard quadrature grid
 using 12 threads for integral computing
 -------------------------------------------------------
 OpenMP Integral computing Module                
 Release: version 1.0, May 2013, Q-Chem Inc. Pittsburgh 
 -------------------------------------------------------
 -------------------------------------------------------
 OpenMP BLAS3 based DFT computing Module                
 Release: version 1.0, May 2013, Q-Chem Inc. Pittsburgh 
 -------------------------------------------------------
 A unrestricted SCF calculation will be
 performed using DIIS
 SCF converges when DIIS error is below 1.0e-06
 Alpha HF Exchange    Energy =  -4.32366249047058
 Beta HF Exchange     Energy =  -4.32366249047058
 DFT Correlation      Energy =  -1.85843241165488
 DFT Exchange         Energy = -33.94863958935306
 One-Electron (alpha) Energy = -505.67647561041565
 One-Electron (beta)  Energy = -505.67647561041565
 Total Coulomb        Energy = 384.00760042709743
 ---------------------------------------
  Cycle       Energy         DIIS error
 ---------------------------------------
    1    -517.4591469769      2.87e-02  
 Alpha HF Exchange    Energy =  -4.45168292781807
 Beta HF Exchange     Energy =  -4.25780177111050
 DFT Correlation      Energy =  -1.87821442839951
 DFT Exchange         Energy = -34.55488811093933
 One-Electron (alpha) Energy = -521.54112715621295
 One-Electron (beta)  Energy = -495.57657104913415
 Total Coulomb        Energy = 390.80228221291839
    2    -517.1174024319      4.02e-03  
 Alpha HF Exchange    Energy =  -4.40528599777855
 Beta HF Exchange     Energy =  -4.20756907060862
 DFT Correlation      Energy =  -1.85288229559083
 DFT Exchange         Energy = -34.15006041389190
 One-Electron (alpha) Energy = -518.82481357389395
 One-Electron (beta)  Energy = -493.03062380772519
 Total Coulomb        Energy = 385.13937784407830
    3    -516.9912565167      5.96e-03  
 Alpha HF Exchange    Energy =  -4.42590810153729
 Beta HF Exchange     Energy =  -4.23185128054695
 DFT Correlation      Energy =  -1.86470764832833
 DFT Exchange         Energy = -34.32738306595510
 One-Electron (alpha) Energy = -520.15829949400177
 One-Electron (beta)  Energy = -494.07885363471178
 Total Coulomb        Energy = 387.53195497544277
    4    -517.2144474509      7.28e-04  
 Alpha HF Exchange    Energy =  -4.43045922416344
 Beta HF Exchange     Energy =  -4.23577813730368
 DFT Correlation      Energy =  -1.86550112270927
 DFT Exchange         Energy = -34.35931450830360
 One-Electron (alpha) Energy = -520.43323187420128
 One-Electron (beta)  Energy = -494.28382076921775
 Total Coulomb        Energy = 388.04986798352729
    5    -517.2176368536      3.47e-04  
 Alpha HF Exchange    Energy =  -4.43020324265669
 Beta HF Exchange     Energy =  -4.23537353518874
 DFT Correlation      Energy =  -1.86505623696651
 DFT Exchange         Energy = -34.35546623960031
 One-Electron (alpha) Energy = -520.41120493918174
 One-Electron (beta)  Energy = -494.22757623031561
 Total Coulomb        Energy = 387.96590728845950
    6    -517.2183723367      9.17e-05  
 Alpha HF Exchange    Energy =  -4.42973035870608
 Beta HF Exchange     Energy =  -4.23536608408871
 DFT Correlation      Energy =  -1.86483817909916
 DFT Exchange         Energy = -34.35286943812611
 One-Electron (alpha) Energy = -520.37746740286502
 One-Electron (beta)  Energy = -494.19955575322746
 Total Coulomb        Energy = 387.90078689122851
    7    -517.2184395261      3.29e-05  
 Alpha HF Exchange    Energy =  -4.42989196782585
 Beta HF Exchange     Energy =  -4.23551350575106
 DFT Correlation      Energy =  -1.86484091291452
 DFT Exchange         Energy = -34.35390159393929
 One-Electron (alpha) Energy = -520.39021053271711
 One-Electron (beta)  Energy = -494.20624135531716
 Total Coulomb        Energy = 387.92154948937764
    8    -517.2184495803      1.14e-05  
 Alpha HF Exchange    Energy =  -4.42990395218796
 Beta HF Exchange     Energy =  -4.23557759591603
 DFT Correlation      Energy =  -1.86482794354649
 DFT Exchange         Energy = -34.35412184294503
 One-Electron (alpha) Energy = -520.39092289037990
 One-Electron (beta)  Energy = -494.20705224081047
 Total Coulomb        Energy = 387.92335482101595
    9    -517.2184508460      5.29e-06  
 Alpha HF Exchange    Energy =  -4.42988260696883
 Beta HF Exchange     Energy =  -4.23556982629222
 DFT Correlation      Energy =  -1.86481683657666
 DFT Exchange         Energy = -34.35398629736194
 One-Electron (alpha) Energy = -520.38886815666706
 One-Electron (beta)  Energy = -494.20546132006535
 Total Coulomb        Energy = 387.91953317382780
   10    -517.2184510713      1.20e-06  
 Alpha HF Exchange    Energy =  -4.42988573183208
 Beta HF Exchange     Energy =  -4.23557405965672
 DFT Correlation      Energy =  -1.86481800178203
 DFT Exchange         Energy = -34.35401709768974
 One-Electron (alpha) Energy = -520.38918543001694
 One-Electron (beta)  Energy = -494.20591839851858
 Total Coulomb        Energy = 387.92034681338748
   11    -517.2184511074      4.57e-07  Convergence criterion met
 ---------------------------------------
 SCF time:   CPU 24.47s  wall 2.00s 
<S^2> =          2.005071715
 Alpha HF Exchange    Energy =  -4.42988573183208
 Beta HF Exchange     Energy =  -4.23557405965672
 DFT Correlation      Energy =  -1.86481800178203
 DFT Exchange         Energy = -34.35401709768974
 One-Electron (alpha) Energy = -520.38918543001694
 One-Electron (beta)  Energy = -494.20591839851858
 Total Coulomb        Energy = 387.92034681338748
 Nuclear repulsion Energy = 154.34060079875869
 SCF   energy in the final basis set =     -517.2184511074
 Total energy in the final basis set =     -517.2184511074
 
 --------------------------------------------------------------
 
                    Orbital Energies (a.u.)
 --------------------------------------------------------------
 
 Alpha MOs
 -- Occupied --
-88.910 -10.214 -10.204 -10.184  -7.970  -5.941  -5.931  -5.926
 -0.818  -0.752  -0.644  -0.574  -0.462  -0.436  -0.424  -0.422
 -0.372  -0.364  -0.350  -0.310  -0.295  -0.171
 -- Virtual --
  0.059   0.103   0.110   0.125   0.151   0.161   0.173   0.189
  0.225   0.236   0.303   0.363   0.380   0.387   0.498   0.518
  0.535   0.554   0.578   0.630   0.637   0.666   0.682   0.739
  0.766   0.805   0.828   0.832   0.859   0.884   0.890   0.912
  0.938   0.970   0.999   1.050   1.108   1.184   1.310   1.441
  1.554   1.598   1.670   1.683   1.683   1.761   1.822   1.857
  1.909   2.029   2.045   2.059   2.090   2.120   2.199   2.246
  2.271   2.369   2.386   2.413   2.434   2.522   2.618   2.623
  2.623   2.680   2.714   2.742   2.817   2.875   2.904   3.182
  3.274   3.304   3.403   3.460   3.524   3.896   4.156   4.208
  4.383   4.606
 
 Beta MOs
 -- Occupied --
-88.904 -10.203 -10.202 -10.183  -7.964  -5.927  -5.923  -5.919
 -0.796  -0.731  -0.629  -0.547  -0.452  -0.428  -0.423  -0.407
 -0.363  -0.355  -0.340  -0.271
 -- Virtual --
 -0.164  -0.039   0.078   0.106   0.115   0.131   0.153   0.164
  0.176   0.193   0.233   0.246   0.319   0.385   0.395   0.407
  0.508   0.535   0.543   0.559   0.617   0.636   0.653   0.680
  0.704   0.794   0.808   0.824   0.839   0.840   0.862   0.890
  0.897   0.927   0.941   0.983   1.026   1.070   1.111   1.192
  1.321   1.447   1.559   1.621   1.674   1.683   1.684   1.783
  1.826   1.885   1.921   2.045   2.060   2.065   2.093   2.124
  2.211   2.251   2.283   2.375   2.386   2.424   2.443   2.534
  2.623   2.623   2.630   2.685   2.721   2.745   2.821   2.877
  2.906   3.183   3.279   3.311   3.408   3.461   3.526   3.917
  4.157   4.230   4.390   4.609
 --------------------------------------------------------------
 
          Ground-State Mulliken Net Atomic Charges

     Atom                 Charge (a.u.)    Spin (a.u.)
  --------------------------------------------------------
      1 S                     0.087987       1.110498
      2 C                    -0.184337      -0.020244
      3 C                    -0.280046       0.829788
      4 C                    -0.316084       0.014102
      5 H                     0.113418       0.009253
      6 H                    -0.018125       0.003540
      7 H                     0.116716       0.049716
      8 H                     0.135827       0.000742
      9 H                     0.106953       0.002766
     10 H                     0.118030       0.001501
     11 H                     0.107675      -0.001079
     12 H                     0.011987      -0.000583
  --------------------------------------------------------
  Sum of atomic charges =    -0.000000
  Sum of spin   charges =     2.000000

 -----------------------------------------------------------------
                    Cartesian Multipole Moments
 -----------------------------------------------------------------
    Charge (ESU x 10^10)
                 0.0000
    Dipole Moment (Debye)
         X      -0.7905      Y      -0.2021      Z       0.9841
       Tot       1.2784
    Quadrupole Moments (Debye-Ang)
        XX     -34.3660     XY      -1.4213     YY     -34.7060
        XZ       0.8590     YZ      -1.3617     ZZ     -36.5069
    Octopole Moments (Debye-Ang^2)
       XXX      -4.8627    XXY       6.3827    XYY      -0.0619
       YYY      28.9762    XXZ      22.4745    XYZ       0.0147
       YYZ      24.9214    XZZ      -2.5937    YZZ      12.1903
       ZZZ      73.0872
    Hexadecapole Moments (Debye-Ang^3)
      XXXX    -463.0127   XXXY     -83.4698   XXYY    -118.2347
      XYYY     -71.8968   YYYY    -237.7203   XXXZ     120.1554
      XXYZ       6.3673   XYYZ      43.3171   YYYZ       8.5771
      XXZZ    -129.2310   XYZZ     -24.4097   YYZZ     -98.0159
      XZZZ     126.0002   YZZZ      -0.1258   ZZZZ    -331.2919
 -----------------------------------------------------------------
 Calculating analytic gradient of the SCF energy
 Gradient of SCF Energy
            1           2           3           4           5           6
    1   0.0000843   0.0000125   0.0000450  -0.0000139   0.0000178  -0.0000385
    2   0.0002306  -0.0000162   0.0000395  -0.0000088  -0.0000310   0.0000310
    3   0.0000900   0.0000004   0.0000578  -0.0000198  -0.0000354  -0.0000645
            7           8           9          10          11          12
    1  -0.0000360   0.0000087  -0.0000076   0.0000138  -0.0000088  -0.0000774
    2   0.0000150   0.0000104  -0.0000116  -0.0000142  -0.0000043  -0.0002404
    3  -0.0000215   0.0000379  -0.0000309  -0.0000184  -0.0000117   0.0000162
 Max gradient component =       2.404E-04
 RMS gradient           =       6.568E-05
 Gradient time:  CPU 8.24 s  wall 0.73 s
 Geometry Optimization Parameters
   NAtoms,    NIC,     NZ,  NCons,   NDum,   NFix, NCnnct, MaxDiis
       12      70       0       1       0       0       0       0

 Cartesian Hessian Update
 Hessian Updated using BFGS Update


** CONSTRAINED OPTIMIZATION IN DELOCALIZED INTERNAL COORDINATES **
   Searching for a Minimum

   Optimization Cycle:   3

                       Coordinates (Angstroms)
     ATOM                X               Y               Z
      1  S         1.3087332098   -0.1545177519   -1.7414611650
      2  C        -0.9882646492   -0.0960677192   -0.1084777227
      3  C         0.2602403045   -0.8193773833   -0.5483725980
      4  C        -1.9873577622   -1.0415970471    0.5709787749
      5  H        -1.4636134537    0.3833066476   -0.9735236924
      6  H         2.1936343019    3.5023336697   -0.6033699763
      7  H        -0.7298552952    0.7236511014    0.5835134114
      8  H         0.7292696953   -1.5242089665    0.1389747469
      9  H        -2.8683149283   -0.4900320592    0.9141947261
     10  H        -2.3191762246   -1.8246060793   -0.1171889517
     11  H        -1.5363269439   -1.5293109129    1.4419271775
     12  H         2.1136317456    2.7742275008   -0.7341927308
   Point Group: c1    Number of degrees of freedom:    30


   Energy is   -517.218451107

              Constraints and their Current Values
                                        Value     Constraint
   Distance(Angs):        1  12             3.200000     3.200000
 Hessian Updated using BFGS Update

 28 Hessian modes will be used to form the next step
  Hessian Eigenvalues:
     0.023103    0.045005    0.045024    0.046834    0.069837    0.082149
     0.082711    0.083127    0.109947    0.121677    0.136421    0.155442
     0.160000    0.161109    0.164970    0.200007    0.219258    0.222315
     0.290313    0.314981    0.333209    0.333482    0.339798    0.341989
     0.342888    0.343709    0.347527    0.552396

 Minimum Search - Taking Simple RFO Step
 Searching for Lamda that Minimizes Along All modes
 Value Taken    Lamda =   0.00000000
 Step Taken.  Stepsize is  0.003691

                             Maximum     Tolerance    Cnvgd?
         Gradient           0.000079      0.000300     YES
         Displacement       0.001711      0.001200      NO
         Energy change      0.000001      0.000001     YES


                       Distance Matrix (Angstroms)
             S (  1)   C (  2)   C (  3)   C (  4)   H (  5)   H (  6)
   C (  2)  2.818909
   C (  3)  1.721870  1.508459
   C (  4)  4.122924  1.534234  2.520719
   H (  5)  2.926583  1.097297  2.144499  2.165675
   H (  6)  3.930759  4.828860  4.734789  6.285467  4.820872
   H (  7)  3.214425  1.103434  2.154621  2.167388  1.754594  4.204350
   H (  8)  2.397472  2.247386  1.090515  2.792778  3.112074  5.287870
   H (  9)  4.961130  2.176156  3.469212  1.094581  2.509858  6.623090
   H ( 10)  4.311517  2.181570  2.801748  1.093975  2.517971  6.998437
   H ( 11)  4.485352  2.181356  2.773617  1.095374  3.081849  6.588877
   H ( 12)  3.200000  4.272221  4.047664  5.751704  4.309346  0.744079
             H (  7)   H (  8)   H (  9)   H ( 10)   H ( 11)
   H (  8)  2.716530
   H (  9)  2.481005  3.822709
   H ( 10)  3.083916  3.073903  1.773808
   H ( 11)  2.542264  2.613549  1.769970  1.769434
   H ( 12)  3.745214  4.599504  6.179997  6.417145  6.047986
 
 Final energy is   -517.218451107350     


 ******************************
 **  OPTIMIZATION CONVERGED  **
 ******************************

                       Coordinates (Angstroms)
     ATOM                X               Y               Z
      1  S         1.3087332098   -0.1545177519   -1.7414611650
      2  C        -0.9882646492   -0.0960677192   -0.1084777227
      3  C         0.2602403045   -0.8193773833   -0.5483725980
      4  C        -1.9873577622   -1.0415970471    0.5709787749
      5  H        -1.4636134537    0.3833066476   -0.9735236924
      6  H         2.1936343019    3.5023336697   -0.6033699763
      7  H        -0.7298552952    0.7236511014    0.5835134114
      8  H         0.7292696953   -1.5242089665    0.1389747469
      9  H        -2.8683149283   -0.4900320592    0.9141947261
     10  H        -2.3191762246   -1.8246060793   -0.1171889517
     11  H        -1.5363269439   -1.5293109129    1.4419271775
     12  H         2.1136317456    2.7742275008   -0.7341927308

Z-matrix Print:
$molecule
0 3
S 
C  1 1.721870
H  2 1.090515 1 115.112692
C  2 1.508459 1 121.392964 3 155.469372 0
H  4 1.097297 2 109.762984 1 38.662375 0
H  4 1.103434 2 110.197981 1 -77.399836 0
C  4 1.534234 2 111.876924 1 160.620927 0
H  7 1.093975 4 111.102632 2 -61.751529 0
H  7 1.094581 4 110.635540 2 177.934164 0
H  7 1.095374 4 111.001408 2 58.243124 0
H  1 3.200000 2 106.765396 3 -100.805558 0
H  11 0.744079 1 167.951935 2 -101.364993 0
$end

PES scan, value:    3.2000 energy: -517.2184511074
------- Summary of potential scan: ------ 
    3.2000      -517.2184511074
----------------------------------------- 
Archival summary:
1\1\hpc0250\JobtypUnspecified\ProcedureUnspecified\6-31G**\138(3)\knomura\WedMar1322:43:252019WedMar1322:43:252019\0\\#,JobtypUnspecified,ProcedureUnspecified,6-31G**,\\0,3\S\C,1,1.72187\H,2,1.09051,1,115.113\C,2,1.50846,1,121.393,3,155.469,0\H,4,1.0973,2,109.763,1,38.6624,0\H,4,1.10343,2,110.198,1,-77.3998,0\C,4,1.53423,2,111.877,1,160.621,0\H,7,1.09398,4,111.103,2,-61.7515,0\H,7,1.09458,4,110.636,2,177.934,0\H,7,1.09537,4,111.001,2,58.2431,0\H,1,3.2,2,106.765,3,-100.806,0\H,11,0.744079,1,167.952,2,-101.365,0\\\@

 Total job time:  11.79s(wall), 114.35s(cpu) 
 Wed Mar 13 22:43:25 2019

        *************************************************************
        *                                                           *
        *  Thank you very much for using Q-Chem.  Have a nice day.  *
        *                                                           *
        *************************************************************


