
Running Job 1 of 1 thiol/02/S-H.xyz.data/inputs/bond_singlet_1.1.in
qchem thiol/02/S-H.xyz.data/inputs/bond_singlet_1.1.in_23130.0 /staging/scratch/2868767/qchem23130/ 1
/usr/usc/qchem/5.1.1/exe/qcprog.exe_s thiol/02/S-H.xyz.data/inputs/bond_singlet_1.1.in_23130.0 /staging/scratch/2868767/qchem23130/
Check license passed

                  Welcome to Q-Chem
     A Quantum Leap Into The Future Of Chemistry


 Q-Chem 5.1, Q-Chem, Inc., Pleasanton, CA (2018)

 Yihan Shao,  Zhengting Gan,  E. Epifanovsky,  A. T. B. Gilbert,  M. Wormit,  
 J. Kussmann,  A. W. Lange,  A. Behn,  Jia Deng,  Xintian Feng,  D. Ghosh,  
 M. Goldey,  P. R. Horn,  L. D. Jacobson,  I. Kaliman,  T. Kus,  A. Landau,  
 Jie Liu,  E. I. Proynov,  R. M. Richard,  R. P. Steele,  E. J. Sundstrom,  
 H. L. Woodcock III,  P. M. Zimmerman,  D. Zuev,  B. Albrecht,  E. Alguire,  
 S. A. Baeppler,  D. Barton,  Z. Benda,  Y. A. Bernard,  E. J. Berquist,  
 K. B. Bravaya,  H. Burton,  D. Casanova,  Chun-Min Chang,  Yunqing Chen,  
 A. Chien,  K. D. Closser,  M. P. Coons,  S. Coriani,  S. Dasgupta,  
 A. L. Dempwolff,  M. Diedenhofen,  Hainam Do,  R. G. Edgar,  Po-Tung Fang,  
 S. Faraji,  S. Fatehi,  Qingguo Feng,  K. D. Fenk,  J. Fosso-Tande,  
 Qinghui Ge,  A. Ghysels,  G. Gidofalvi,  J. Gomes,  J. Gonthier,  A. Gunina,  
 D. Hait,  M. W. D. Hanson-Heine,  P. H. P. Harbach,  A. W. Hauser,  
 J. E. Herr,  E. G. Hohenstein,  Z. C. Holden,  Kerwin Hui,  B. C. Huynh,  
 T.-C. Jagau,  Hyunjun Ji,  B. Kaduk,  K. Khistyaev,  Jaehoon Kim,  
 P. Klunzinger,  K. Koh,  D. Kosenkov,  L. Koulias,  T. Kowalczyk,  
 C. M. Krauter,  A. Kunitsa,  Ka Un Lao,  A. Laurent,  K. V. Lawler,  
 Joonho Lee,  D. Lefrancois,  S. Lehtola,  D. S. Levine,  Yi-Pei Li,  
 You-Sheng Lin,  Fenglai Liu,  E. Livshits,  A. Luenser,  P. Manohar,  
 E. Mansoor,  S. F. Manzer,  Shan-Ping Mao,  Yuezhi Mao,  N. Mardirossian,  
 A. V. Marenich,  T. Markovich,  L. A. Martinez-Martinez,  S. A. Maurer,  
 N. J. Mayhall,  S. C. McKenzie,  J.-M. Mewes,  A. F. Morrison,  
 J. W. Mullinax,  K. Nanda,  T. S. Nguyen-Beck,  R. Olivares-Amaya,  
 J. A. Parkhill,  T. M. Perrine,  F. Plasser,  P. Pokhilko,  S. Prager,  
 A. Prociuk,  E. Ramos,  D. R. Rehn,  F. Rob,  M. Schneider,  N. Sergueev,  
 S. M. Sharada,  S. Sharma,  D. W. Small,  T. Stauch,  T. Stein,  
 Yu-Chuan Su,  A. J. W. Thom,  A. Tkatchenko,  T. Tsuchimochi,  N. M. Tubman,  
 L. Vogt,  M. L. Vidal,  O. Vydrov,  M. A. Watson,  J. Wenzel,  
 M. de Wergifosse,  T. A. Wesolowski,  A. White,  J. Witte,  A. Yamada,  
 Jun Yang,  K. Yao,  S. Yeganeh,  S. R. Yost,  Zhi-Qiang You,  A. Zech,  
 Igor Ying Zhang,  Xing Zhang,  Yan Zhao,  Ying Zhu,  B. R. Brooks,  
 G. K. L. Chan,  C. J. Cramer,  M. S. Gordon,  W. J. Hehre,  A. Klamt,  
 M. W. Schmidt,  C. D. Sherrill,  D. G. Truhlar,  A. Aspuru-Guzik,  R. Baer,  
 A. T. Bell,  N. A. Besley,  Jeng-Da Chai,  A. E. DePrince, III,  
 R. A. DiStasio Jr.,  A. Dreuw,  B. D. Dunietz,  T. R. Furlani,  
 Chao-Ping Hsu,  Yousung Jung,  Jing Kong,  D. S. Lambrecht,  WanZhen Liang,  
 C. Ochsenfeld,  V. A. Rassolov,  L. V. Slipchenko,  J. E. Subotnik,  
 T. Van Voorhis,  J. M. Herbert,  A. I. Krylov,  P. M. W. Gill,  M. Head-Gordon

 Contributors to earlier versions of Q-Chem not listed above: 
 R. D. Adamson,  B. Austin,  J. Baker,  G. J. O. Beran,  K. Brandhorst,  
 S. T. Brown,  E. F. C. Byrd,  A. K. Chakraborty,  C.-L. Cheng,  
 Siu Hung Chien,  D. M. Chipman,  D. L. Crittenden,  H. Dachsel,  
 R. J. Doerksen,  A. D. Dutoi,  L. Fusti-Molnar,  W. A. Goddard III,  
 A. Golubeva-Zadorozhnaya,  S. R. Gwaltney,  G. Hawkins,  A. Heyden,  
 S. Hirata,  G. Kedziora,  F. J. Keil,  C. Kelley,  Jihan Kim,  R. A. King,  
 R. Z. Khaliullin,  P. P. Korambath,  W. Kurlancheek,  A. M. Lee,  M. S. Lee,  
 S. V. Levchenko,  Ching Yeh Lin,  D. Liotard,  R. C. Lochan,  I. Lotan,  
 P. E. Maslen,  N. Nair,  D. P. O'Neill,  D. Neuhauser,  E. Neuscamman,  
 C. M. Oana,  R. Olson,  B. Peters,  R. Peverati,  P. A. Pieniazek,  
 Y. M. Rhee,  J. Ritchie,  M. A. Rohrdanz,  E. Rosta,  N. J. Russ,  
 H. F. Schaefer III,  N. E. Schultz,  N. Shenvi,  A. C. Simmonett,  A. Sodt,  
 D. Stuck,  K. S. Thanthiriwatte,  V. Vanovschi,  Tao Wang,  A. Warshel,  
 C. F. Williams,  Q. Wu,  X. Xu,  W. Zhang

 Please cite Q-Chem as follows:
 Y. Shao et al., Mol. Phys. 113, 184-215 (2015)
 DOI: 10.1080/00268976.2014.952696

 Q-Chem 5.1.1 for Intel X86 EM64T Linux

 Parts of Q-Chem use Armadillo 8.300.2 (Tropical Shenanigans).
 http://arma.sourceforge.net/

 Q-Chem begins on Wed Mar 13 21:59:39 2019  

Host: 
0

     Scratch files written to /staging/scratch/2868767/qchem23130//
 Aug318 |scratch|qcdevops|jenkins|workspace|build_RNUM 6013   
Processing $rem in /usr/usc/qchem/5.1.1/config/preferences.
 MEM_TOTAL  2000 
Input Ideriv = 2
Curr. Ideriv = -1
Max.  Ideriv = 2

Checking the input file for inconsistencies... 	...done.

--------------------------------------------------------------
User input:
--------------------------------------------------------------

$comment
potential surface scanner
$end

$rem
JOBTYPE  PES_SCAN
UNRESTRICTED TRUE
SYM_IGNORE  TRUE
GEOM_OPT_MAX_CYCLES 400
SCF_MAX_CYCLES 400
METHOD   B3LYP
BASIS   6-31G**
PDB_PRINT 2
SCF_CONVERGENCE 6
THRESH 14
SCF_PRINT 1
$end
$molecule
0 1
S 2.126400 0.172600 -0.001000
C -0.602600 0.507000 0.001200
C 0.472000 -0.574500 0.001000
C -1.995800 -0.105100 -0.001200
H -0.500600 1.146800 0.886100
H -0.499900 1.148900 -0.882200
H 0.380400 -1.208800 0.888400
H 0.378500 -1.212800 -0.883500
H -2.152000 -0.728200 0.885200
H -2.755700 0.682700 -0.000800
H -2.150200 -0.725500 -0.889800
H 2.012100 0.800700 -1.180400
$end
$scan
stre 1 12 1.100000 1.101000 0.100000
$end
--------------------------------------------------------------
 ----------------------------------------------------------------
             Standard Nuclear Orientation (Angstroms)
    I     Atom           X                Y                Z
 ----------------------------------------------------------------
    1      S       2.1264000000     0.1726000000    -0.0010000000
    2      C      -0.6026000000     0.5070000000     0.0012000000
    3      C       0.4720000000    -0.5745000000     0.0010000000
    4      C      -1.9958000000    -0.1051000000    -0.0012000000
    5      H      -0.5006000000     1.1468000000     0.8861000000
    6      H      -0.4999000000     1.1489000000    -0.8822000000
    7      H       0.3804000000    -1.2088000000     0.8884000000
    8      H       0.3785000000    -1.2128000000    -0.8835000000
    9      H      -2.1520000000    -0.7282000000     0.8852000000
   10      H      -2.7557000000     0.6827000000    -0.0008000000
   11      H      -2.1502000000    -0.7255000000    -0.8898000000
   12      H       2.0121000000     0.8007000000    -1.1804000000
 ----------------------------------------------------------------
 Nuclear Repulsion Energy =   163.7622964563 hartrees
 There are       21 alpha and       21 beta electrons
 Requested basis set is 6-31G(d,p)
 There are 41 shells and 104 basis functions

 Total QAlloc Memory Limit   2000 MB
 Mega-Array Size       188 MB
 MEM_STATIC part       192 MB
A total of 1 constraints
  
            1
    1   1.0100000
    2   1.0100000
    3  12.0100000
    4   1.1000000
    5   1.1010000
    6   0.1000000
    7   0.0000000
    8   0.0000000
    9   0.0000000
   10   0.0000000

                       Distance Matrix (Angstroms)
             S (  1)   C (  2)   C (  3)   C (  4)   H (  5)   H (  6)
   C (  2)  2.749413
   C (  3)  1.815269  1.524601
   C (  4)  4.131543  1.521735  2.512047
   H (  5)  2.938901  1.096721  2.166155  2.142470
   H (  6)  2.937197  1.096804  2.166735  2.141587  1.768301
   H (  7)  2.397460  2.167345  1.094626  2.766924  2.514959  3.077126
   H (  8)  2.398602  2.168632  1.094765  2.764553  3.077664  2.519765
   H (  9)  4.461109  2.169750  2.773231  1.094695  2.498549  3.062130
   H ( 10)  4.908676  2.160258  3.463900  1.094567  2.467277  2.466342
   H ( 11)  4.459356  2.169793  2.773492  1.094690  3.062762  2.497383
   H ( 12)  1.341103  2.884284  2.378821  4.274839  3.271677  2.553490
             H (  7)   H (  8)   H (  9)   H ( 10)   H ( 11)
   H (  8)  1.771906
   H (  9)  2.577603  3.125151
   H ( 10)  3.768763  3.767664  1.772029
   H ( 11)  3.130417  2.575233  1.775003  1.771998
   H ( 12)  3.313679  2.609786  4.893257  4.912972  4.442800
 
 A cutoff of  1.0D-14 yielded    829 shell pairs
 There are      5426 function pairs
 
 -------------------------------------------------------
 OpenMP Integral Computing Module                       
 Release: version 1.0, May 2013, Q-Chem Inc. Pittsburgh 
 -------------------------------------------------------
 Integral Job Info:
 Integral job number is                      11
 Integral operator is                         1
 short-range coefficients                     0
 long-range coefficients              100000000
 Omega coefficients                           0
 if combine SR and LR in K                    0
 Integral screening is                        0
 Integral computing path is                   2
 max size of driver memory is            800000
 size of driver memory is                593474
 size of scratch memory is             15267112
 max col of scratch BK array               1296
 max len of scratch array in speh3          155
 max len of scratch index in speh4           18
 max int batch size is                      520
 min int batch size is                       52
 fixed nKL is                                52
 max L of basis functions is                  2
 order of int derivative is                   0
 number of shells is                         41
 number of basis is                         104
 number of cartesian basis is               104
 number of contracted shell pairs           829
 number of primitive shell pairs           3028
 maxK2 (contraction) of shell pair           36
 max number of K2 of shell pair               1
 max number of CS2 of shell pair             70
 max number of PS2 of shell pair            252
 mem total for path MDJ                  513890
 -------------------------------------------------------
 Smallest overlap matrix eigenvalue = 5.30E-03

 Scale SEOQF with 1.000000e-01/1.000000e+00/1.000000e+00

 Standard Electronic Orientation quadrupole field applied
 Nucleus-field energy     =     0.0000000062 hartrees
 Guess from superposition of atomic densities
 Warning:  Energy on first SCF cycle will be non-variational
 SAD guess density has 42.000000 electrons

 -----------------------------------------------------------------------
  General SCF calculation program by
  Eric Jon Sundstrom, Paul Horn, Yuezhi Mao, Dmitri Zuev, Alec White,
  David Stuck, Shaama M.S., Shane Yost, Joonho Lee, David Small,
  Daniel Levine, Susi Lehtola, Hugh Burton, Evgeny Epifanovsky
 -----------------------------------------------------------------------
 Exchange:     0.2000 Hartree-Fock + 0.0800 Slater + 0.7200 B88
 Correlation:  0.1900 VWN1RPA + 0.8100 LYP
 Using SG-1 standard quadrature grid
 using 12 threads for integral computing
 -------------------------------------------------------
 OpenMP Integral computing Module                
 Release: version 1.0, May 2013, Q-Chem Inc. Pittsburgh 
 -------------------------------------------------------
 -------------------------------------------------------
 OpenMP BLAS3 based DFT computing Module                
 Release: version 1.0, May 2013, Q-Chem Inc. Pittsburgh 
 -------------------------------------------------------
 A unrestricted SCF calculation will be
 performed using DIIS
 SCF converges when DIIS error is below 1.0e-06
 Alpha HF Exchange    Energy =  -4.36269590465399
 Beta HF Exchange     Energy =  -4.36269590465399
 DFT Correlation      Energy =  -1.87649468997967
 DFT Exchange         Energy = -34.02565376800094
 One-Electron (alpha) Energy = -515.01139245976583
 One-Electron (beta)  Energy = -515.01139245976583
 Total Coulomb        Energy = 393.07326517487581
 ---------------------------------------
  Cycle       Energy         DIIS error
 ---------------------------------------
    1    -517.8147635494      3.12e-02  
 Alpha HF Exchange    Energy =  -4.37087524482510
 Beta HF Exchange     Energy =  -4.37087524482510
 DFT Correlation      Energy =  -1.90554949308412
 DFT Exchange         Energy = -34.66343827986434
 One-Electron (alpha) Energy = -518.82235471780746
 One-Electron (beta)  Energy = -518.82235471780768
 Total Coulomb        Energy = 401.93908889249974
    2    -517.2540623432      3.74e-03  
 Alpha HF Exchange    Energy =  -4.31301187683536
 Beta HF Exchange     Energy =  -4.31301187683536
 DFT Correlation      Energy =  -1.87730638322749
 DFT Exchange         Energy = -34.17589875488159
 One-Electron (alpha) Energy = -514.85466152405411
 One-Electron (beta)  Energy = -514.85466152405422
 Total Coulomb        Energy = 393.39711002528287
    3    -517.2291454520      4.32e-03  
 Alpha HF Exchange    Energy =  -4.34052928994087
 Beta HF Exchange     Energy =  -4.34052928994087
 DFT Correlation      Energy =  -1.89176895576294
 DFT Exchange         Energy = -34.40769537206037
 One-Electron (alpha) Energy = -516.88474752523655
 One-Electron (beta)  Energy = -516.88474752523666
 Total Coulomb        Energy = 397.65009639898636
    4    -517.3376250966      3.93e-04  
 Alpha HF Exchange    Energy =  -4.34170624251316
 Beta HF Exchange     Energy =  -4.34170624251316
 DFT Correlation      Energy =  -1.89192475807432
 DFT Exchange         Energy = -34.41649855487530
 One-Electron (alpha) Energy = -516.94416103536764
 One-Electron (beta)  Energy = -516.94416103536742
 Total Coulomb        Energy = 397.77939597079239
    5    -517.3384654354      1.50e-04  
 Alpha HF Exchange    Energy =  -4.34144864309696
 Beta HF Exchange     Energy =  -4.34144864309696
 DFT Correlation      Energy =  -1.89185809869411
 DFT Exchange         Energy = -34.41455602658205
 One-Electron (alpha) Energy = -516.92535800777000
 One-Electron (beta)  Energy = -516.92535800777034
 Total Coulomb        Energy = 397.73914381635643
    6    -517.3385871481      4.02e-05  
 Alpha HF Exchange    Energy =  -4.34137307275444
 Beta HF Exchange     Energy =  -4.34137307275444
 DFT Correlation      Energy =  -1.89183130494275
 DFT Exchange         Energy = -34.41391066689138
 One-Electron (alpha) Energy = -516.91826134065400
 One-Electron (beta)  Energy = -516.91826134065411
 Total Coulomb        Energy = 397.72411915765679
    7    -517.3385951784      9.11e-06  
 Alpha HF Exchange    Energy =  -4.34141727459029
 Beta HF Exchange     Energy =  -4.34141727459029
 DFT Correlation      Energy =  -1.89184885674476
 DFT Exchange         Energy = -34.41426466150833
 One-Electron (alpha) Energy = -516.92284333997986
 One-Electron (beta)  Energy = -516.92284333997964
 Total Coulomb        Energy = 397.73374261612719
    8    -517.3385956687      1.43e-06  
 Alpha HF Exchange    Energy =  -4.34141497723540
 Beta HF Exchange     Energy =  -4.34141497723541
 DFT Correlation      Energy =  -1.89184782026157
 DFT Exchange         Energy = -34.41424559748144
 One-Electron (alpha) Energy = -516.92250848349988
 One-Electron (beta)  Energy = -516.92250848350011
 Total Coulomb        Energy = 397.73304819550458
    9    -517.3385956811      3.60e-07  Convergence criterion met
 ---------------------------------------
 SCF time:   CPU 22.63s  wall 2.00s 
<S^2> =         -0.000000000
 Alpha HF Exchange    Energy =  -4.34141497723540
 Beta HF Exchange     Energy =  -4.34141497723541
 DFT Correlation      Energy =  -1.89184782026157
 DFT Exchange         Energy = -34.41424559748144
 One-Electron (alpha) Energy = -516.92250848349988
 One-Electron (beta)  Energy = -516.92250848350011
 Total Coulomb        Energy = 397.73304819550458
 Nuclear repulsion Energy = 163.76229646256400
 SCF   energy in the final basis set =     -517.3385956811
 Total energy in the final basis set =     -517.3385956811
 
 --------------------------------------------------------------
 
                    Orbital Energies (a.u.)
 --------------------------------------------------------------
 
 Alpha MOs
 -- Occupied --
-88.868 -10.217 -10.190 -10.179  -7.931  -5.897  -5.893  -5.886
 -0.814  -0.742  -0.647  -0.592  -0.481  -0.440  -0.415  -0.404
 -0.374  -0.352  -0.342  -0.314  -0.232
 -- Virtual --
  0.032   0.075   0.102   0.127   0.134   0.157   0.176   0.177
  0.185   0.220   0.239   0.348   0.364   0.387   0.407   0.500
  0.519   0.525   0.556   0.581   0.651   0.659   0.680   0.733
  0.781   0.791   0.836   0.850   0.862   0.884   0.888   0.910
  0.939   0.944   0.984   1.044   1.121   1.158   1.318   1.370
  1.386   1.566   1.614   1.656   1.684   1.837   1.867   1.962
  2.033   2.049   2.064   2.085   2.094   2.110   2.150   2.158
  2.216   2.264   2.269   2.342   2.446   2.476   2.523   2.593
  2.692   2.725   2.740   2.776   2.801   2.849   2.894   2.915
  3.175   3.239   3.315   3.329   3.468   3.478   3.552   3.992
  4.280   4.460   4.634
 
 Beta MOs
 -- Occupied --
-88.868 -10.217 -10.190 -10.179  -7.931  -5.897  -5.893  -5.886
 -0.814  -0.742  -0.647  -0.592  -0.481  -0.440  -0.415  -0.404
 -0.374  -0.352  -0.342  -0.314  -0.232
 -- Virtual --
  0.032   0.075   0.102   0.127   0.134   0.157   0.176   0.177
  0.185   0.220   0.239   0.348   0.364   0.387   0.407   0.500
  0.519   0.525   0.556   0.581   0.651   0.659   0.680   0.733
  0.781   0.791   0.836   0.850   0.862   0.884   0.888   0.910
  0.939   0.944   0.984   1.044   1.121   1.158   1.318   1.370
  1.386   1.566   1.614   1.656   1.684   1.837   1.867   1.962
  2.033   2.049   2.064   2.085   2.094   2.110   2.150   2.158
  2.216   2.264   2.269   2.342   2.446   2.476   2.523   2.593
  2.692   2.725   2.740   2.776   2.801   2.849   2.894   2.915
  3.175   3.239   3.315   3.329   3.468   3.478   3.552   3.992
  4.280   4.460   4.634
 --------------------------------------------------------------
 
          Ground-State Mulliken Net Atomic Charges

     Atom                 Charge (a.u.)    Spin (a.u.)
  --------------------------------------------------------
      1 S                    -0.046721       0.000000
      2 C                    -0.165872       0.000000
      3 C                    -0.328556      -0.000000
      4 C                    -0.321521       0.000000
      5 H                     0.116661      -0.000000
      6 H                     0.098114      -0.000000
      7 H                     0.139879      -0.000000
      8 H                     0.135377      -0.000000
      9 H                     0.105125      -0.000000
     10 H                     0.107238       0.000000
     11 H                     0.103684      -0.000000
     12 H                     0.056592      -0.000000
  --------------------------------------------------------
  Sum of atomic charges =     0.000000
  Sum of spin   charges =     0.000000

 -----------------------------------------------------------------
                    Cartesian Multipole Moments
 -----------------------------------------------------------------
    Charge (ESU x 10^10)
                -0.0000
    Dipole Moment (Debye)
         X      -1.7111      Y      -0.1323      Z      -0.7362
       Tot       1.8674
    Quadrupole Moments (Debye-Ang)
        XX     -39.2061     XY       0.5586     YY     -34.0426
        XZ      -1.7492     YZ      -1.6569     ZZ     -32.5262
    Octopole Moments (Debye-Ang^2)
       XXX     -49.7600    XXY       3.6412    XYY     -13.8509
       YYY      -4.5581    XXZ      -2.5708    XYZ      -3.5253
       YYZ       0.1141    XZZ     -11.2284    YZZ      -1.7138
       ZZZ       1.7052
    Hexadecapole Moments (Debye-Ang^3)
      XXXX    -668.5677   XXXY       0.3728   XXYY    -122.4244
      XYYY     -11.5884   YYYY     -96.1771   XXXZ      -2.3381
      XXYZ      -7.3193   XYYZ      -0.3281   YYYZ       0.2554
      XXZZ    -113.7440   XYZZ      -2.0489   YYZZ     -24.0228
      XZZZ       2.9407   YZZZ      -0.0870   ZZZZ     -62.5400
 -----------------------------------------------------------------
 Calculating analytic gradient of the SCF energy
 Gradient of SCF Energy
            1           2           3           4           5           6
    1  -0.0163273   0.0085486   0.0053208   0.0055395  -0.0037789  -0.0030454
    2   0.0024652   0.0020527  -0.0057975  -0.0010120  -0.0001037  -0.0003477
    3  -0.0069749  -0.0022266   0.0065258   0.0006669   0.0016796  -0.0007949
            7           8           9          10          11          12
    1  -0.0035721   0.0016161   0.0012573   0.0018070   0.0014913   0.0011429
    2  -0.0009264   0.0017945   0.0008423   0.0014277   0.0010223  -0.0014173
    3   0.0000754  -0.0018115   0.0000461  -0.0000232  -0.0000926   0.0029298
 Max gradient component =       1.633E-02
 RMS gradient           =       4.126E-03
 Gradient time:  CPU 8.52 s  wall 0.78 s
 Geometry Optimization Parameters
   NAtoms,    NIC,     NZ,  NCons,   NDum,   NFix, NCnnct, MaxDiis
       12      75       0       1       0       0       0       0


** CONSTRAINED OPTIMIZATION IN DELOCALIZED INTERNAL COORDINATES **
   Searching for a Minimum

   Optimization Cycle:   1

                       Coordinates (Angstroms)
     ATOM                X               Y               Z
      1  S         2.1264000000    0.1726000000   -0.0010000000
      2  C        -0.6026000000    0.5070000000    0.0012000000
      3  C         0.4720000000   -0.5745000000    0.0010000000
      4  C        -1.9958000000   -0.1051000000   -0.0012000000
      5  H        -0.5006000000    1.1468000000    0.8861000000
      6  H        -0.4999000000    1.1489000000   -0.8822000000
      7  H         0.3804000000   -1.2088000000    0.8884000000
      8  H         0.3785000000   -1.2128000000   -0.8835000000
      9  H        -2.1520000000   -0.7282000000    0.8852000000
     10  H        -2.7557000000    0.6827000000   -0.0008000000
     11  H        -2.1502000000   -0.7255000000   -0.8898000000
     12  H         2.0121000000    0.8007000000   -1.1804000000
   Point Group: c1    Number of degrees of freedom:    30


   Energy is   -517.338595681

              Constraints and their Current Values
                                        Value     Constraint
   Distance(Angs):        1  12             1.341103     1.100000

 Attempting to Generate Delocalized Internal Coordinates
**WARNING** Constraint Gradient Reduced for constraint   1

   Using Lagrange Multiplier Algorithm


 31 Hessian modes will be used to form the next step
  Hessian Eigenvalues:
    -0.876961    0.045000    0.045000    0.045000    0.069569    0.078193
     0.078656    0.082910    0.083633    0.084337    0.101608    0.125090
     0.130521    0.143153    0.160000    0.160000    0.160000    0.160000
     0.219364    0.220567    0.249498    0.299277    0.302000    0.340381
     0.340474    0.342678    0.342757    0.342763    0.342835    0.342901
     1.140302

 Minimum Search - Taking P-RFO Step
 Searching for Lamda that Maximizes Along the Constraint modes Only
 Value Taken    Lamda =   0.05562634


 ********************************************
 ** ERROR IN DETERMINING Lamda IN CONFormD **
 ********************************************


 ** Scaling Hessian by  2.472282 **


 31 Hessian modes will be used to form the next step
  Hessian Eigenvalues:
    -0.726123    0.111253    0.111253    0.111253    0.171994    0.193315
     0.194460    0.204976    0.206764    0.208506    0.251203    0.309258
     0.322685    0.353915    0.395565    0.395565    0.395565    0.395565
     0.542329    0.545304    0.616830    0.739898    0.746630    0.841517
     0.841748    0.847196    0.847391    0.847406    0.847584    0.847749
     1.377177

 Minimum Search - Taking P-RFO Step
 Searching for Lamda that Maximizes Along the Constraint modes Only
 Value Taken    Lamda =   0.07477758
 Searching for Lamda that Minimizes Along All other modes
 Value Taken    Lamda =  -0.02303767
 Step Taken.  Stepsize is  0.285810

                             Maximum     Tolerance    Cnvgd?
         Gradient            0.300000       0.000300      NO
         Displacement        0.279833       0.001200      NO
         Energy change     *********       0.000001      NO


 New Cartesian Coordinates Obtained by Inverse Iteration

 Displacement from previous Coordinates is:  0.293371
 ----------------------------------------------------------------
             Standard Nuclear Orientation (Angstroms)
    I     Atom           X                Y                Z
 ----------------------------------------------------------------
    1      S       2.1538620093     0.1779045211    -0.0336808686
    2      C      -0.6144758667     0.5151102946    -0.0110153614
    3      C       0.4797155902    -0.5519883429    -0.0233974499
    4      C      -2.0099337486    -0.1089720132     0.0053687935
    5      H      -0.4983490566     1.1577066550     0.8693887646
    6      H      -0.5224446642     1.1560784667    -0.8961500207
    7      H       0.4077329534    -1.1840973038     0.8666929160
    8      H       0.3761932436    -1.1968289977    -0.9017988134
    9      H      -2.1526112774    -0.7329172088     0.8939260173
   10      H      -2.7805441589     0.6684844945     0.0142538142
   11      H      -2.1744206806    -0.7341574375    -0.8786000403
   12      H       2.0478756565     0.7374768720    -1.0819877512
 ----------------------------------------------------------------
 Nuclear Repulsion Energy =   163.7149269174 hartrees
 There are       21 alpha and       21 beta electrons

                       Distance Matrix (Angstroms)
             S (  1)   C (  2)   C (  3)   C (  4)   H (  5)   H (  6)
   C (  2)  2.788892
   C (  3)  1.826367  1.528433
   C (  4)  4.173849  1.528741  2.528922
   H (  5)  2.968126  1.096142  2.162576  2.153113
   H (  6)  2.977129  1.096710  2.164143  2.150747  1.765704
   H (  7)  2.390541  2.168545  1.094077  2.782604  2.510983  3.073966
   H (  8)  2.409072  2.169253  1.094589  2.774885  3.073397  2.518681
   H (  9)  4.498418  2.177694  2.793450  1.095079  2.512299  3.070850
   H ( 10)  4.958965  2.171639  3.481417  1.094695  2.485761  2.483062
   H ( 11)  4.503307  2.178715  2.794458  1.095132  3.073082  2.510443
   H ( 12)  1.193022  2.878288  2.289642  4.285398  3.235386  2.610806
             H (  7)   H (  8)   H (  9)   H ( 10)   H ( 11)
   H (  8)  1.768819
   H (  9)  2.599936  3.136032
   H ( 10)  3.784683  3.779357  1.769760
   H ( 11)  3.148970  2.592342  1.772661  1.769740
   H ( 12)  3.190591  2.562914  4.869331  4.951782  4.476032
 
 Applying Cartesian multipole field
    Component          Value
    ---------          -----
     (2,0,0)        1.00000E-11
     (0,2,0)        2.00000E-10
     (0,0,2)       -3.00000E-10
 Nucleus-field energy     =     0.0000000064 hartrees
 Requested basis set is 6-31G(d,p)
 There are 41 shells and 104 basis functions
 A cutoff of  1.0D-14 yielded    829 shell pairs
 There are      5426 function pairs
 Smallest overlap matrix eigenvalue = 5.44E-03
 Guess from superposition of atomic densities
 Warning:  Energy on first SCF cycle will be non-variational
 SAD guess density has 42.000000 electrons

 -----------------------------------------------------------------------
  General SCF calculation program by
  Eric Jon Sundstrom, Paul Horn, Yuezhi Mao, Dmitri Zuev, Alec White,
  David Stuck, Shaama M.S., Shane Yost, Joonho Lee, David Small,
  Daniel Levine, Susi Lehtola, Hugh Burton, Evgeny Epifanovsky
 -----------------------------------------------------------------------
 Exchange:     0.2000 Hartree-Fock + 0.0800 Slater + 0.7200 B88
 Correlation:  0.1900 VWN1RPA + 0.8100 LYP
 Using SG-1 standard quadrature grid
 using 12 threads for integral computing
 -------------------------------------------------------
 OpenMP Integral computing Module                
 Release: version 1.0, May 2013, Q-Chem Inc. Pittsburgh 
 -------------------------------------------------------
 -------------------------------------------------------
 OpenMP BLAS3 based DFT computing Module                
 Release: version 1.0, May 2013, Q-Chem Inc. Pittsburgh 
 -------------------------------------------------------
 A unrestricted SCF calculation will be
 performed using DIIS
 SCF converges when DIIS error is below 1.0e-06
 Alpha HF Exchange    Energy =  -4.36830661418068
 Beta HF Exchange     Energy =  -4.36830661418068
 DFT Correlation      Energy =  -1.87752801420258
 DFT Exchange         Energy = -34.04077667896313
 One-Electron (alpha) Energy = -514.87919145518663
 One-Electron (beta)  Energy = -514.87919145518663
 Total Coulomb        Energy = 392.83555103417217
 ---------------------------------------
  Cycle       Energy         DIIS error
 ---------------------------------------
    1    -517.8628228739      3.20e-02  
 Alpha HF Exchange    Energy =  -4.37590915442110
 Beta HF Exchange     Energy =  -4.37590915442110
 DFT Correlation      Energy =  -1.90692595282014
 DFT Exchange         Energy = -34.69942453509593
 One-Electron (alpha) Energy = -518.73746818969869
 One-Electron (beta)  Energy = -518.73746818969892
 Total Coulomb        Energy = 401.87474273467376
    2    -517.2434355176      3.66e-03  
 Alpha HF Exchange    Energy =  -4.31819179677672
 Beta HF Exchange     Energy =  -4.31819179677672
 DFT Correlation      Energy =  -1.87921560691455
 DFT Exchange         Energy = -34.21309534811329
 One-Electron (alpha) Energy = -514.86572021858990
 One-Electron (beta)  Energy = -514.86572021858990
 Total Coulomb        Energy = 393.52325281820515
    3    -517.2219552437      4.19e-03  
 Alpha HF Exchange    Energy =  -4.34498466385811
 Beta HF Exchange     Energy =  -4.34498466385811
 DFT Correlation      Energy =  -1.89322385029217
 DFT Exchange         Energy = -34.43909290942002
 One-Electron (alpha) Energy = -516.80135057080383
 One-Electron (beta)  Energy = -516.80135057080383
 Total Coulomb        Energy = 397.58657003878312
    4    -517.3234902664      4.04e-04  
 Alpha HF Exchange    Energy =  -4.34628802433098
 Beta HF Exchange     Energy =  -4.34628802433098
 DFT Correlation      Energy =  -1.89338367840452
 DFT Exchange         Energy = -34.44885808703449
 One-Electron (alpha) Energy = -516.86744009570702
 One-Electron (beta)  Energy = -516.86744009570691
 Total Coulomb        Energy = 397.73036687831478
    5    -517.3244042034      1.43e-04  
 Alpha HF Exchange    Energy =  -4.34607833003945
 Beta HF Exchange     Energy =  -4.34607833003945
 DFT Correlation      Energy =  -1.89334088336531
 DFT Exchange         Energy = -34.44731426821451
 One-Electron (alpha) Energy = -516.85367409866024
 One-Electron (beta)  Energy = -516.85367409866024
 Total Coulomb        Energy = 397.70072021652891
    6    -517.3245128686      4.43e-05  
 Alpha HF Exchange    Energy =  -4.34598437201757
 Beta HF Exchange     Energy =  -4.34598437201757
 DFT Correlation      Energy =  -1.89330679608043
 DFT Exchange         Energy = -34.44651791524456
 One-Electron (alpha) Energy = -516.84472409639909
 One-Electron (beta)  Energy = -516.84472409639886
 Total Coulomb        Energy = 397.68179187801127
    7    -517.3245228463      8.74e-06  
 Alpha HF Exchange    Energy =  -4.34602620050728
 Beta HF Exchange     Energy =  -4.34602620050729
 DFT Correlation      Energy =  -1.89332322856050
 DFT Exchange         Energy = -34.44685297146177
 One-Electron (alpha) Energy = -516.84900602251685
 One-Electron (beta)  Energy = -516.84900602251730
 Total Coulomb        Energy = 397.69079043428110
    8    -517.3245232879      1.32e-06  
 Alpha HF Exchange    Energy =  -4.34602424694941
 Beta HF Exchange     Energy =  -4.34602424694941
 DFT Correlation      Energy =  -1.89332237608640
 DFT Exchange         Energy = -34.44683650423192
 One-Electron (alpha) Energy = -516.84874569557928
 One-Electron (beta)  Energy = -516.84874569557951
 Total Coulomb        Energy = 397.69024854376164
    9    -517.3245232978      4.10e-07  Convergence criterion met
 ---------------------------------------
 SCF time:   CPU 22.31s  wall 2.00s 
<S^2> =         -0.000000000
 Alpha HF Exchange    Energy =  -4.34602424694941
 Beta HF Exchange     Energy =  -4.34602424694941
 DFT Correlation      Energy =  -1.89332237608640
 DFT Exchange         Energy = -34.44683650423192
 One-Electron (alpha) Energy = -516.84874569557928
 One-Electron (beta)  Energy = -516.84874569557951
 Total Coulomb        Energy = 397.69024854376164
 Nuclear repulsion Energy = 163.71492692384311
 SCF   energy in the final basis set =     -517.3245232978
 Total energy in the final basis set =     -517.3245232978
 
 --------------------------------------------------------------
 
                    Orbital Energies (a.u.)
 --------------------------------------------------------------
 
 Alpha MOs
 -- Occupied --
-88.858 -10.218 -10.191 -10.181  -7.926  -5.891  -5.887  -5.880
 -0.814  -0.749  -0.658  -0.594  -0.480  -0.444  -0.415  -0.403
 -0.378  -0.351  -0.342  -0.316  -0.234
 -- Virtual --
  0.038   0.101   0.107   0.128   0.138   0.155   0.176   0.177
  0.185   0.220   0.237   0.324   0.367   0.384   0.402   0.501
  0.518   0.525   0.555   0.578   0.647   0.662   0.681   0.747
  0.774   0.792   0.837   0.850   0.859   0.883   0.887   0.909
  0.938   0.941   0.982   1.036   1.119   1.307   1.324   1.370
  1.382   1.563   1.609   1.658   1.681   1.831   1.862   1.949
  2.040   2.054   2.072   2.095   2.105   2.155   2.164   2.190
  2.216   2.261   2.270   2.339   2.441   2.478   2.520   2.598
  2.693   2.730   2.747   2.801   2.849   2.890   2.910   3.027
  3.174   3.240   3.315   3.330   3.466   3.477   3.551   3.981
  4.275   4.458   4.631
 
 Beta MOs
 -- Occupied --
-88.858 -10.218 -10.191 -10.181  -7.926  -5.891  -5.887  -5.880
 -0.814  -0.749  -0.658  -0.594  -0.480  -0.444  -0.415  -0.403
 -0.378  -0.351  -0.342  -0.316  -0.234
 -- Virtual --
  0.038   0.101   0.107   0.128   0.138   0.155   0.176   0.177
  0.185   0.220   0.237   0.324   0.367   0.384   0.402   0.501
  0.518   0.525   0.555   0.578   0.647   0.662   0.681   0.747
  0.774   0.792   0.837   0.850   0.859   0.883   0.887   0.909
  0.938   0.941   0.982   1.036   1.119   1.307   1.324   1.370
  1.382   1.563   1.609   1.658   1.681   1.831   1.862   1.949
  2.040   2.054   2.072   2.095   2.105   2.155   2.164   2.190
  2.216   2.261   2.270   2.339   2.441   2.478   2.520   2.598
  2.693   2.730   2.747   2.801   2.849   2.890   2.910   3.027
  3.174   3.240   3.315   3.330   3.466   3.477   3.551   3.981
  4.275   4.458   4.631
 --------------------------------------------------------------
 
          Ground-State Mulliken Net Atomic Charges

     Atom                 Charge (a.u.)    Spin (a.u.)
  --------------------------------------------------------
      1 S                    -0.044960       0.000000
      2 C                    -0.167334      -0.000000
      3 C                    -0.328927       0.000000
      4 C                    -0.322380       0.000000
      5 H                     0.116679       0.000000
      6 H                     0.098081       0.000000
      7 H                     0.139346       0.000000
      8 H                     0.133824      -0.000000
      9 H                     0.106263      -0.000000
     10 H                     0.108479      -0.000000
     11 H                     0.104445      -0.000000
     12 H                     0.056485      -0.000000
  --------------------------------------------------------
  Sum of atomic charges =     0.000000
  Sum of spin   charges =     0.000000

 -----------------------------------------------------------------
                    Cartesian Multipole Moments
 -----------------------------------------------------------------
    Charge (ESU x 10^10)
                 0.0000
    Dipole Moment (Debye)
         X      -1.7276      Y      -0.0847      Z      -0.7906
       Tot       1.9018
    Quadrupole Moments (Debye-Ang)
        XX     -38.9428     XY       0.6522     YY     -33.9801
        XZ      -1.8806     YZ      -1.6094     ZZ     -32.4788
    Octopole Moments (Debye-Ang^2)
       XXX     -50.1720    XXY       3.6648    XYY     -13.8621
       YYY      -4.7254    XXZ      -2.6838    XYZ      -3.5753
       YYZ       0.5242    XZZ     -11.2467    YZZ      -1.8156
       ZZZ       2.8910
    Hexadecapole Moments (Debye-Ang^3)
      XXXX    -677.1318   XXXY       0.9709   XXYY    -123.9236
      XYYY     -11.3780   YYYY     -94.6467   XXXZ      -2.0726
      XXYZ      -7.7591   XYYZ       0.3766   YYYZ      -0.2063
      XXZZ    -115.0203   XYZZ      -2.0717   YYZZ     -23.5783
      XZZZ       4.8292   YZZZ      -0.4068   ZZZZ     -60.7669
 -----------------------------------------------------------------
 Calculating analytic gradient of the SCF energy
 Gradient of SCF Energy
            1           2           3           4           5           6
    1  -0.0193101   0.0056371   0.0045449   0.0023616  -0.0024970  -0.0019588
    2   0.0560436   0.0017282  -0.0036653  -0.0005915  -0.0003794  -0.0006211
    3  -0.1065369  -0.0016936   0.0038626   0.0004683   0.0012066  -0.0005054
            7           8           9          10          11          12
    1  -0.0023386   0.0007637   0.0005981   0.0007279   0.0007505   0.0107206
    2  -0.0003999   0.0014948   0.0005831   0.0007151   0.0006872  -0.0555949
    3   0.0002679  -0.0012372   0.0000332  -0.0000289  -0.0000913   0.1042544
 Max gradient component =       1.065E-01
 RMS gradient           =       2.841E-02
 Gradient time:  CPU 8.71 s  wall 0.81 s
 Geometry Optimization Parameters
   NAtoms,    NIC,     NZ,  NCons,   NDum,   NFix, NCnnct, MaxDiis
       12      75       0       1       0       0       0       0

 Cartesian Hessian Update
 Hessian Updated using BFGS Update


** CONSTRAINED OPTIMIZATION IN DELOCALIZED INTERNAL COORDINATES **
   Searching for a Minimum

   Optimization Cycle:   2

                       Coordinates (Angstroms)
     ATOM                X               Y               Z
      1  S         2.1538620093    0.1779045211   -0.0336808686
      2  C        -0.6144758667    0.5151102946   -0.0110153614
      3  C         0.4797155902   -0.5519883429   -0.0233974499
      4  C        -2.0099337486   -0.1089720132    0.0053687935
      5  H        -0.4983490566    1.1577066550    0.8693887646
      6  H        -0.5224446642    1.1560784667   -0.8961500207
      7  H         0.4077329534   -1.1840973038    0.8666929160
      8  H         0.3761932436   -1.1968289977   -0.9017988134
      9  H        -2.1526112774   -0.7329172088    0.8939260173
     10  H        -2.7805441589    0.6684844945    0.0142538142
     11  H        -2.1744206806   -0.7341574375   -0.8786000403
     12  H         2.0478756565    0.7374768720   -1.0819877512
   Point Group: c1    Number of degrees of freedom:    30


   Energy is   -517.324523298

              Constraints and their Current Values
                                        Value     Constraint
   Distance(Angs):        1  12             1.193022     1.100000
 Hessian Updated using BFGS Update

   Using Lagrange Multiplier Algorithm


 28 Hessian modes will be used to form the next step
  Hessian Eigenvalues:
    -0.811966    0.111252    0.111253    0.171993    0.192988    0.194388
     0.204968    0.206764    0.208429    0.250826    0.309052    0.322676
     0.353729    0.395347    0.395588    0.540560    0.542671    0.614343
     0.739529    0.745589    0.841518    0.841735    0.847197    0.847378
     0.847400    0.847569    0.847750    1.234662

 Minimum Search - Taking P-RFO Step
 Searching for Lamda that Maximizes Along the Constraint modes Only
 Value Taken    Lamda =   0.01236233
 Searching for Lamda that Minimizes Along All other modes
 Value Taken    Lamda =  -0.01995661
 Step Taken.  Stepsize is  0.180804

                             Maximum     Tolerance    Cnvgd?
         Gradient            0.175786       0.000300      NO
         Displacement        0.173030       0.001200      NO
         Energy change      0.014072       0.000001      NO


 New Cartesian Coordinates Obtained by Inverse Iteration

 Displacement from previous Coordinates is:  0.203186
 ----------------------------------------------------------------
             Standard Nuclear Orientation (Angstroms)
    I     Atom           X                Y                Z
 ----------------------------------------------------------------
    1      S       2.1758376253     0.1776340880    -0.0524609210
    2      C      -0.6250354065     0.5218103837    -0.0190811548
    3      C       0.4830791567    -0.5346636635    -0.0405992998
    4      C      -2.0212906927    -0.1124736049     0.0100923871
    5      H      -0.4962325707     1.1665847629     0.8573681490
    6      H      -0.5386892697     1.1632024413    -0.9046259700
    7      H       0.4264154656    -1.1653485347     0.8508652943
    8      H       0.3730734229    -1.1859626962    -0.9133774717
    9      H      -2.1537228465    -0.7380665770     0.8995618390
   10      H      -2.8002340120     0.6565054400     0.0256239909
   11      H      -2.1924105918    -0.7413163619    -0.8705509806
   12      H       2.0818097193     0.6958943223    -1.0198158623
 ----------------------------------------------------------------
 Nuclear Repulsion Energy =   163.6117022223 hartrees
 There are       21 alpha and       21 beta electrons

                       Distance Matrix (Angstroms)
             S (  1)   C (  2)   C (  3)   C (  4)   H (  5)   H (  6)
   C (  2)  2.822138
   C (  3)  1.836557  1.531182
   C (  4)  4.207608  1.533850  2.540213
   H (  5)  2.990948  1.095668  2.158621  2.163254
   H (  6)  3.011011  1.096827  2.161782  2.159205  1.762509
   H (  7)  2.383292  2.169991  1.093473  2.794049  2.507835  3.071698
   H (  8)  2.418787  2.170824  1.094547  2.781754  3.070132  2.519914
   H (  9)  4.526582  2.183593  2.806778  1.095473  2.525223  3.078677
   H ( 10)  4.999670  2.179823  3.493339  1.094679  2.502080  2.497337
   H ( 11)  4.538208  2.185670  2.808874  1.095563  3.082663  2.522528
   H ( 12)  1.101458  2.891156  2.242560  4.306925  3.223612  2.664331
             H (  7)   H (  8)   H (  9)   H ( 10)   H ( 11)
   H (  8)  1.765169
   H (  9)  2.615732  3.141983
   H ( 10)  3.796241  3.787650  1.768212
   H ( 11)  3.162488  2.604084  1.770539  1.768187
   H ( 12)  3.115125  2.544110  4.866209  4.992880  4.511853
 
 Applying Cartesian multipole field
    Component          Value
    ---------          -----
     (2,0,0)        1.00000E-11
     (0,2,0)        2.00000E-10
     (0,0,2)       -3.00000E-10
 Nucleus-field energy     =     0.0000000065 hartrees
 Requested basis set is 6-31G(d,p)
 There are 41 shells and 104 basis functions
 A cutoff of  1.0D-14 yielded    827 shell pairs
 There are      5419 function pairs
 Smallest overlap matrix eigenvalue = 5.55E-03
 Guess from superposition of atomic densities
 Warning:  Energy on first SCF cycle will be non-variational
 SAD guess density has 42.000000 electrons

 -----------------------------------------------------------------------
  General SCF calculation program by
  Eric Jon Sundstrom, Paul Horn, Yuezhi Mao, Dmitri Zuev, Alec White,
  David Stuck, Shaama M.S., Shane Yost, Joonho Lee, David Small,
  Daniel Levine, Susi Lehtola, Hugh Burton, Evgeny Epifanovsky
 -----------------------------------------------------------------------
 Exchange:     0.2000 Hartree-Fock + 0.0800 Slater + 0.7200 B88
 Correlation:  0.1900 VWN1RPA + 0.8100 LYP
 Using SG-1 standard quadrature grid
 using 12 threads for integral computing
 -------------------------------------------------------
 OpenMP Integral computing Module                
 Release: version 1.0, May 2013, Q-Chem Inc. Pittsburgh 
 -------------------------------------------------------
 -------------------------------------------------------
 OpenMP BLAS3 based DFT computing Module                
 Release: version 1.0, May 2013, Q-Chem Inc. Pittsburgh 
 -------------------------------------------------------
 A unrestricted SCF calculation will be
 performed using DIIS
 SCF converges when DIIS error is below 1.0e-06
 Alpha HF Exchange    Energy =  -4.37199613715707
 Beta HF Exchange     Energy =  -4.37199613715707
 DFT Correlation      Energy =  -1.87806525247831
 DFT Exchange         Energy = -34.05134838118614
 One-Electron (alpha) Energy = -514.68873697822687
 One-Electron (beta)  Energy = -514.68873697822687
 Total Coulomb        Energy = 392.55210072431720
 ---------------------------------------
  Cycle       Energy         DIIS error
 ---------------------------------------
    1    -517.8870769113      3.26e-02  
 Alpha HF Exchange    Energy =  -4.37957240410643
 Beta HF Exchange     Energy =  -4.37957240410643
 DFT Correlation      Energy =  -1.90781058708091
 DFT Exchange         Energy = -34.72691202196202
 One-Electron (alpha) Energy = -518.59856466251949
 One-Electron (beta)  Energy = -518.59856466251983
 Total Coulomb        Energy = 401.76456041121077
    2    -517.2147341023      3.62e-03  
 Alpha HF Exchange    Energy =  -4.32153791482322
 Beta HF Exchange     Energy =  -4.32153791482323
 DFT Correlation      Energy =  -1.88031325288661
 DFT Exchange         Energy = -34.23841086916627
 One-Electron (alpha) Energy = -514.75430928285175
 One-Electron (beta)  Energy = -514.75430928285198
 Total Coulomb        Energy = 393.46248407728621
    3    -517.1962322113      4.09e-03  
 Alpha HF Exchange    Energy =  -4.34811168262650
 Beta HF Exchange     Energy =  -4.34811168262650
 DFT Correlation      Energy =  -1.89411941694831
 DFT Exchange         Energy = -34.46251902535784
 One-Electron (alpha) Energy = -516.65122253984816
 One-Electron (beta)  Energy = -516.65122253984839
 Total Coulomb        Energy = 397.45057809773687
    4    -517.2930265608      4.15e-04  
 Alpha HF Exchange    Energy =  -4.34945100768822
 Beta HF Exchange     Energy =  -4.34945100768822
 DFT Correlation      Energy =  -1.89425770249794
 DFT Exchange         Energy = -34.47249810632866
 One-Electron (alpha) Energy = -516.71888082625128
 One-Electron (beta)  Energy = -516.71888082625128
 Total Coulomb        Energy = 397.59771074955148
    5    -517.2940064984      1.41e-04  
 Alpha HF Exchange    Energy =  -4.34926497748963
 Beta HF Exchange     Energy =  -4.34926497748963
 DFT Correlation      Energy =  -1.89422855199195
 DFT Exchange         Energy = -34.47116001513032
 One-Electron (alpha) Energy = -516.70721017923836
 One-Electron (beta)  Energy = -516.70721017923802
 Total Coulomb        Energy = 397.57252464380946
    6    -517.2941120080      4.66e-05  
 Alpha HF Exchange    Energy =  -4.34916511608978
 Beta HF Exchange     Energy =  -4.34916511608977
 DFT Correlation      Energy =  -1.89419172563601
 DFT Exchange         Energy = -34.47031335175745
 One-Electron (alpha) Energy = -516.69767427514989
 One-Electron (beta)  Energy = -516.69767427514967
 Total Coulomb        Energy = 397.55235844968149
    7    -517.2941231814      8.51e-06  
 Alpha HF Exchange    Energy =  -4.34920436360398
 Beta HF Exchange     Energy =  -4.34920436360399
 DFT Correlation      Energy =  -1.89420711986202
 DFT Exchange         Energy = -34.47062751556830
 One-Electron (alpha) Energy = -516.70169708352830
 One-Electron (beta)  Energy = -516.70169708352876
 Total Coulomb        Energy = 397.56081170490046
    8    -517.2941235960      1.31e-06  
 Alpha HF Exchange    Energy =  -4.34920256520994
 Beta HF Exchange     Energy =  -4.34920256520994
 DFT Correlation      Energy =  -1.89420634170080
 DFT Exchange         Energy = -34.47061228139079
 One-Electron (alpha) Energy = -516.70146732963951
 One-Electron (beta)  Energy = -516.70146732963951
 Total Coulomb        Energy = 397.56033257879631
    9    -517.2941236052      4.38e-07  Convergence criterion met
 ---------------------------------------
 SCF time:   CPU 22.73s  wall 2.00s 
<S^2> =         -0.000000000
 Alpha HF Exchange    Energy =  -4.34920256520994
 Beta HF Exchange     Energy =  -4.34920256520994
 DFT Correlation      Energy =  -1.89420634170080
 DFT Exchange         Energy = -34.47061228139079
 One-Electron (alpha) Energy = -516.70146732963951
 One-Electron (beta)  Energy = -516.70146732963951
 Total Coulomb        Energy = 397.56033257879631
 Nuclear repulsion Energy = 163.61170222876729
 SCF   energy in the final basis set =     -517.2941236052
 Total energy in the final basis set =     -517.2941236052
 
 --------------------------------------------------------------
 
                    Orbital Energies (a.u.)
 --------------------------------------------------------------
 
 Alpha MOs
 -- Occupied --
-88.851 -10.218 -10.192 -10.182  -7.923  -5.888  -5.884  -5.877
 -0.816  -0.756  -0.665  -0.595  -0.480  -0.446  -0.415  -0.403
 -0.379  -0.351  -0.341  -0.317  -0.235
 -- Virtual --
  0.038   0.100   0.122   0.129   0.144   0.155   0.176   0.179
  0.185   0.219   0.237   0.308   0.369   0.383   0.399   0.502
  0.517   0.525   0.553   0.576   0.645   0.664   0.681   0.756
  0.769   0.794   0.838   0.849   0.857   0.882   0.887   0.909
  0.936   0.939   0.980   1.029   1.114   1.318   1.362   1.380
  1.449   1.561   1.606   1.657   1.680   1.825   1.859   1.939
  2.042   2.055   2.078   2.095   2.111   2.152   2.215   2.216
  2.225   2.257   2.274   2.338   2.437   2.481   2.518   2.602
  2.693   2.731   2.747   2.801   2.850   2.886   2.907   3.161
  3.192   3.248   3.315   3.332   3.465   3.477   3.551   3.958
  4.271   4.456   4.629
 
 Beta MOs
 -- Occupied --
-88.851 -10.218 -10.192 -10.182  -7.923  -5.888  -5.884  -5.877
 -0.816  -0.756  -0.665  -0.595  -0.480  -0.446  -0.415  -0.403
 -0.379  -0.351  -0.341  -0.317  -0.235
 -- Virtual --
  0.038   0.100   0.122   0.129   0.144   0.155   0.176   0.179
  0.185   0.219   0.237   0.308   0.369   0.383   0.399   0.502
  0.517   0.525   0.553   0.576   0.645   0.664   0.681   0.756
  0.769   0.794   0.838   0.849   0.857   0.882   0.887   0.909
  0.936   0.939   0.980   1.029   1.114   1.318   1.362   1.380
  1.449   1.561   1.606   1.657   1.680   1.825   1.859   1.939
  2.042   2.055   2.078   2.095   2.111   2.152   2.215   2.216
  2.225   2.257   2.274   2.338   2.437   2.481   2.518   2.602
  2.693   2.731   2.747   2.801   2.850   2.886   2.907   3.161
  3.192   3.248   3.315   3.332   3.465   3.477   3.551   3.958
  4.271   4.456   4.629
 --------------------------------------------------------------
 
          Ground-State Mulliken Net Atomic Charges

     Atom                 Charge (a.u.)    Spin (a.u.)
  --------------------------------------------------------
      1 S                    -0.040948       0.000000
      2 C                    -0.167813      -0.000000
      3 C                    -0.329074       0.000000
      4 C                    -0.323036       0.000000
      5 H                     0.116727       0.000000
      6 H                     0.098459      -0.000000
      7 H                     0.139300      -0.000000
      8 H                     0.133150      -0.000000
      9 H                     0.107126      -0.000000
     10 H                     0.109515      -0.000000
     11 H                     0.105154      -0.000000
     12 H                     0.051439      -0.000000
  --------------------------------------------------------
  Sum of atomic charges =     0.000000
  Sum of spin   charges =     0.000000

 -----------------------------------------------------------------
                    Cartesian Multipole Moments
 -----------------------------------------------------------------
    Charge (ESU x 10^10)
                -0.0000
    Dipole Moment (Debye)
         X      -1.7453      Y      -0.0584      Z      -0.8150
       Tot       1.9271
    Quadrupole Moments (Debye-Ang)
        XX     -38.7378     XY       0.7182     YY     -33.9424
        XZ      -1.9510     YZ      -1.5666     ZZ     -32.4643
    Octopole Moments (Debye-Ang^2)
       XXX     -50.4720    XXY       3.6904    XYY     -13.9226
       YYY      -4.7650    XXZ      -2.7757    XYZ      -3.5894
       YYZ       0.7793    XZZ     -11.2826    YZZ      -1.8482
       ZZZ       3.6084
    Hexadecapole Moments (Debye-Ang^3)
      XXXX    -684.0531   XXXY       1.5857   XXYY    -125.3270
      XYYY     -11.0665   YYYY     -93.6178   XXXZ      -2.0506
      XXYZ      -7.9806   XYYZ       0.8367   YYYZ      -0.4455
      XXZZ    -116.2460   XYZZ      -2.0020   YYZZ     -23.3072
      XZZZ       5.9724   YZZZ      -0.6074   ZZZZ     -59.8509
 -----------------------------------------------------------------
 Calculating analytic gradient of the SCF energy
 Gradient of SCF Energy
            1           2           3           4           5           6
    1  -0.0239161   0.0029753   0.0031282   0.0001283  -0.0012202  -0.0010011
    2   0.1166702   0.0013383  -0.0018432  -0.0003211  -0.0004989  -0.0005745
    3  -0.2187991  -0.0010526   0.0020889   0.0002506   0.0006738  -0.0003366
            7           8           9          10          11          12
    1  -0.0012293   0.0000797   0.0001106   0.0000290   0.0001335   0.0207821
    2   0.0000355   0.0010459   0.0002891   0.0001518   0.0003170  -0.1166101
    3   0.0001183  -0.0007238   0.0000462  -0.0000124  -0.0000782   0.2178247
 Max gradient component =       2.188E-01
 RMS gradient           =       5.859E-02
 Gradient time:  CPU 8.62 s  wall 0.75 s
 Geometry Optimization Parameters
   NAtoms,    NIC,     NZ,  NCons,   NDum,   NFix, NCnnct, MaxDiis
       12      75       0       1       0       0       0       0

 Cartesian Hessian Update
 Hessian Updated using BFGS Update


** CONSTRAINED OPTIMIZATION IN DELOCALIZED INTERNAL COORDINATES **
   Searching for a Minimum

   Optimization Cycle:   3

                       Coordinates (Angstroms)
     ATOM                X               Y               Z
      1  S         2.1758376253    0.1776340880   -0.0524609210
      2  C        -0.6250354065    0.5218103837   -0.0190811548
      3  C         0.4830791567   -0.5346636635   -0.0405992998
      4  C        -2.0212906927   -0.1124736049    0.0100923871
      5  H        -0.4962325707    1.1665847629    0.8573681490
      6  H        -0.5386892697    1.1632024413   -0.9046259700
      7  H         0.4264154656   -1.1653485347    0.8508652943
      8  H         0.3730734229   -1.1859626962   -0.9133774717
      9  H        -2.1537228465   -0.7380665770    0.8995618390
     10  H        -2.8002340120    0.6565054400    0.0256239909
     11  H        -2.1924105918   -0.7413163619   -0.8705509806
     12  H         2.0818097193    0.6958943223   -1.0198158623
   Point Group: c1    Number of degrees of freedom:    30


   Energy is   -517.294123605

              Constraints and their Current Values
                                        Value     Constraint
   Distance(Angs):        1  12             1.101458     1.100000
 Hessian Updated using BFGS Update

   Using Lagrange Multiplier Algorithm


 30 Hessian modes will be used to form the next step
  Hessian Eigenvalues:
    -0.688905    0.111252    0.111253    0.111256    0.171991    0.192280
     0.194316    0.204951    0.206763    0.208329    0.250176    0.308558
     0.322659    0.353480    0.395144    0.395565    0.395619    0.535344
     0.542498    0.611388    0.739244    0.745023    0.841517    0.841726
     0.847197    0.847355    0.847399    0.847557    0.847750    1.457801

 Minimum Search - Taking P-RFO Step
 Searching for Lamda that Maximizes Along the Constraint modes Only
 Value Taken    Lamda =   0.00175563
 Searching for Lamda that Minimizes Along All other modes
 Value Taken    Lamda =  -0.00151946
 Step Taken.  Stepsize is  0.017129

                             Maximum     Tolerance    Cnvgd?
         Gradient            0.057732       0.000300      NO
         Displacement        0.058780       0.001200      NO
         Energy change      0.030400       0.000001      NO


 New Cartesian Coordinates Obtained by Inverse Iteration

 Displacement from previous Coordinates is:  0.030997
 ----------------------------------------------------------------
             Standard Nuclear Orientation (Angstroms)
    I     Atom           X                Y                Z
 ----------------------------------------------------------------
    1      S       2.1799702742     0.1750034332    -0.0510355937
    2      C      -0.6280047465     0.5232232383    -0.0198643742
    3      C       0.4819476317    -0.5316570145    -0.0431178637
    4      C      -2.0237390362    -0.1133229854     0.0107985037
    5      H      -0.4954322850     1.1684848241     0.8555748078
    6      H      -0.5409362631     1.1655678631    -0.9047570151
    7      H       0.4283628610    -1.1621584293     0.8485330079
    8      H       0.3719747920    -1.1856554397    -0.9139221291
    9      H      -2.1541946121    -0.7399564152     0.8999636460
   10      H      -2.8043295703     0.6538599590     0.0277314534
   11      H      -2.1953733920    -0.7427175850    -0.8694713906
   12      H       2.0923543462     0.6931285513    -1.0174330525
 ----------------------------------------------------------------
 Nuclear Repulsion Energy =   163.4706298208 hartrees
 There are       21 alpha and       21 beta electrons

                       Distance Matrix (Angstroms)
             S (  1)   C (  2)   C (  3)   C (  4)   H (  5)   H (  6)
   C (  2)  2.829656
   C (  3)  1.839215  1.531440
   C (  4)  4.214039  1.534342  2.540940
   H (  5)  2.994449  1.095597  2.157175  2.166195
   H (  6)  3.018839  1.096915  2.160853  2.161598  1.760922
   H (  7)  2.380200  2.170377  1.093364  2.795471  2.507059  3.071136
   H (  8)  2.421738  2.172456  1.094581  2.782885  3.070096  2.522249
   H (  9)  4.530622  2.184253  2.807497  1.095583  2.528954  3.080689
   H ( 10)  5.007869  2.180762  3.494294  1.094613  2.506226  2.500866
   H ( 11)  4.544852  2.186569  2.809885  1.095660  3.085171  2.525858
   H ( 12)  1.100025  2.902476  2.245618  4.318547  3.229669  2.677707
             H (  7)   H (  8)   H (  9)   H ( 10)   H ( 11)
   H (  8)  1.763513
   H (  9)  2.617347  3.141713
   H ( 10)  3.797623  3.789385  1.768103
   H ( 11)  3.164089  2.605657  1.769916  1.768115
   H ( 12)  3.113324  2.549559  4.874764  5.007137  4.524175
 
 Applying Cartesian multipole field
    Component          Value
    ---------          -----
     (2,0,0)        1.00000E-11
     (0,2,0)        2.00000E-10
     (0,0,2)       -3.00000E-10
 Nucleus-field energy     =     0.0000000065 hartrees
 Requested basis set is 6-31G(d,p)
 There are 41 shells and 104 basis functions
 A cutoff of  1.0D-14 yielded    827 shell pairs
 There are      5419 function pairs
 Smallest overlap matrix eigenvalue = 5.57E-03
 Guess from superposition of atomic densities
 Warning:  Energy on first SCF cycle will be non-variational
 SAD guess density has 42.000000 electrons

 -----------------------------------------------------------------------
  General SCF calculation program by
  Eric Jon Sundstrom, Paul Horn, Yuezhi Mao, Dmitri Zuev, Alec White,
  David Stuck, Shaama M.S., Shane Yost, Joonho Lee, David Small,
  Daniel Levine, Susi Lehtola, Hugh Burton, Evgeny Epifanovsky
 -----------------------------------------------------------------------
 Exchange:     0.2000 Hartree-Fock + 0.0800 Slater + 0.7200 B88
 Correlation:  0.1900 VWN1RPA + 0.8100 LYP
 Using SG-1 standard quadrature grid
 using 12 threads for integral computing
 -------------------------------------------------------
 OpenMP Integral computing Module                
 Release: version 1.0, May 2013, Q-Chem Inc. Pittsburgh 
 -------------------------------------------------------
 -------------------------------------------------------
 OpenMP BLAS3 based DFT computing Module                
 Release: version 1.0, May 2013, Q-Chem Inc. Pittsburgh 
 -------------------------------------------------------
 A unrestricted SCF calculation will be
 performed using DIIS
 SCF converges when DIIS error is below 1.0e-06
 Alpha HF Exchange    Energy =  -4.37168740851347
 Beta HF Exchange     Energy =  -4.37168740851347
 DFT Correlation      Energy =  -1.87795950511789
 DFT Exchange         Energy = -34.05084363714896
 One-Electron (alpha) Energy = -514.54701237189647
 One-Electron (beta)  Energy = -514.54701237189647
 Total Coulomb        Energy = 392.41151728566143
 ---------------------------------------
  Cycle       Energy         DIIS error
 ---------------------------------------
    1    -517.8840555901      3.26e-02  
 Alpha HF Exchange    Energy =  -4.37945769691295
 Beta HF Exchange     Energy =  -4.37945769691294
 DFT Correlation      Energy =  -1.90770081264191
 DFT Exchange         Energy = -34.72614674126265
 One-Electron (alpha) Energy = -518.45356976999381
 One-Electron (beta)  Energy = -518.45356976999346
 Total Coulomb        Energy = 401.61491384766560
    2    -517.2143588128      3.61e-03  
 Alpha HF Exchange    Energy =  -4.32150202681871
 Beta HF Exchange     Energy =  -4.32150202681871
 DFT Correlation      Energy =  -1.88024560737308
 DFT Exchange         Energy = -34.23827609143405
 One-Electron (alpha) Energy = -514.61835752965737
 One-Electron (beta)  Energy = -514.61835752965726
 Total Coulomb        Energy = 393.33163264495067
    3    -517.1959783395      4.09e-03  
 Alpha HF Exchange    Energy =  -4.34801634619258
 Beta HF Exchange     Energy =  -4.34801634619257
 DFT Correlation      Energy =  -1.89402598735504
 DFT Exchange         Energy = -34.46191630471925
 One-Electron (alpha) Energy = -516.50923447863522
 One-Electron (beta)  Energy = -516.50923447863511
 Total Coulomb        Energy = 397.30740272912630
    4    -517.2924113853      4.16e-04  
 Alpha HF Exchange    Energy =  -4.34936113588535
 Beta HF Exchange     Energy =  -4.34936113588536
 DFT Correlation      Energy =  -1.89416414386471
 DFT Exchange         Energy = -34.47193239219973
 One-Electron (alpha) Energy = -516.57732466785603
 One-Electron (beta)  Energy = -516.57732466785637
 Total Coulomb        Energy = 397.45543940841418
    5    -517.2933989078      1.41e-04  
 Alpha HF Exchange    Energy =  -4.34917460597288
 Beta HF Exchange     Energy =  -4.34917460597287
 DFT Correlation      Energy =  -1.89413498350338
 DFT Exchange         Energy = -34.47059165683062
 One-Electron (alpha) Energy = -516.56558563712213
 One-Electron (beta)  Energy = -516.56558563712213
 Total Coulomb        Energy = 397.43011214301549
    6    -517.2935051562      4.68e-05  
 Alpha HF Exchange    Energy =  -4.34907422251248
 Beta HF Exchange     Energy =  -4.34907422251248
 DFT Correlation      Energy =  -1.89409795694955
 DFT Exchange         Energy = -34.46974034541979
 One-Electron (alpha) Energy = -516.55600901642379
 One-Electron (beta)  Energy = -516.55600901642390
 Total Coulomb        Energy = 397.40985854791489
    7    -517.2935164050      8.53e-06  
 Alpha HF Exchange    Energy =  -4.34911351835249
 Beta HF Exchange     Energy =  -4.34911351835250
 DFT Correlation      Energy =  -1.89411337773527
 DFT Exchange         Energy = -34.47005496372476
 One-Electron (alpha) Energy = -516.56003603241527
 One-Electron (beta)  Energy = -516.56003603241550
 Total Coulomb        Energy = 397.41832079410841
    8    -517.2935168216      1.31e-06  
 Alpha HF Exchange    Energy =  -4.34911173259504
 Beta HF Exchange     Energy =  -4.34911173259503
 DFT Correlation      Energy =  -1.89411260394816
 DFT Exchange         Energy = -34.47003982716734
 One-Electron (alpha) Energy = -516.55980759848569
 One-Electron (beta)  Energy = -516.55980759848535
 Total Coulomb        Energy = 397.41784443513370
    9    -517.2935168309      4.41e-07  Convergence criterion met
 ---------------------------------------
 SCF time:   CPU 22.52s  wall 2.00s 
<S^2> =          0.000000000
 Alpha HF Exchange    Energy =  -4.34911173259504
 Beta HF Exchange     Energy =  -4.34911173259503
 DFT Correlation      Energy =  -1.89411260394816
 DFT Exchange         Energy = -34.47003982716734
 One-Electron (alpha) Energy = -516.55980759848569
 One-Electron (beta)  Energy = -516.55980759848535
 Total Coulomb        Energy = 397.41784443513370
 Nuclear repulsion Energy = 163.47062982728690
 SCF   energy in the final basis set =     -517.2935168309
 Total energy in the final basis set =     -517.2935168309
 
 --------------------------------------------------------------
 
                    Orbital Energies (a.u.)
 --------------------------------------------------------------
 
 Alpha MOs
 -- Occupied --
-88.851 -10.218 -10.192 -10.182  -7.923  -5.888  -5.884  -5.877
 -0.816  -0.756  -0.666  -0.595  -0.479  -0.446  -0.415  -0.403
 -0.379  -0.351  -0.341  -0.317  -0.236
 -- Virtual --
  0.037   0.100   0.122   0.129   0.144   0.155   0.176   0.179
  0.185   0.219   0.237   0.307   0.369   0.383   0.399   0.502
  0.517   0.525   0.553   0.576   0.645   0.665   0.682   0.756
  0.768   0.795   0.838   0.849   0.857   0.882   0.887   0.909
  0.936   0.939   0.979   1.028   1.113   1.318   1.362   1.380
  1.451   1.561   1.606   1.656   1.680   1.825   1.858   1.937
  2.042   2.055   2.079   2.094   2.112   2.151   2.215   2.216
  2.225   2.256   2.273   2.337   2.437   2.482   2.517   2.602
  2.694   2.731   2.746   2.802   2.850   2.884   2.907   3.162
  3.193   3.249   3.315   3.332   3.465   3.477   3.551   3.957
  4.271   4.455   4.628
 
 Beta MOs
 -- Occupied --
-88.851 -10.218 -10.192 -10.182  -7.923  -5.888  -5.884  -5.877
 -0.816  -0.756  -0.666  -0.595  -0.479  -0.446  -0.415  -0.403
 -0.379  -0.351  -0.341  -0.317  -0.236
 -- Virtual --
  0.037   0.100   0.122   0.129   0.144   0.155   0.176   0.179
  0.185   0.219   0.237   0.307   0.369   0.383   0.399   0.502
  0.517   0.525   0.553   0.576   0.645   0.665   0.682   0.756
  0.768   0.795   0.838   0.849   0.857   0.882   0.887   0.909
  0.936   0.939   0.979   1.028   1.113   1.318   1.362   1.380
  1.451   1.561   1.606   1.656   1.680   1.825   1.858   1.937
  2.042   2.055   2.079   2.094   2.112   2.151   2.215   2.216
  2.225   2.256   2.273   2.337   2.437   2.482   2.517   2.602
  2.694   2.731   2.746   2.802   2.850   2.884   2.907   3.162
  3.193   3.249   3.315   3.332   3.465   3.477   3.551   3.957
  4.271   4.455   4.628
 --------------------------------------------------------------
 
          Ground-State Mulliken Net Atomic Charges

     Atom                 Charge (a.u.)    Spin (a.u.)
  --------------------------------------------------------
      1 S                    -0.041692       0.000000
      2 C                    -0.167525       0.000000
      3 C                    -0.329146       0.000000
      4 C                    -0.323077      -0.000000
      5 H                     0.116740      -0.000000
      6 H                     0.098552      -0.000000
      7 H                     0.139248       0.000000
      8 H                     0.133119      -0.000000
      9 H                     0.107303       0.000000
     10 H                     0.109711      -0.000000
     11 H                     0.105338      -0.000000
     12 H                     0.051429      -0.000000
  --------------------------------------------------------
  Sum of atomic charges =    -0.000000
  Sum of spin   charges =    -0.000000

 -----------------------------------------------------------------
                    Cartesian Multipole Moments
 -----------------------------------------------------------------
    Charge (ESU x 10^10)
                -0.0000
    Dipole Moment (Debye)
         X      -1.7462      Y      -0.0543      Z      -0.8194
       Tot       1.9297
    Quadrupole Moments (Debye-Ang)
        XX     -38.6947     XY       0.7378     YY     -33.9482
        XZ      -1.9695     YZ      -1.5573     ZZ     -32.4797
    Octopole Moments (Debye-Ang^2)
       XXX     -50.4970    XXY       3.7365    XYY     -13.9656
       YYY      -4.7062    XXZ      -2.8640    XYZ      -3.5877
       YYZ       0.7730    XZZ     -11.2994    YZZ      -1.8345
       ZZZ       3.5856
    Hexadecapole Moments (Debye-Ang^3)
      XXXX    -685.5130   XXXY       1.8904   XXYY    -125.7185
      XYYY     -10.8970   YYYY     -93.4990   XXXZ      -2.3875
      XXYZ      -7.9918   XYYZ       0.8269   YYYZ      -0.4622
      XXZZ    -116.5748   XYZZ      -1.9535   YYZZ     -23.2916
      XZZZ       5.8867   YZZZ      -0.6392   ZZZZ     -59.8280
 -----------------------------------------------------------------
 Calculating analytic gradient of the SCF energy
 Gradient of SCF Energy
            1           2           3           4           5           6
    1  -0.0215377   0.0020713   0.0023384  -0.0001298  -0.0008213  -0.0006806
    2   0.1179877   0.0011764  -0.0013601  -0.0003087  -0.0004234  -0.0004585
    3  -0.2208277  -0.0007783   0.0016725   0.0001662   0.0004798  -0.0002487
            7           8           9          10          11          12
    1  -0.0009004   0.0000093   0.0000326  -0.0000197   0.0000231   0.0196149
    2   0.0000951   0.0007662   0.0001856   0.0000673   0.0001971  -0.1179246
    3  -0.0000083  -0.0005438   0.0000471  -0.0000051  -0.0000615   0.2201077
 Max gradient component =       2.208E-01
 RMS gradient           =       5.914E-02
 Gradient time:  CPU 8.74 s  wall 0.78 s
 Geometry Optimization Parameters
   NAtoms,    NIC,     NZ,  NCons,   NDum,   NFix, NCnnct, MaxDiis
       12      75       0       1       0       0       0       0

 Cartesian Hessian Update
 Hessian Updated using BFGS Update


** CONSTRAINED OPTIMIZATION IN DELOCALIZED INTERNAL COORDINATES **
   Searching for a Minimum

   Optimization Cycle:   4

                       Coordinates (Angstroms)
     ATOM                X               Y               Z
      1  S         2.1799702742    0.1750034332   -0.0510355937
      2  C        -0.6280047465    0.5232232383   -0.0198643742
      3  C         0.4819476317   -0.5316570145   -0.0431178637
      4  C        -2.0237390362   -0.1133229854    0.0107985037
      5  H        -0.4954322850    1.1684848241    0.8555748078
      6  H        -0.5409362631    1.1655678631   -0.9047570151
      7  H         0.4283628610   -1.1621584293    0.8485330079
      8  H         0.3719747920   -1.1856554397   -0.9139221291
      9  H        -2.1541946121   -0.7399564152    0.8999636460
     10  H        -2.8043295703    0.6538599590    0.0277314534
     11  H        -2.1953733920   -0.7427175850   -0.8694713906
     12  H         2.0923543462    0.6931285513   -1.0174330525
   Point Group: c1    Number of degrees of freedom:    30


   Energy is   -517.293516831

              Constraints and their Current Values
                                        Value     Constraint
   Distance(Angs):        1  12             1.100025     1.100000
 Hessian Updated using BFGS Update

   Using Lagrange Multiplier Algorithm


 31 Hessian modes will be used to form the next step
  Hessian Eigenvalues:
    -0.635650    0.081601    0.111253    0.111253    0.113799    0.172017
     0.194220    0.204631    0.206758    0.208056    0.234007    0.288057
     0.322540    0.350887    0.389684    0.395531    0.395565    0.396266
     0.480738    0.543591    0.593357    0.740615    0.751034    0.841384
     0.841772    0.847161    0.847233    0.847402    0.847698    0.848020
     1.574323

 Minimum Search - Taking P-RFO Step
 Searching for Lamda that Maximizes Along the Constraint modes Only
 Value Taken    Lamda =   0.00000109
 Searching for Lamda that Minimizes Along All other modes
 Value Taken    Lamda =  -0.00011622
 Step Taken.  Stepsize is  0.036218

                             Maximum     Tolerance    Cnvgd?
         Gradient            0.001909       0.000300      NO
         Displacement        0.021705       0.001200      NO
         Energy change      0.000607       0.000001      NO


 New Cartesian Coordinates Obtained by Inverse Iteration

 Displacement from previous Coordinates is:  0.061172
 ----------------------------------------------------------------
             Standard Nuclear Orientation (Angstroms)
    I     Atom           X                Y                Z
 ----------------------------------------------------------------
    1      S       2.1867355941     0.1695928909    -0.0468030658
    2      C      -0.6341832767     0.5260513838    -0.0214781424
    3      C       0.4785975143    -0.5259356237    -0.0484283912
    4      C      -2.0281049744    -0.1149456506     0.0122530585
    5      H      -0.4936833957     1.1725300532     0.8517120205
    6      H      -0.5454572460     1.1706834674    -0.9048197211
    7      H       0.4316823605    -1.1560554382     0.8438070989
    8      H       0.3694411968    -1.1860068021    -0.9148116922
    9      H      -2.1540507785    -0.7438313098     0.9007278561
   10      H      -2.8119719554     0.6485980396     0.0321568014
   11      H      -2.2002382119    -0.7454040438    -0.8673536654
   12      H       2.1138331730     0.6885230334    -1.0139621573
 ----------------------------------------------------------------
 Nuclear Repulsion Energy =   163.2092998979 hartrees
 There are       21 alpha and       21 beta electrons

                       Distance Matrix (Angstroms)
             S (  1)   C (  2)   C (  3)   C (  4)   H (  5)   H (  6)
   C (  2)  2.843464
   C (  3)  1.844315  1.531563
   C (  4)  4.224847  1.534612  2.540896
   H (  5)  2.999643  1.095507  2.154151  2.171804
   H (  6)  3.033686  1.097140  2.158845  2.166128  1.757296
   H (  7)  2.372918  2.171237  1.093314  2.797489  2.505728  3.070214
   H (  8)  2.427684  2.176339  1.094637  2.784753  3.070551  2.528068
   H (  9)  4.535922  2.184734  2.806994  1.095786  2.536072  3.084306
   H ( 10)  5.022226  2.181893  3.494835  1.094460  2.514088  2.507506
   H ( 11)  4.555882  2.187380  2.809798  1.095817  3.089658  2.532014
   H ( 12)  1.100000  2.926263  2.254143  4.342157  3.242552  2.704851
             H (  7)   H (  8)   H (  9)   H ( 10)   H ( 11)
   H (  8)  1.759975
   H (  9)  2.619004  3.140018
   H ( 10)  3.799585  3.792613  1.768088
   H ( 11)  3.166025  2.607611  1.768685  1.768214
   H ( 12)  3.111817  2.562537  4.892086  5.035823  4.548500
 
 Applying Cartesian multipole field
    Component          Value
    ---------          -----
     (2,0,0)        1.00000E-11
     (0,2,0)        2.00000E-10
     (0,0,2)       -3.00000E-10
 Nucleus-field energy     =     0.0000000065 hartrees
 Requested basis set is 6-31G(d,p)
 There are 41 shells and 104 basis functions
 A cutoff of  1.0D-14 yielded    827 shell pairs
 There are      5419 function pairs
 Smallest overlap matrix eigenvalue = 5.60E-03
 Guess from superposition of atomic densities
 Warning:  Energy on first SCF cycle will be non-variational
 SAD guess density has 42.000000 electrons

 -----------------------------------------------------------------------
  General SCF calculation program by
  Eric Jon Sundstrom, Paul Horn, Yuezhi Mao, Dmitri Zuev, Alec White,
  David Stuck, Shaama M.S., Shane Yost, Joonho Lee, David Small,
  Daniel Levine, Susi Lehtola, Hugh Burton, Evgeny Epifanovsky
 -----------------------------------------------------------------------
 Exchange:     0.2000 Hartree-Fock + 0.0800 Slater + 0.7200 B88
 Correlation:  0.1900 VWN1RPA + 0.8100 LYP
 Using SG-1 standard quadrature grid
 using 12 threads for integral computing
 -------------------------------------------------------
 OpenMP Integral computing Module                
 Release: version 1.0, May 2013, Q-Chem Inc. Pittsburgh 
 -------------------------------------------------------
 -------------------------------------------------------
 OpenMP BLAS3 based DFT computing Module                
 Release: version 1.0, May 2013, Q-Chem Inc. Pittsburgh 
 -------------------------------------------------------
 A unrestricted SCF calculation will be
 performed using DIIS
 SCF converges when DIIS error is below 1.0e-06
 Alpha HF Exchange    Energy =  -4.37103745424310
 Beta HF Exchange     Energy =  -4.37103745424310
 DFT Correlation      Energy =  -1.87775346279836
 DFT Exchange         Energy = -34.04965370337776
 One-Electron (alpha) Energy = -514.28743858906159
 One-Electron (beta)  Energy = -514.28743858906159
 Total Coulomb        Energy = 392.15687075805891
 ---------------------------------------
  Cycle       Energy         DIIS error
 ---------------------------------------
    1    -517.8781885903      3.26e-02  
 Alpha HF Exchange    Energy =  -4.37913684676893
 Beta HF Exchange     Energy =  -4.37913684676893
 DFT Correlation      Energy =  -1.90747725449368
 DFT Exchange         Energy = -34.72391749230258
 One-Electron (alpha) Energy = -518.18637500873956
 One-Electron (beta)  Energy = -518.18637500873979
 Total Coulomb        Energy = 401.33833152055092
    2    -517.2147870328      3.61e-03  
 Alpha HF Exchange    Energy =  -4.32133736485825
 Beta HF Exchange     Energy =  -4.32133736485826
 DFT Correlation      Energy =  -1.88009213188389
 DFT Exchange         Energy = -34.23728516468699
 One-Electron (alpha) Energy = -514.36693928493912
 One-Electron (beta)  Energy = -514.36693928493969
 Total Coulomb        Energy = 393.08813731070109
    3    -517.1964933810      4.08e-03  
 Alpha HF Exchange    Energy =  -4.34774681868647
 Beta HF Exchange     Energy =  -4.34774681868647
 DFT Correlation      Energy =  -1.89383222039613
 DFT Exchange         Energy = -34.46010659312989
 One-Electron (alpha) Energy = -516.24783165618783
 One-Electron (beta)  Energy = -516.24783165618783
 Total Coulomb        Energy = 397.04335161365231
    4    -517.2924442452      4.19e-04  
 Alpha HF Exchange    Energy =  -4.34910238622380
 Beta HF Exchange     Energy =  -4.34910238622380
 DFT Correlation      Energy =  -1.89397098455691
 DFT Exchange         Energy = -34.47019762516842
 One-Electron (alpha) Energy = -516.31677371136118
 One-Electron (beta)  Energy = -516.31677371136141
 Total Coulomb        Energy = 397.19317449998687
    5    -517.2934464005      1.42e-04  
 Alpha HF Exchange    Energy =  -4.34891453888114
 Beta HF Exchange     Energy =  -4.34891453888114
 DFT Correlation      Energy =  -1.89394152854973
 DFT Exchange         Energy = -34.46884875921065
 One-Electron (alpha) Energy = -516.30486973821701
 One-Electron (beta)  Energy = -516.30486973821735
 Total Coulomb        Energy = 397.16750455623497
    6    -517.2935543813      4.70e-05  
 Alpha HF Exchange    Energy =  -4.34881300296402
 Beta HF Exchange     Energy =  -4.34881300296403
 DFT Correlation      Energy =  -1.89390408616482
 DFT Exchange         Energy = -34.46798730764515
 One-Electron (alpha) Energy = -516.29520860249170
 One-Electron (beta)  Energy = -516.29520860249181
 Total Coulomb        Energy = 397.14706894856636
    7    -517.2935657517      8.58e-06  
 Alpha HF Exchange    Energy =  -4.34885249224034
 Beta HF Exchange     Energy =  -4.34885249224034
 DFT Correlation      Energy =  -1.89391959761592
 DFT Exchange         Energy = -34.46830361886306
 One-Electron (alpha) Energy = -516.29925283650198
 One-Electron (beta)  Energy = -516.29925283650175
 Total Coulomb        Energy = 397.15556779650308
    8    -517.2935661730      1.32e-06  
 Alpha HF Exchange    Energy =  -4.34885073162401
 Beta HF Exchange     Energy =  -4.34885073162401
 DFT Correlation      Energy =  -1.89391883211897
 DFT Exchange         Energy = -34.46828867502811
 One-Electron (alpha) Energy = -516.29902658675439
 One-Electron (beta)  Energy = -516.29902658675451
 Total Coulomb        Energy = 397.15509605706143
    9    -517.2935661824      4.44e-07  Convergence criterion met
 ---------------------------------------
 SCF time:   CPU 22.30s  wall 2.00s 
<S^2> =         -0.000000000
 Alpha HF Exchange    Energy =  -4.34885073162401
 Beta HF Exchange     Energy =  -4.34885073162401
 DFT Correlation      Energy =  -1.89391883211897
 DFT Exchange         Energy = -34.46828867502811
 One-Electron (alpha) Energy = -516.29902658675439
[...]
     0.535889    0.590777    0.666812    0.742661    0.839840    0.841509
     0.844000    0.847205    0.847248    0.847408    0.847714

 Minimum Search - Taking Simple RFO Step
 Searching for Lamda that Minimizes Along All modes
 Value Taken    Lamda =  -0.00000361
 Step Taken.  Stepsize is  0.006319

                             Maximum     Tolerance    Cnvgd?
         Gradient           0.000402      0.000300      NO
         Displacement       0.002133      0.001200      NO
         Energy change     -0.000003      0.000001      NO


 New Cartesian Coordinates Obtained by Inverse Iteration

 Displacement from previous Coordinates is:  0.007480
 ----------------------------------------------------------------
             Standard Nuclear Orientation (Angstroms)
    I     Atom           X                Y                Z
 ----------------------------------------------------------------
    1      S       2.1842931663     0.1700397465    -0.0447251309
    2      C      -0.6350731923     0.5260998593    -0.0222065033
    3      C       0.4765592696    -0.5258420201    -0.0502604943
    4      C      -2.0275210079    -0.1147816066     0.0126809949
    5      H      -0.4930405623     1.1733168060     0.8503389178
    6      H      -0.5465872488     1.1717001651    -0.9050413383
    7      H       0.4313688549    -1.1556987744     0.8427637325
    8      H       0.3688876145    -1.1877743114    -0.9153382167
    9      H      -2.1516373664    -0.7441153238     0.9010482139
   10      H      -2.8118459648     0.6482185711     0.0333869476
   11      H      -2.1990414813    -0.7453450348    -0.8668804905
   12      H       2.1162379186     0.6879819230    -1.0127666327
 ----------------------------------------------------------------
 Nuclear Repulsion Energy =   163.2715367890 hartrees
 There are       21 alpha and       21 beta electrons

                       Distance Matrix (Angstroms)
             S (  1)   C (  2)   C (  3)   C (  4)   H (  5)   H (  6)
   C (  2)  2.841850
   C (  3)  1.844082  1.530717
   C (  4)  4.221824  1.533251  2.538376
   H (  5)  2.995967  1.095627  2.153681  2.171520
   H (  6)  3.033344  1.097282  2.158501  2.165736  1.756198
   H (  7)  2.370224  2.171156  1.093734  2.796191  2.505774  3.070506
   H (  8)  2.428441  2.177840  1.094581  2.784835  3.071691  2.530873
   H (  9)  4.531055  2.183074  2.803578  1.095747  2.535756  3.083585
   H ( 10)  5.019578  2.180904  3.492710  1.094424  2.513960  2.507205
   H ( 11)  4.552745  2.185416  2.806045  1.095745  3.088777  2.531230
   H ( 12)  1.100000  2.928673  2.255733  4.343583  3.242691  2.708547
             H (  7)   H (  8)   H (  9)   H ( 10)   H ( 11)
   H (  8)  1.759504
   H (  9)  2.616241  3.138334
   H ( 10)  3.798375  3.793154  1.768419
   H ( 11)  3.163911  2.606214  1.768565  1.768624
   H ( 12)  3.111420  2.565382  4.891661  5.038058  4.549434
 
 Applying Cartesian multipole field
    Component          Value
    ---------          -----
     (2,0,0)        1.00000E-11
     (0,2,0)        2.00000E-10
     (0,0,2)       -3.00000E-10
 Nucleus-field energy     =     0.0000000065 hartrees
 Requested basis set is 6-31G(d,p)
 There are 41 shells and 104 basis functions
 A cutoff of  1.0D-14 yielded    827 shell pairs
 There are      5419 function pairs
 Smallest overlap matrix eigenvalue = 5.58E-03
 Guess from superposition of atomic densities
 Warning:  Energy on first SCF cycle will be non-variational
 SAD guess density has 42.000000 electrons

 -----------------------------------------------------------------------
  General SCF calculation program by
  Eric Jon Sundstrom, Paul Horn, Yuezhi Mao, Dmitri Zuev, Alec White,
  David Stuck, Shaama M.S., Shane Yost, Joonho Lee, David Small,
  Daniel Levine, Susi Lehtola, Hugh Burton, Evgeny Epifanovsky
 -----------------------------------------------------------------------
 Exchange:     0.2000 Hartree-Fock + 0.0800 Slater + 0.7200 B88
 Correlation:  0.1900 VWN1RPA + 0.8100 LYP
 Using SG-1 standard quadrature grid
 using 12 threads for integral computing
 -------------------------------------------------------
 OpenMP Integral computing Module                
 Release: version 1.0, May 2013, Q-Chem Inc. Pittsburgh 
 -------------------------------------------------------
 -------------------------------------------------------
 OpenMP BLAS3 based DFT computing Module                
 Release: version 1.0, May 2013, Q-Chem Inc. Pittsburgh 
 -------------------------------------------------------
 A unrestricted SCF calculation will be
 performed using DIIS
 SCF converges when DIIS error is below 1.0e-06
 Alpha HF Exchange    Energy =  -4.37128753962103
 Beta HF Exchange     Energy =  -4.37128753962103
 DFT Correlation      Energy =  -1.87781747410869
 DFT Exchange         Energy = -34.05012821265538
 One-Electron (alpha) Energy = -514.34898879331990
 One-Electron (beta)  Energy = -514.34898879331990
 Total Coulomb        Energy = 392.21640760962612
 ---------------------------------------
  Cycle       Energy         DIIS error
 ---------------------------------------
    1    -517.8805539475      3.26e-02  
 Alpha HF Exchange    Energy =  -4.37924017016114
 Beta HF Exchange     Energy =  -4.37924017016114
 DFT Correlation      Energy =  -1.90755265240860
 DFT Exchange         Energy = -34.72466042468213
 One-Electron (alpha) Energy = -518.25073687618476
 One-Electron (beta)  Energy = -518.25073687618487
 Total Coulomb        Energy = 401.40597507677916
    2    -517.2146552974      3.61e-03  
 Alpha HF Exchange    Energy =  -4.32138540827682
 Beta HF Exchange     Energy =  -4.32138540827682
 DFT Correlation      Energy =  -1.88013836877008
 DFT Exchange         Energy = -34.23759507913665
 One-Electron (alpha) Energy = -514.42543604920775
 One-Electron (beta)  Energy = -514.42543604920786
 Total Coulomb        Energy = 393.14360562745730
    3    -517.1962339399      4.08e-03  
 Alpha HF Exchange    Energy =  -4.34782901135986
 Beta HF Exchange     Energy =  -4.34782901135987
 DFT Correlation      Energy =  -1.89389696219315
 DFT Exchange         Energy = -34.46068661951458
 One-Electron (alpha) Energy = -516.30992191389601
 One-Electron (beta)  Energy = -516.30992191389601
 Total Coulomb        Energy = 397.10610232957004
    4    -517.2924463071      4.19e-04  
 Alpha HF Exchange    Energy =  -4.34918438817451
 Beta HF Exchange     Energy =  -4.34918438817451
 DFT Correlation      Energy =  -1.89403528056668
 DFT Exchange         Energy = -34.47077562222580
 One-Electron (alpha) Energy = -516.37877439140095
 One-Electron (beta)  Energy = -516.37877439140107
 Total Coulomb        Energy = 397.25574071661566
    5    -517.2934509498      1.43e-04  
 Alpha HF Exchange    Energy =  -4.34899739728879
 Beta HF Exchange     Energy =  -4.34899739728880
 DFT Correlation      Energy =  -1.89400617370984
 DFT Exchange         Energy = -34.46943394342333
 One-Electron (alpha) Energy = -516.36694291982553
 One-Electron (beta)  Energy = -516.36694291982576
 Total Coulomb        Energy = 397.23022478660528
    6    -517.2935591692      4.70e-05  
 Alpha HF Exchange    Energy =  -4.34889545137473
 Beta HF Exchange     Energy =  -4.34889545137472
 DFT Correlation      Energy =  -1.89396857881384
 DFT Exchange         Energy = -34.46856914977441
 One-Electron (alpha) Energy = -516.35725396141675
 One-Electron (beta)  Energy = -516.35725396141640
 Total Coulomb        Energy = 397.20972922005950
    7    -517.2935705385      8.58e-06  
 Alpha HF Exchange    Energy =  -4.34893494606024
 Beta HF Exchange     Energy =  -4.34893494606024
 DFT Correlation      Energy =  -1.89398409160330
 DFT Exchange         Energy = -34.46888549271808
 One-Electron (alpha) Energy = -516.36129838832198
 One-Electron (beta)  Energy = -516.36129838832187
 Total Coulomb        Energy = 397.21822849766664
    8    -517.2935709599      1.32e-06  
 Alpha HF Exchange    Energy =  -4.34893319214556
 Beta HF Exchange     Energy =  -4.34893319214556
 DFT Correlation      Energy =  -1.89398332832126
 DFT Exchange         Energy = -34.46887060058998
 One-Electron (alpha) Energy = -516.36107252737713
 One-Electron (beta)  Energy = -516.36107252737725
 Total Coulomb        Energy = 397.21775760316200
    9    -517.2935709692      4.43e-07  Convergence criterion met
 ---------------------------------------
 SCF time:   CPU 22.54s  wall 2.00s 
<S^2> =         -0.000000000
 Alpha HF Exchange    Energy =  -4.34893319214556
 Beta HF Exchange     Energy =  -4.34893319214556
 DFT Correlation      Energy =  -1.89398332832126
 DFT Exchange         Energy = -34.46887060058998
 One-Electron (alpha) Energy = -516.36107252737713
 One-Electron (beta)  Energy = -516.36107252737725
 Total Coulomb        Energy = 397.21775760316200
 Nuclear repulsion Energy = 163.27153679556201
 SCF   energy in the final basis set =     -517.2935709692
 Total energy in the final basis set =     -517.2935709692
 
 --------------------------------------------------------------
 
                    Orbital Energies (a.u.)
 --------------------------------------------------------------
 
 Alpha MOs
 -- Occupied --
-88.851 -10.218 -10.192 -10.183  -7.923  -5.888  -5.884  -5.877
 -0.815  -0.756  -0.666  -0.596  -0.479  -0.446  -0.415  -0.402
 -0.379  -0.352  -0.341  -0.317  -0.236
 -- Virtual --
  0.037   0.100   0.122   0.129   0.144   0.155   0.176   0.179
  0.185   0.220   0.237   0.306   0.369   0.383   0.399   0.502
  0.517   0.525   0.553   0.575   0.645   0.666   0.684   0.756
  0.768   0.796   0.838   0.849   0.856   0.882   0.887   0.910
  0.936   0.939   0.978   1.024   1.112   1.318   1.362   1.382
  1.452   1.559   1.606   1.654   1.680   1.825   1.857   1.935
  2.043   2.054   2.082   2.093   2.113   2.149   2.214   2.216
  2.226   2.256   2.273   2.336   2.435   2.485   2.516   2.604
  2.694   2.732   2.746   2.803   2.851   2.882   2.907   3.163
  3.193   3.248   3.313   3.333   3.464   3.477   3.551   3.957
  4.271   4.454   4.628
 
 Beta MOs
 -- Occupied --
-88.851 -10.218 -10.192 -10.183  -7.923  -5.888  -5.884  -5.877
 -0.815  -0.756  -0.666  -0.596  -0.479  -0.446  -0.415  -0.402
 -0.379  -0.352  -0.341  -0.317  -0.236
 -- Virtual --
  0.037   0.100   0.122   0.129   0.144   0.155   0.176   0.179
  0.185   0.220   0.237   0.306   0.369   0.383   0.399   0.502
  0.517   0.525   0.553   0.575   0.645   0.666   0.684   0.756
  0.768   0.796   0.838   0.849   0.856   0.882   0.887   0.910
  0.936   0.939   0.978   1.024   1.112   1.318   1.362   1.382
  1.452   1.559   1.606   1.654   1.680   1.825   1.857   1.935
  2.043   2.054   2.082   2.093   2.113   2.149   2.214   2.216
  2.226   2.256   2.273   2.336   2.435   2.485   2.516   2.604
  2.694   2.732   2.746   2.803   2.851   2.882   2.907   3.163
  3.193   3.248   3.313   3.333   3.464   3.477   3.551   3.957
  4.271   4.454   4.628
 --------------------------------------------------------------
 
          Ground-State Mulliken Net Atomic Charges

     Atom                 Charge (a.u.)    Spin (a.u.)
  --------------------------------------------------------
      1 S                    -0.044039      -0.000000
      2 C                    -0.166624       0.000000
      3 C                    -0.329238       0.000000
      4 C                    -0.322857      -0.000000
      5 H                     0.116816      -0.000000
      6 H                     0.098705       0.000000
      7 H                     0.139092      -0.000000
      8 H                     0.133158       0.000000
      9 H                     0.107620       0.000000
     10 H                     0.109987      -0.000000
     11 H                     0.105664       0.000000
     12 H                     0.051716       0.000000
  --------------------------------------------------------
  Sum of atomic charges =    -0.000000
  Sum of spin   charges =     0.000000

 -----------------------------------------------------------------
                    Cartesian Multipole Moments
 -----------------------------------------------------------------
    Charge (ESU x 10^10)
                -0.0000
    Dipole Moment (Debye)
         X      -1.7441      Y      -0.0478      Z      -0.8330
       Tot       1.9334
    Quadrupole Moments (Debye-Ang)
        XX     -38.6018     XY       0.7760     YY     -33.9535
        XZ      -2.0209     YZ      -1.5285     ZZ     -32.5188
    Octopole Moments (Debye-Ang^2)
       XXX     -50.2675    XXY       3.8549    XYY     -13.9981
       YYY      -4.6095    XXZ      -3.1076    XYZ      -3.5644
       YYZ       0.7212    XZZ     -11.2782    YZZ      -1.8233
       ZZZ       3.4514
    Hexadecapole Moments (Debye-Ang^3)
      XXXX    -686.7348   XXXY       2.5304   XXYY    -126.2515
      XYYY     -10.5814   YYYY     -93.3197   XXXZ      -3.4325
      XXYZ      -7.9512   XYYZ       0.7130   YYYZ      -0.4988
      XXZZ    -116.9950   XYZZ      -1.8792   YYZZ     -23.2773
      XZZZ       5.4551   YZZZ      -0.7192   ZZZZ     -59.7920
 -----------------------------------------------------------------
 Calculating analytic gradient of the SCF energy
 Gradient of SCF Energy
            1           2           3           4           5           6
    1  -0.0153846  -0.0001114  -0.0001330   0.0000309  -0.0000123   0.0000119
    2   0.1180218   0.0001614  -0.0000066  -0.0001183  -0.0000347  -0.0000333
    3  -0.2206643  -0.0000264   0.0000435  -0.0000101   0.0000147   0.0000012
            7           8           9          10          11          12
    1   0.0000460   0.0000214   0.0000220   0.0000147   0.0000106   0.0154839
    2   0.0000283  -0.0000374  -0.0000132  -0.0000107  -0.0000137  -0.1179437
    3  -0.0000204   0.0000152   0.0000207   0.0000208   0.0000091   0.2205960
 Max gradient component =       2.207E-01
 RMS gradient           =       5.908E-02
 Gradient time:  CPU 8.54 s  wall 0.75 s
 Geometry Optimization Parameters
   NAtoms,    NIC,     NZ,  NCons,   NDum,   NFix, NCnnct, MaxDiis
       12      75       0       1       0       0       0       0

 Cartesian Hessian Update
 Hessian Updated using BFGS Update
**WARNING** Hereditary positive definiteness endangered
**WARNING** Small Scalar Product
 Hessian Update Skipped this cycle


** CONSTRAINED OPTIMIZATION IN DELOCALIZED INTERNAL COORDINATES **
   Searching for a Minimum

   Optimization Cycle:   7

                       Coordinates (Angstroms)
     ATOM                X               Y               Z
      1  S         2.1842931663    0.1700397465   -0.0447251309
      2  C        -0.6350731923    0.5260998593   -0.0222065033
      3  C         0.4765592696   -0.5258420201   -0.0502604943
      4  C        -2.0275210079   -0.1147816066    0.0126809949
      5  H        -0.4930405623    1.1733168060    0.8503389178
      6  H        -0.5465872488    1.1717001651   -0.9050413383
      7  H         0.4313688549   -1.1556987744    0.8427637325
      8  H         0.3688876145   -1.1877743114   -0.9153382167
      9  H        -2.1516373664   -0.7441153238    0.9010482139
     10  H        -2.8118459648    0.6482185711    0.0333869476
     11  H        -2.1990414813   -0.7453450348   -0.8668804905
     12  H         2.1162379186    0.6879819230   -1.0127666327
   Point Group: c1    Number of degrees of freedom:    30


   Energy is   -517.293570969

              Constraints and their Current Values
                                        Value     Constraint
   Distance(Angs):        1  12             1.100000     1.100000
 Hessian Updated using BFGS Update

 29 Hessian modes will be used to form the next step
  Hessian Eigenvalues:
     0.052006    0.111112    0.111253    0.115483    0.171523    0.181816
     0.194693    0.204662    0.206783    0.222117    0.290578    0.322752
     0.338541    0.364175    0.390190    0.395565    0.397314    0.417080
     0.546965    0.588409    0.675775    0.744413    0.839261    0.841556
     0.843854    0.847204    0.847301    0.847430    0.847718

 Minimum Search - Taking Simple RFO Step
 Searching for Lamda that Minimizes Along All modes
 Value Taken    Lamda =   0.00000000
 Step Taken.  Stepsize is  0.001235

                             Maximum     Tolerance    Cnvgd?
         Gradient           0.000113      0.000300     YES
         Displacement       0.000674      0.001200     YES
         Energy change     -0.000002      0.000001      NO


                       Distance Matrix (Angstroms)
             S (  1)   C (  2)   C (  3)   C (  4)   H (  5)   H (  6)
   C (  2)  2.841850
   C (  3)  1.844082  1.530717
   C (  4)  4.221824  1.533251  2.538376
   H (  5)  2.995967  1.095627  2.153681  2.171520
   H (  6)  3.033344  1.097282  2.158501  2.165736  1.756198
   H (  7)  2.370224  2.171156  1.093734  2.796191  2.505774  3.070506
   H (  8)  2.428441  2.177840  1.094581  2.784835  3.071691  2.530873
   H (  9)  4.531055  2.183074  2.803578  1.095747  2.535756  3.083585
   H ( 10)  5.019578  2.180904  3.492710  1.094424  2.513960  2.507205
   H ( 11)  4.552745  2.185416  2.806045  1.095745  3.088777  2.531230
   H ( 12)  1.100000  2.928673  2.255733  4.343583  3.242691  2.708547
             H (  7)   H (  8)   H (  9)   H ( 10)   H ( 11)
   H (  8)  1.759504
   H (  9)  2.616241  3.138334
   H ( 10)  3.798375  3.793154  1.768419
   H ( 11)  3.163911  2.606214  1.768565  1.768624
   H ( 12)  3.111420  2.565382  4.891661  5.038058  4.549434
 
 Final energy is   -517.293570969233     


 ******************************
 **  OPTIMIZATION CONVERGED  **
 ******************************

                       Coordinates (Angstroms)
     ATOM                X               Y               Z
      1  S         2.1842931663    0.1700397465   -0.0447251309
      2  C        -0.6350731923    0.5260998593   -0.0222065033
      3  C         0.4765592696   -0.5258420201   -0.0502604943
      4  C        -2.0275210079   -0.1147816066    0.0126809949
      5  H        -0.4930405623    1.1733168060    0.8503389178
      6  H        -0.5465872488    1.1717001651   -0.9050413383
      7  H         0.4313688549   -1.1556987744    0.8427637325
      8  H         0.3688876145   -1.1877743114   -0.9153382167
      9  H        -2.1516373664   -0.7441153238    0.9010482139
     10  H        -2.8118459648    0.6482185711    0.0333869476
     11  H        -2.1990414813   -0.7453450348   -0.8668804905
     12  H         2.1162379186    0.6879819230   -1.0127666327

Z-matrix Print:
$molecule
0 1
S 
H  1 1.100000
C  1 1.844082 2 96.762071
H  3 1.093734 1 104.662488 2 175.202433 0
H  3 1.094581 1 108.763949 2 61.077562 0
C  3 1.530717 1 114.402054 2 -63.675614 0
H  6 1.095627 3 109.051175 1 -56.091161 0
H  6 1.097282 3 109.331156 1 59.893337 0
C  6 1.533251 3 111.881757 1 -178.351241 0
H  9 1.094424 6 111.091849 3 179.948985 0
H  9 1.095745 6 111.372604 3 -59.980273 0
H  9 1.095747 6 111.185281 3 60.026966 0
$end

PES scan, value:    1.1000 energy: -517.2935709692
------- Summary of potential scan: ------ 
    1.1000      -517.2935709692
----------------------------------------- 
Archival summary:
1\1\hpc0250\JobtypUnspecified\ProcedureUnspecified\6-31G**\138\knomura\WedMar1322:00:012019WedMar1322:00:012019\0\\#,JobtypUnspecified,ProcedureUnspecified,6-31G**,\\0,1\S\H,1,1.1\C,1,1.84408,2,96.7621\H,3,1.09373,1,104.662,2,175.202,0\H,3,1.09458,1,108.764,2,61.0776,0\C,3,1.53072,1,114.402,2,-63.6756,0\H,6,1.09563,3,109.051,1,-56.0912,0\H,6,1.09728,3,109.331,1,59.8933,0\C,6,1.53325,3,111.882,1,-178.351,0\H,9,1.09442,6,111.092,3,179.949,0\H,9,1.09575,6,111.373,3,-59.9803,0\H,9,1.09575,6,111.185,3,60.027,0\\\@

 Total job time:  22.04s(wall), 250.14s(cpu) 
 Wed Mar 13 22:00:01 2019

        *************************************************************
        *                                                           *
        *  Thank you very much for using Q-Chem.  Have a nice day.  *
        *                                                           *
        *************************************************************


