
Running Job 1 of 1 thiol/02/S-H.xyz.data/inputs/bond_singlet_2.8.in
qchem thiol/02/S-H.xyz.data/inputs/bond_singlet_2.8.in_23897.0 /staging/scratch/2868767/qchem23897/ 1
/usr/usc/qchem/5.1.1/exe/qcprog.exe_s thiol/02/S-H.xyz.data/inputs/bond_singlet_2.8.in_23897.0 /staging/scratch/2868767/qchem23897/
Check license passed

                  Welcome to Q-Chem
     A Quantum Leap Into The Future Of Chemistry


 Q-Chem 5.1, Q-Chem, Inc., Pleasanton, CA (2018)

 Yihan Shao,  Zhengting Gan,  E. Epifanovsky,  A. T. B. Gilbert,  M. Wormit,  
 J. Kussmann,  A. W. Lange,  A. Behn,  Jia Deng,  Xintian Feng,  D. Ghosh,  
 M. Goldey,  P. R. Horn,  L. D. Jacobson,  I. Kaliman,  T. Kus,  A. Landau,  
 Jie Liu,  E. I. Proynov,  R. M. Richard,  R. P. Steele,  E. J. Sundstrom,  
 H. L. Woodcock III,  P. M. Zimmerman,  D. Zuev,  B. Albrecht,  E. Alguire,  
 S. A. Baeppler,  D. Barton,  Z. Benda,  Y. A. Bernard,  E. J. Berquist,  
 K. B. Bravaya,  H. Burton,  D. Casanova,  Chun-Min Chang,  Yunqing Chen,  
 A. Chien,  K. D. Closser,  M. P. Coons,  S. Coriani,  S. Dasgupta,  
 A. L. Dempwolff,  M. Diedenhofen,  Hainam Do,  R. G. Edgar,  Po-Tung Fang,  
 S. Faraji,  S. Fatehi,  Qingguo Feng,  K. D. Fenk,  J. Fosso-Tande,  
 Qinghui Ge,  A. Ghysels,  G. Gidofalvi,  J. Gomes,  J. Gonthier,  A. Gunina,  
 D. Hait,  M. W. D. Hanson-Heine,  P. H. P. Harbach,  A. W. Hauser,  
 J. E. Herr,  E. G. Hohenstein,  Z. C. Holden,  Kerwin Hui,  B. C. Huynh,  
 T.-C. Jagau,  Hyunjun Ji,  B. Kaduk,  K. Khistyaev,  Jaehoon Kim,  
 P. Klunzinger,  K. Koh,  D. Kosenkov,  L. Koulias,  T. Kowalczyk,  
 C. M. Krauter,  A. Kunitsa,  Ka Un Lao,  A. Laurent,  K. V. Lawler,  
 Joonho Lee,  D. Lefrancois,  S. Lehtola,  D. S. Levine,  Yi-Pei Li,  
 You-Sheng Lin,  Fenglai Liu,  E. Livshits,  A. Luenser,  P. Manohar,  
 E. Mansoor,  S. F. Manzer,  Shan-Ping Mao,  Yuezhi Mao,  N. Mardirossian,  
 A. V. Marenich,  T. Markovich,  L. A. Martinez-Martinez,  S. A. Maurer,  
 N. J. Mayhall,  S. C. McKenzie,  J.-M. Mewes,  A. F. Morrison,  
 J. W. Mullinax,  K. Nanda,  T. S. Nguyen-Beck,  R. Olivares-Amaya,  
 J. A. Parkhill,  T. M. Perrine,  F. Plasser,  P. Pokhilko,  S. Prager,  
 A. Prociuk,  E. Ramos,  D. R. Rehn,  F. Rob,  M. Schneider,  N. Sergueev,  
 S. M. Sharada,  S. Sharma,  D. W. Small,  T. Stauch,  T. Stein,  
 Yu-Chuan Su,  A. J. W. Thom,  A. Tkatchenko,  T. Tsuchimochi,  N. M. Tubman,  
 L. Vogt,  M. L. Vidal,  O. Vydrov,  M. A. Watson,  J. Wenzel,  
 M. de Wergifosse,  T. A. Wesolowski,  A. White,  J. Witte,  A. Yamada,  
 Jun Yang,  K. Yao,  S. Yeganeh,  S. R. Yost,  Zhi-Qiang You,  A. Zech,  
 Igor Ying Zhang,  Xing Zhang,  Yan Zhao,  Ying Zhu,  B. R. Brooks,  
 G. K. L. Chan,  C. J. Cramer,  M. S. Gordon,  W. J. Hehre,  A. Klamt,  
 M. W. Schmidt,  C. D. Sherrill,  D. G. Truhlar,  A. Aspuru-Guzik,  R. Baer,  
 A. T. Bell,  N. A. Besley,  Jeng-Da Chai,  A. E. DePrince, III,  
 R. A. DiStasio Jr.,  A. Dreuw,  B. D. Dunietz,  T. R. Furlani,  
 Chao-Ping Hsu,  Yousung Jung,  Jing Kong,  D. S. Lambrecht,  WanZhen Liang,  
 C. Ochsenfeld,  V. A. Rassolov,  L. V. Slipchenko,  J. E. Subotnik,  
 T. Van Voorhis,  J. M. Herbert,  A. I. Krylov,  P. M. W. Gill,  M. Head-Gordon

 Contributors to earlier versions of Q-Chem not listed above: 
 R. D. Adamson,  B. Austin,  J. Baker,  G. J. O. Beran,  K. Brandhorst,  
 S. T. Brown,  E. F. C. Byrd,  A. K. Chakraborty,  C.-L. Cheng,  
 Siu Hung Chien,  D. M. Chipman,  D. L. Crittenden,  H. Dachsel,  
 R. J. Doerksen,  A. D. Dutoi,  L. Fusti-Molnar,  W. A. Goddard III,  
 A. Golubeva-Zadorozhnaya,  S. R. Gwaltney,  G. Hawkins,  A. Heyden,  
 S. Hirata,  G. Kedziora,  F. J. Keil,  C. Kelley,  Jihan Kim,  R. A. King,  
 R. Z. Khaliullin,  P. P. Korambath,  W. Kurlancheek,  A. M. Lee,  M. S. Lee,  
 S. V. Levchenko,  Ching Yeh Lin,  D. Liotard,  R. C. Lochan,  I. Lotan,  
 P. E. Maslen,  N. Nair,  D. P. O'Neill,  D. Neuhauser,  E. Neuscamman,  
 C. M. Oana,  R. Olson,  B. Peters,  R. Peverati,  P. A. Pieniazek,  
 Y. M. Rhee,  J. Ritchie,  M. A. Rohrdanz,  E. Rosta,  N. J. Russ,  
 H. F. Schaefer III,  N. E. Schultz,  N. Shenvi,  A. C. Simmonett,  A. Sodt,  
 D. Stuck,  K. S. Thanthiriwatte,  V. Vanovschi,  Tao Wang,  A. Warshel,  
 C. F. Williams,  Q. Wu,  X. Xu,  W. Zhang

 Please cite Q-Chem as follows:
 Y. Shao et al., Mol. Phys. 113, 184-215 (2015)
 DOI: 10.1080/00268976.2014.952696

 Q-Chem 5.1.1 for Intel X86 EM64T Linux

 Parts of Q-Chem use Armadillo 8.300.2 (Tropical Shenanigans).
 http://arma.sourceforge.net/

 Q-Chem begins on Wed Mar 13 22:07:06 2019  

Host: 
0

     Scratch files written to /staging/scratch/2868767/qchem23897//
 Aug318 |scratch|qcdevops|jenkins|workspace|build_RNUM 6013   
Processing $rem in /usr/usc/qchem/5.1.1/config/preferences.
 MEM_TOTAL  2000 
Input Ideriv = 2
Curr. Ideriv = -1
Max.  Ideriv = 2

Checking the input file for inconsistencies... 	...done.

--------------------------------------------------------------
User input:
--------------------------------------------------------------

$comment
potential surface scanner
$end

$rem
JOBTYPE  PES_SCAN
UNRESTRICTED TRUE
SYM_IGNORE  TRUE
GEOM_OPT_MAX_CYCLES 400
SCF_MAX_CYCLES 400
METHOD   B3LYP
BASIS   6-31G**
PDB_PRINT 2
SCF_CONVERGENCE 6
THRESH 14
SCF_PRINT 1
$end
$molecule
0 1
S 2.167257 -0.141274 0.295215
C -0.593706 0.447794 0.054658
C 0.445151 -0.676125 0.103608
C -2.027027 -0.088354 -0.019882
H -0.469209 1.093849 0.930340
H -0.373221 1.069748 -0.822973
H 0.282530 -1.297946 1.000753
H 0.353806 -1.341624 -0.760165
H -2.284884 -0.669553 0.872315
H -2.746448 0.732398 -0.100428
H -2.165416 -0.737486 -0.891747
H 2.123767 1.512376 -1.838691
$end
$scan
stre 1 12 2.800000 2.801000 0.100000
$end
--------------------------------------------------------------
 ----------------------------------------------------------------
             Standard Nuclear Orientation (Angstroms)
    I     Atom           X                Y                Z
 ----------------------------------------------------------------
    1      S       2.1672570000    -0.1412740000     0.2952150000
    2      C      -0.5937060000     0.4477940000     0.0546580000
    3      C       0.4451510000    -0.6761250000     0.1036080000
    4      C      -2.0270270000    -0.0883540000    -0.0198820000
    5      H      -0.4692090000     1.0938490000     0.9303400000
    6      H      -0.3732210000     1.0697480000    -0.8229730000
    7      H       0.2825300000    -1.2979460000     1.0007530000
    8      H       0.3538060000    -1.3416240000    -0.7601650000
    9      H      -2.2848840000    -0.6695530000     0.8723150000
   10      H      -2.7464480000     0.7323980000    -0.1004280000
   11      H      -2.1654160000    -0.7374860000    -0.8917470000
   12      H       2.1237670000     1.5123760000    -1.8386910000
 ----------------------------------------------------------------
 Nuclear Repulsion Energy =   158.4845798578 hartrees
 There are       21 alpha and       21 beta electrons
 Requested basis set is 6-31G(d,p)
 There are 41 shells and 104 basis functions

 Total QAlloc Memory Limit   2000 MB
 Mega-Array Size       188 MB
 MEM_STATIC part       192 MB
A total of 1 constraints
  
            1
    1   1.0100000
    2   1.0100000
    3  12.0100000
    4   2.8000000
    5   2.8010000
    6   0.1000000
    7   0.0000000
    8   0.0000000
    9   0.0000000
   10   0.0000000

                       Distance Matrix (Angstroms)
             S (  1)   C (  2)   C (  3)   C (  4)   H (  5)   H (  6)
   C (  2)  2.833335
   C (  3)  1.813402  1.531279
   C (  4)  4.206436  1.532129  2.544089
   H (  5)  2.979910  1.095311  2.156930  2.174241
   H (  6)  3.028357  1.098033  2.139242  2.172839  1.756104
   H (  7)  2.321179  2.170367  1.103620  2.799797  2.508137  3.059732
   H (  8)  2.417286  2.182598  1.094229  2.790532  3.076799  2.519371
   H (  9)  4.520363  2.185660  2.836203  1.095581  2.531725  3.090894
   H ( 10)  5.006429  2.177005  3.494549  1.094389  2.525658  2.503614
   H ( 11)  4.531711  2.184226  2.794558  1.095752  3.090454  2.546132
   H ( 12)  2.700001  3.478903  3.373398  4.806193  3.816572  2.731767
             H (  7)   H (  8)   H (  9)   H ( 10)   H ( 11)
   H (  8)  1.762901
   H (  9)  2.646316  3.174800
   H ( 10)  3.809147  3.787928  1.767693
   H ( 11)  3.144537  2.593988  1.769407  1.767581
   H ( 12)  4.398921  3.527222  5.616633  5.229619  4.935147
 
 A cutoff of  1.0D-14 yielded    820 shell pairs
 There are      5379 function pairs
 
 -------------------------------------------------------
 OpenMP Integral Computing Module                       
 Release: version 1.0, May 2013, Q-Chem Inc. Pittsburgh 
 -------------------------------------------------------
 Integral Job Info:
 Integral job number is                      11
 Integral operator is                         1
 short-range coefficients                     0
 long-range coefficients              100000000
 Omega coefficients                           0
 if combine SR and LR in K                    0
 Integral screening is                        0
 Integral computing path is                   2
 max size of driver memory is            800000
 size of driver memory is                593474
 size of scratch memory is             15267112
 max col of scratch BK array               1296
 max len of scratch array in speh3          155
 max len of scratch index in speh4           18
 max int batch size is                      520
 min int batch size is                       52
 fixed nKL is                                52
 max L of basis functions is                  2
 order of int derivative is                   0
 number of shells is                         41
 number of basis is                         104
 number of cartesian basis is               104
 number of contracted shell pairs           820
 number of primitive shell pairs           2952
 maxK2 (contraction) of shell pair           36
 max number of K2 of shell pair               1
 max number of CS2 of shell pair             74
 max number of PS2 of shell pair            264
 mem total for path MDJ                  513890
 -------------------------------------------------------
 Smallest overlap matrix eigenvalue = 5.60E-03

 Scale SEOQF with 1.000000e-01/1.000000e+00/1.000000e-01

 Standard Electronic Orientation quadrupole field applied
 Nucleus-field energy     =     0.0000000134 hartrees
 Guess from superposition of atomic densities
 Warning:  Energy on first SCF cycle will be non-variational
 SAD guess density has 42.000000 electrons

 -----------------------------------------------------------------------
  General SCF calculation program by
  Eric Jon Sundstrom, Paul Horn, Yuezhi Mao, Dmitri Zuev, Alec White,
  David Stuck, Shaama M.S., Shane Yost, Joonho Lee, David Small,
  Daniel Levine, Susi Lehtola, Hugh Burton, Evgeny Epifanovsky
 -----------------------------------------------------------------------
 Exchange:     0.2000 Hartree-Fock + 0.0800 Slater + 0.7200 B88
 Correlation:  0.1900 VWN1RPA + 0.8100 LYP
 Using SG-1 standard quadrature grid
 using 12 threads for integral computing
 -------------------------------------------------------
 OpenMP Integral computing Module                
 Release: version 1.0, May 2013, Q-Chem Inc. Pittsburgh 
 -------------------------------------------------------
 -------------------------------------------------------
 OpenMP BLAS3 based DFT computing Module                
 Release: version 1.0, May 2013, Q-Chem Inc. Pittsburgh 
 -------------------------------------------------------
 A unrestricted SCF calculation will be
 performed using DIIS
 SCF converges when DIIS error is below 1.0e-06
 Alpha HF Exchange    Energy =  -4.33278686264982
 Beta HF Exchange     Energy =  -4.33278686264982
 DFT Correlation      Energy =  -1.86457777758877
 DFT Exchange         Energy = -33.95849965912956
 One-Electron (alpha) Energy = -509.85064200746353
 One-Electron (beta)  Energy = -509.85064200746353
 Total Coulomb        Energy = 388.16050256971062
 ---------------------------------------
  Cycle       Energy         DIIS error
 ---------------------------------------
    1    -517.5448527360      2.93e-02  
 Alpha HF Exchange    Energy =  -4.35451935446202
 Beta HF Exchange     Energy =  -4.35451935446202
 DFT Correlation      Energy =  -1.89826692861933
 DFT Exchange         Energy = -34.57226234643437
 One-Electron (alpha) Energy = -514.59297375927827
 One-Electron (beta)  Energy = -514.59297375927838
 Total Coulomb        Energy = 398.84552853981415
    2    -517.0354070915      4.21e-03  
 Alpha HF Exchange    Energy =  -4.28108933227054
 Beta HF Exchange     Energy =  -4.28108933227055
 DFT Correlation      Energy =  -1.85285785558930
 DFT Exchange         Energy = -33.93779719900761
 One-Electron (alpha) Energy = -506.01512724302250
 One-Electron (beta)  Energy = -506.01512724302285
 Total Coulomb        Energy = 381.15663926665235
    3    -516.7418690673      6.42e-03  
 Alpha HF Exchange    Energy =  -4.32613579781016
 Beta HF Exchange     Energy =  -4.32613579781017
 DFT Correlation      Energy =  -1.88434324385257
 DFT Exchange         Energy = -34.33552251897455
 One-Electron (alpha) Energy = -512.89333144586408
 One-Electron (beta)  Energy = -512.89333144586431
 Total Coulomb        Energy = 395.04837411832403
    4    -517.1258462606      2.25e-03  
 Alpha HF Exchange    Energy =  -4.31292341441948
 Beta HF Exchange     Energy =  -4.31292341441947
 DFT Correlation      Energy =  -1.87582197517764
 DFT Exchange         Energy = -34.24566287078250
 One-Electron (alpha) Energy = -510.72852325546739
 One-Electron (beta)  Energy = -510.72852325546683
 Total Coulomb        Energy = 390.54300179862383
    5    -517.1767965159      1.14e-03  
 Alpha HF Exchange    Energy =  -4.31570726823738
 Beta HF Exchange     Energy =  -4.31570726823738
 DFT Correlation      Energy =  -1.87776165556901
 DFT Exchange         Energy = -34.26972856318918
 One-Electron (alpha) Energy = -511.31083995167489
 One-Electron (beta)  Energy = -511.31083995167512
 Total Coulomb        Energy = 391.72524232162232
    6    -517.1907624657      3.03e-04  
 Alpha HF Exchange    Energy =  -4.31587063419034
 Beta HF Exchange     Energy =  -4.31587063419034
 DFT Correlation      Energy =  -1.87791745014677
 DFT Exchange         Energy = -34.27108336294880
 One-Electron (alpha) Energy = -511.33221497463006
 One-Electron (beta)  Energy = -511.33221497463018
 Total Coulomb        Energy = 391.76947648350335
    7    -517.1911156760      1.80e-04  
 Alpha HF Exchange    Energy =  -4.31632607746594
 Beta HF Exchange     Energy =  -4.31632607746594
 DFT Correlation      Energy =  -1.87823501537718
 DFT Exchange         Energy = -34.27463784756799
 One-Electron (alpha) Energy = -511.40898244654545
 One-Electron (beta)  Energy = -511.40898244654511
 Total Coulomb        Energy = 391.92747496015403
    8    -517.1914350796      6.87e-05  
 Alpha HF Exchange    Energy =  -4.31657441599386
 Beta HF Exchange     Energy =  -4.31657441599386
 DFT Correlation      Energy =  -1.87838923964127
 DFT Exchange         Energy = -34.27660452336550
 One-Electron (alpha) Energy = -511.44700643403382
 One-Electron (beta)  Energy = -511.44700643403354
 Total Coulomb        Energy = 392.00609046319136
    9    -517.1914851286      1.59e-05  
 Alpha HF Exchange    Energy =  -4.31661947699532
 Beta HF Exchange     Energy =  -4.31661947699532
 DFT Correlation      Energy =  -1.87841808552029
 DFT Exchange         Energy = -34.27694774650315
 One-Electron (alpha) Energy = -511.45438814066955
 One-Electron (beta)  Energy = -511.45438814066944
 Total Coulomb        Energy = 392.02131338034235
   10    -517.1914878158      3.97e-06  
 Alpha HF Exchange    Energy =  -4.31663055540614
 Beta HF Exchange     Energy =  -4.31663055540614
 DFT Correlation      Energy =  -1.87842565615632
 DFT Exchange         Energy = -34.27703343722190
 One-Electron (alpha) Energy = -511.45620998948579
 One-Electron (beta)  Energy = -511.45620998948567
 Total Coulomb        Energy = 392.02507232913399
   11    -517.1914879828      1.08e-06  
 Alpha HF Exchange    Energy =  -4.31663533776466
 Beta HF Exchange     Energy =  -4.31663533776466
 DFT Correlation      Energy =  -1.87842877120436
 DFT Exchange         Energy = -34.27707149607761
 One-Electron (alpha) Energy = -511.45699571363741
 One-Electron (beta)  Energy = -511.45699571363690
 Total Coulomb        Energy = 392.02669450087967
   12    -517.1914879980      1.26e-07  Convergence criterion met
 ---------------------------------------
 SCF time:   CPU 29.45s  wall 3.00s 
<S^2> =          0.000000000
 Alpha HF Exchange    Energy =  -4.31663533776466
 Beta HF Exchange     Energy =  -4.31663533776466
 DFT Correlation      Energy =  -1.87842877120436
 DFT Exchange         Energy = -34.27707149607761
 One-Electron (alpha) Energy = -511.45699571363741
 One-Electron (beta)  Energy = -511.45699571363690
 Total Coulomb        Energy = 392.02669450087967
 Nuclear repulsion Energy = 158.48457987122546
 SCF   energy in the final basis set =     -517.1914879980
 Total energy in the final basis set =     -517.1914879980
 
 --------------------------------------------------------------
 
                    Orbital Energies (a.u.)
 --------------------------------------------------------------
 
 Alpha MOs
 -- Occupied --
-88.905 -10.227 -10.196 -10.185  -7.962  -5.929  -5.924  -5.915
 -0.813  -0.737  -0.637  -0.587  -0.479  -0.432  -0.409  -0.408
 -0.358  -0.345  -0.340  -0.272  -0.239
 -- Virtual --
 -0.164   0.048   0.099   0.122   0.130   0.152   0.170   0.174
  0.185   0.214   0.238   0.334   0.371   0.392   0.416   0.502
  0.514   0.525   0.555   0.571   0.643   0.664   0.667   0.738
  0.788   0.803   0.822   0.830   0.848   0.877   0.881   0.886
  0.911   0.934   0.941   0.988   1.030   1.096   1.316   1.356
  1.390   1.562   1.602   1.651   1.678   1.821   1.850   1.932
  2.007   2.012   2.040   2.051   2.058   2.082   2.098   2.112
  2.162   2.205   2.252   2.256   2.326   2.428   2.475   2.501
  2.585   2.690   2.724   2.741   2.798   2.837   2.877   2.904
  3.165   3.221   3.310   3.326   3.461   3.467   3.547   3.911
  4.265   4.447   4.622
 
 Beta MOs
 -- Occupied --
-88.905 -10.227 -10.196 -10.185  -7.962  -5.929  -5.924  -5.915
 -0.813  -0.737  -0.637  -0.587  -0.479  -0.432  -0.409  -0.408
 -0.358  -0.345  -0.340  -0.272  -0.239
 -- Virtual --
 -0.164   0.048   0.099   0.122   0.130   0.152   0.170   0.174
  0.185   0.214   0.238   0.334   0.371   0.392   0.416   0.502
  0.514   0.525   0.555   0.571   0.643   0.664   0.667   0.738
  0.788   0.803   0.822   0.830   0.848   0.877   0.881   0.886
  0.911   0.934   0.941   0.988   1.030   1.096   1.316   1.356
  1.390   1.562   1.602   1.651   1.678   1.821   1.850   1.932
  2.007   2.012   2.040   2.051   2.058   2.082   2.098   2.112
  2.162   2.205   2.252   2.256   2.326   2.428   2.475   2.501
  2.585   2.690   2.724   2.741   2.798   2.837   2.877   2.904
  3.165   3.221   3.310   3.326   3.461   3.467   3.547   3.911
  4.265   4.447   4.622
 --------------------------------------------------------------
 
          Ground-State Mulliken Net Atomic Charges

     Atom                 Charge (a.u.)    Spin (a.u.)
  --------------------------------------------------------
      1 S                    -0.019008       0.000000
      2 C                    -0.162786      -0.000000
      3 C                    -0.341806       0.000000
      4 C                    -0.324367       0.000000
      5 H                     0.117702      -0.000000
      6 H                     0.110799       0.000000
      7 H                     0.148205       0.000000
      8 H                     0.146850       0.000000
      9 H                     0.106890       0.000000
     10 H                     0.112971      -0.000000
     11 H                     0.107822      -0.000000
     12 H                    -0.003271      -0.000000
  --------------------------------------------------------
  Sum of atomic charges =     0.000000
  Sum of spin   charges =    -0.000000

 -----------------------------------------------------------------
                    Cartesian Multipole Moments
 -----------------------------------------------------------------
    Charge (ESU x 10^10)
                -0.0000
    Dipole Moment (Debye)
         X      -2.0290      Y      -0.5457      Z       0.0156
       Tot       2.1012
    Quadrupole Moments (Debye-Ang)
        XX     -39.3717     XY      -0.0853     YY     -34.2347
        XZ      -0.0985     YZ      -1.5735     ZZ     -33.6966
    Octopole Moments (Debye-Ang^2)
       XXX     -53.8022    XXY       5.2483    XYY     -15.7381
       YYY       6.5304    XXZ      -1.6479    XYZ      -3.1048
       YYZ      -3.0328    XZZ     -13.9873    YZZ       1.8249
       ZZZ      -7.7752
    Hexadecapole Moments (Debye-Ang^3)
      XXXX    -691.9489   XXXY      11.7940   XXYY    -133.0722
      XYYY       6.6649   YYYY    -111.8386   XXXZ      -6.0753
      XXYZ      -2.5579   XYYZ      -5.5147   YYYZ      10.1707
      XXZZ    -126.4533   XYZZ       4.1884   YYZZ     -28.9787
      XZZZ     -13.6308   YZZZ       8.1177   ZZZZ     -88.9632
 -----------------------------------------------------------------
 Calculating analytic gradient of the SCF energy
 Gradient of SCF Energy
            1           2           3           4           5           6
    1   0.0005071  -0.0001337   0.0001878  -0.0000412  -0.0000083   0.0000633
    2  -0.0249377  -0.0001024   0.0001225  -0.0000290   0.0000804   0.0000377
    3   0.0322961  -0.0000403   0.0000905   0.0000657  -0.0000432   0.0000384
            7           8           9          10          11          12
    1  -0.0000684   0.0000643   0.0000567   0.0000029  -0.0000188  -0.0006117
    2  -0.0001491   0.0000332  -0.0000166  -0.0000142  -0.0000001   0.0249752
    3  -0.0000291   0.0000216  -0.0000265  -0.0000090  -0.0000339  -0.0323301
 Max gradient component =       3.233E-02
 RMS gradient           =       9.624E-03
 Gradient time:  CPU 8.15 s  wall 0.68 s
 Geometry Optimization Parameters
   NAtoms,    NIC,     NZ,  NCons,   NDum,   NFix, NCnnct, MaxDiis
       12      83       0       1       0       0       0       0


** CONSTRAINED OPTIMIZATION IN DELOCALIZED INTERNAL COORDINATES **
   Searching for a Minimum

   Optimization Cycle:   1

                       Coordinates (Angstroms)
     ATOM                X               Y               Z
      1  S         2.1672570000   -0.1412740000    0.2952150000
      2  C        -0.5937060000    0.4477940000    0.0546580000
      3  C         0.4451510000   -0.6761250000    0.1036080000
      4  C        -2.0270270000   -0.0883540000   -0.0198820000
      5  H        -0.4692090000    1.0938490000    0.9303400000
      6  H        -0.3732210000    1.0697480000   -0.8229730000
      7  H         0.2825300000   -1.2979460000    1.0007530000
      8  H         0.3538060000   -1.3416240000   -0.7601650000
      9  H        -2.2848840000   -0.6695530000    0.8723150000
     10  H        -2.7464480000    0.7323980000   -0.1004280000
     11  H        -2.1654160000   -0.7374860000   -0.8917470000
     12  H         2.1237670000    1.5123760000   -1.8386910000
   Point Group: c1    Number of degrees of freedom:    30


   Energy is   -517.191487998

              Constraints and their Current Values
                                        Value     Constraint
   Distance(Angs):        1  12             2.700001     2.800000

 Attempting to Generate Delocalized Internal Coordinates

   Using Lagrange Multiplier Algorithm


 31 Hessian modes will be used to form the next step
  Hessian Eigenvalues:
    -0.990159    0.018380    0.045000    0.045842    0.048072    0.067055
     0.075021    0.076133    0.082368    0.082872    0.083674    0.096727
     0.123944    0.129989    0.134749    0.156527    0.160000    0.160000
     0.160000    0.193046    0.245595    0.285465    0.292277    0.329245
     0.332850    0.341563    0.341756    0.342061    0.343103    0.343285
     1.009939

 Minimum Search - Taking P-RFO Step
 Searching for Lamda that Maximizes Along the Constraint modes Only
 Value Taken    Lamda =   0.02614579


 ********************************************
 ** ERROR IN DETERMINING Lamda IN CONFormD **
 ********************************************


 ** Scaling Hessian by  2.844980 **


 31 Hessian modes will be used to form the next step
  Hessian Eigenvalues:
    -0.972258    0.052292    0.128024    0.130419    0.136764    0.190769
     0.213433    0.216596    0.234336    0.235770    0.238052    0.275186
     0.352619    0.369817    0.383359    0.445316    0.455197    0.455197
     0.455197    0.549211    0.698712    0.812142    0.831521    0.936695
     0.946951    0.971740    0.972287    0.973155    0.976120    0.976638
     1.028533

 Minimum Search - Taking P-RFO Step
 Searching for Lamda that Maximizes Along the Constraint modes Only
 Value Taken    Lamda =   0.02690241
 Searching for Lamda that Minimizes Along All other modes
 Value Taken    Lamda =  -0.01010715
 Step Taken.  Stepsize is  0.185118

                             Maximum     Tolerance    Cnvgd?
         Gradient            0.188971       0.000300      NO
         Displacement        0.185111       0.001200      NO
         Energy change     *********       0.000001      NO


 New Cartesian Coordinates Obtained by Inverse Iteration

 Displacement from previous Coordinates is:  0.155054
 ----------------------------------------------------------------
             Standard Nuclear Orientation (Angstroms)
    I     Atom           X                Y                Z
 ----------------------------------------------------------------
    1      S       2.1685204777    -0.1648551008     0.3215228878
    2      C      -0.5884137683     0.4458383572     0.0594498197
    3      C       0.4442616808    -0.6856583080     0.1155646079
    4      C      -2.0228401243    -0.0859821923    -0.0242559751
    5      H      -0.4651895038     1.0901128795     0.9366114713
    6      H      -0.3678307853     1.0721794584    -0.8209503445
    7      H       0.2735399247    -1.3075726567     1.0110930199
    8      H       0.3521768313    -1.3490361609    -0.7497786949
    9      H      -2.2876694396    -0.6679895254     0.8653838068
   10      H      -2.7394089149     0.7369906227    -0.1075385626
   11      H      -2.1580005184    -0.7331958766    -0.8980432730
   12      H       2.1034541400     1.5529715028    -1.8860557633
 ----------------------------------------------------------------
 Nuclear Repulsion Energy =   158.2977087330 hartrees
 There are       21 alpha and       21 beta electrons

                       Distance Matrix (Angstroms)
             S (  1)   C (  2)   C (  3)   C (  4)   H (  5)   H (  6)
   C (  2)  2.835898
   C (  3)  1.812932  1.532923
   C (  4)  4.206339  1.532129  2.542784
   H (  5)  2.981561  1.095302  2.157448  2.175486
   H (  6)  3.044434  1.102753  2.150941  2.171432  1.760348
   H (  7)  2.317814  2.173255  1.103583  2.799570  2.510013  3.070987
   H (  8)  2.418486  2.182003  1.094243  2.786107  3.075947  2.527006
   H (  9)  4.517362  2.185775  2.833018  1.095594  2.533265  3.091552
   H ( 10)  5.008512  2.177024  3.494204  1.094391  2.527255  2.499138
   H ( 11)  4.530909  2.184151  2.793104  1.095745  3.091282  2.543626
   H ( 12)  2.797957  3.500984  3.430870  4.814434  3.844427  2.733653
             H (  7)   H (  8)   H (  9)   H ( 10)   H ( 11)
   H (  8)  1.763114
   H (  9)  2.643878  3.168811
   H ( 10)  3.809125  3.784426  1.767658
   H ( 11)  3.144376  2.588867  1.769390  1.767592
   H ( 12)  4.463717  3.574877  5.637824  5.223243  4.935861
 
 Applying Cartesian multipole field
    Component          Value
    ---------          -----
     (2,0,0)        1.00000E-11
     (0,2,0)        2.00000E-10
     (0,0,2)       -3.00000E-11
 Nucleus-field energy     =     0.0000000136 hartrees
 Requested basis set is 6-31G(d,p)
 There are 41 shells and 104 basis functions
 A cutoff of  1.0D-14 yielded    820 shell pairs
 There are      5379 function pairs
 Smallest overlap matrix eigenvalue = 5.62E-03
 Guess from superposition of atomic densities
 Warning:  Energy on first SCF cycle will be non-variational
 SAD guess density has 42.000000 electrons

 -----------------------------------------------------------------------
  General SCF calculation program by
  Eric Jon Sundstrom, Paul Horn, Yuezhi Mao, Dmitri Zuev, Alec White,
  David Stuck, Shaama M.S., Shane Yost, Joonho Lee, David Small,
  Daniel Levine, Susi Lehtola, Hugh Burton, Evgeny Epifanovsky
 -----------------------------------------------------------------------
 Exchange:     0.2000 Hartree-Fock + 0.0800 Slater + 0.7200 B88
 Correlation:  0.1900 VWN1RPA + 0.8100 LYP
 Using SG-1 standard quadrature grid
 using 12 threads for integral computing
 -------------------------------------------------------
 OpenMP Integral computing Module                
 Release: version 1.0, May 2013, Q-Chem Inc. Pittsburgh 
 -------------------------------------------------------
 -------------------------------------------------------
 OpenMP BLAS3 based DFT computing Module                
 Release: version 1.0, May 2013, Q-Chem Inc. Pittsburgh 
 -------------------------------------------------------
 A unrestricted SCF calculation will be
 performed using DIIS
 SCF converges when DIIS error is below 1.0e-06
 Alpha HF Exchange    Energy =  -4.33208672173995
 Beta HF Exchange     Energy =  -4.33208672173995
 DFT Correlation      Energy =  -1.86414998509663
 DFT Exchange         Energy = -33.95706401936176
 One-Electron (alpha) Energy = -509.66668976181830
 One-Electron (beta)  Energy = -509.66668976181830
 Total Coulomb        Energy = 387.98153880563780
 ---------------------------------------
  Cycle       Energy         DIIS error
 ---------------------------------------
    1    -517.5395194193      2.93e-02  
 Alpha HF Exchange    Energy =  -4.35545980061890
 Beta HF Exchange     Energy =  -4.35545980061890
 DFT Correlation      Energy =  -1.89876387460943
 DFT Exchange         Energy = -34.57894591492374
 One-Electron (alpha) Energy = -514.58994867462957
 One-Electron (beta)  Energy = -514.58994867462957
 Total Coulomb        Energy = 399.05796870996659
    2    -517.0128492835      4.28e-03  
 Alpha HF Exchange    Energy =  -4.28027601184401
 Beta HF Exchange     Energy =  -4.28027601184401
 DFT Correlation      Energy =  -1.85169585317117
 DFT Exchange         Energy = -33.92810895342539
 One-Electron (alpha) Energy = -505.55220560602260
 One-Electron (beta)  Energy = -505.55220560602277
 Total Coulomb        Energy = 380.44971721962287
    3    -516.6973420761      6.59e-03  
 Alpha HF Exchange    Energy =  -4.32498151815508
 Beta HF Exchange     Energy =  -4.32498151815508
 DFT Correlation      Energy =  -1.88374318095950
 DFT Exchange         Energy = -34.32914788855444
 One-Electron (alpha) Energy = -512.70199654235273
 One-Electron (beta)  Energy = -512.70199654235307
 Total Coulomb        Energy = 394.85145375464549
    4    -517.1176846893      2.26e-03  
 Alpha HF Exchange    Energy =  -4.31126520530379
 Beta HF Exchange     Energy =  -4.31126520530379
 DFT Correlation      Energy =  -1.87418909911518
 DFT Exchange         Energy = -34.23313578382908
 One-Electron (alpha) Energy = -510.19296197044531
 One-Electron (beta)  Energy = -510.19296197044542
 Total Coulomb        Energy = 389.66452661460818
    5    -517.1535438732      1.59e-03  
 Alpha HF Exchange    Energy =  -4.31449131938270
 Beta HF Exchange     Energy =  -4.31449131938270
 DFT Correlation      Energy =  -1.87705188327630
 DFT Exchange         Energy = -34.26377749629683
 One-Electron (alpha) Energy = -511.06545957931462
 One-Electron (beta)  Energy = -511.06545957931490
 Total Coulomb        Energy = 391.41978089339079
    6    -517.1832415370      3.44e-04  
 Alpha HF Exchange    Energy =  -4.31474191130498
 Beta HF Exchange     Energy =  -4.31474191130498
 DFT Correlation      Energy =  -1.87721987874890
 DFT Exchange         Energy = -34.26594743449421
 One-Electron (alpha) Energy = -511.08767556576976
 One-Electron (beta)  Energy = -511.08767556577067
 Total Coulomb        Energy = 391.46678461924660
    7    -517.1835089015      2.52e-04  
 Alpha HF Exchange    Energy =  -4.31533265296857
 Beta HF Exchange     Energy =  -4.31533265296858
 DFT Correlation      Energy =  -1.87762034598788
 DFT Exchange         Energy = -34.27067525330335
 One-Electron (alpha) Energy = -511.18734380061881
 One-Electron (beta)  Energy = -511.18734380062000
 Total Coulomb        Energy = 391.67183559669468
    8    -517.1841041632      1.06e-04  
 Alpha HF Exchange    Energy =  -4.31567316801542
 Beta HF Exchange     Energy =  -4.31567316801543
 DFT Correlation      Energy =  -1.87785096875510
 DFT Exchange         Energy = -34.27334805466824
 One-Electron (alpha) Energy = -511.24526459329468
 One-Electron (beta)  Energy = -511.24526459329712
 Total Coulomb        Energy = 391.79113459442152
    9    -517.1842312050      2.56e-05  
 Alpha HF Exchange    Energy =  -4.31574737192766
 Beta HF Exchange     Energy =  -4.31574737192767
 DFT Correlation      Energy =  -1.87790096535332
 DFT Exchange         Energy = -34.27391450052625
 One-Electron (alpha) Energy = -511.25815104566601
 One-Electron (beta)  Energy = -511.25815104566959
 Total Coulomb        Energy = 391.81766513122017
   10    -517.1842384232      6.03e-06  
 Alpha HF Exchange    Energy =  -4.31576299695927
 Beta HF Exchange     Energy =  -4.31576299695930
 DFT Correlation      Energy =  -1.87791141070854
 DFT Exchange         Energy = -34.27403633182331
 One-Electron (alpha) Energy = -511.26073985231199
 One-Electron (beta)  Energy = -511.26073985231807
 Total Coulomb        Energy = 391.82300590787651
   11    -517.1842387866      1.93e-06  
 Alpha HF Exchange    Energy =  -4.31577084380991
 Beta HF Exchange     Energy =  -4.31577084380996
 DFT Correlation      Energy =  -1.87791670408565
 DFT Exchange         Energy = -34.27409787799001
 One-Electron (alpha) Energy = -511.26208596610496
 One-Electron (beta)  Energy = -511.26208596611519
 Total Coulomb        Energy = 391.82578062143591
   12    -517.1842388339      1.92e-07  Convergence criterion met
 ---------------------------------------
 SCF time:   CPU 27.59s  wall 2.00s 
<S^2> =          0.000000000
 Alpha HF Exchange    Energy =  -4.31577084380991
 Beta HF Exchange     Energy =  -4.31577084380996
 DFT Correlation      Energy =  -1.87791670408565
 DFT Exchange         Energy = -34.27409787799001
 One-Electron (alpha) Energy = -511.26208596610496
 One-Electron (beta)  Energy = -511.26208596611519
 Total Coulomb        Energy = 391.82578062143591
 Nuclear repulsion Energy = 158.29770874660383
 SCF   energy in the final basis set =     -517.1842388339
 Total energy in the final basis set =     -517.1842388339
 
 --------------------------------------------------------------
 
                    Orbital Energies (a.u.)
 --------------------------------------------------------------
 
 Alpha MOs
 -- Occupied --
-88.905 -10.228 -10.197 -10.186  -7.962  -5.929  -5.924  -5.915
 -0.813  -0.737  -0.637  -0.588  -0.479  -0.432  -0.409  -0.409
 -0.358  -0.345  -0.340  -0.268  -0.239
 -- Virtual --
 -0.170   0.048   0.099   0.121   0.130   0.152   0.170   0.174
  0.185   0.214   0.237   0.332   0.371   0.392   0.410   0.502
  0.514   0.525   0.554   0.571   0.642   0.664   0.667   0.741
  0.788   0.802   0.818   0.828   0.848   0.877   0.881   0.885
  0.907   0.934   0.941   0.988   1.031   1.095   1.316   1.355
  1.390   1.562   1.601   1.651   1.677   1.820   1.849   1.931
  2.006   2.011   2.040   2.047   2.053   2.080   2.097   2.109
  2.160   2.204   2.251   2.256   2.326   2.427   2.473   2.500
  2.583   2.689   2.724   2.739   2.794   2.835   2.877   2.902
  3.164   3.221   3.305   3.325   3.460   3.466   3.544   3.911
  4.264   4.447   4.621
 
 Beta MOs
 -- Occupied --
-88.905 -10.228 -10.197 -10.186  -7.962  -5.929  -5.924  -5.915
 -0.813  -0.737  -0.637  -0.588  -0.479  -0.432  -0.409  -0.409
 -0.358  -0.345  -0.340  -0.268  -0.239
 -- Virtual --
 -0.170   0.048   0.099   0.121   0.130   0.152   0.170   0.174
  0.185   0.214   0.237   0.332   0.371   0.392   0.410   0.502
  0.514   0.525   0.554   0.571   0.642   0.664   0.667   0.741
  0.788   0.802   0.818   0.828   0.848   0.877   0.881   0.885
  0.907   0.934   0.941   0.988   1.031   1.095   1.316   1.355
  1.390   1.562   1.601   1.651   1.677   1.820   1.849   1.931
  2.006   2.011   2.040   2.047   2.053   2.080   2.097   2.109
  2.160   2.204   2.251   2.256   2.326   2.427   2.473   2.500
  2.583   2.689   2.724   2.739   2.794   2.835   2.877   2.902
  3.164   3.221   3.305   3.325   3.460   3.466   3.544   3.911
  4.264   4.447   4.621
 --------------------------------------------------------------
 
          Ground-State Mulliken Net Atomic Charges

     Atom                 Charge (a.u.)    Spin (a.u.)
  --------------------------------------------------------
      1 S                    -0.017351      -0.000000
      2 C                    -0.162804      -0.000000
      3 C                    -0.342327      -0.000000
      4 C                    -0.324389      -0.000000
      5 H                     0.118026       0.000000
      6 H                     0.110699      -0.000000
      7 H                     0.149324      -0.000000
      8 H                     0.147360      -0.000000
      9 H                     0.106838       0.000000
     10 H                     0.113099      -0.000000
     11 H                     0.108028       0.000000
     12 H                    -0.006503       0.000000
  --------------------------------------------------------
  Sum of atomic charges =     0.000000
  Sum of spin   charges =    -0.000000

 -----------------------------------------------------------------
                    Cartesian Multipole Moments
 -----------------------------------------------------------------
    Charge (ESU x 10^10)
                -0.0000
    Dipole Moment (Debye)
         X      -2.0538      Y      -0.5695      Z       0.0440
       Tot       2.1318
    Quadrupole Moments (Debye-Ang)
        XX     -39.4119     XY      -0.1242     YY     -34.2513
        XZ      -0.0447     YZ      -1.5364     ZZ     -33.7591
    Octopole Moments (Debye-Ang^2)
       XXX     -53.9835    XXY       5.4508    XYY     -15.9286
       YYY       7.3565    XXZ      -1.8671    XYZ      -2.9590
       YYZ      -3.2574    XZZ     -14.1937    YZZ       1.9869
       ZZZ      -8.6741
    Hexadecapole Moments (Debye-Ang^3)
      XXXX    -690.7049   XXXY      13.3058   XXYY    -133.6238
      XYYY       8.4345   YYYY    -114.0139   XXXZ      -7.8264
      XXYZ      -1.7989   XYYZ      -6.0261   YYYZ      11.4396
      XXZZ    -127.0675   XYZZ       4.5190   YYZZ     -29.8162
      XZZZ     -15.5984   YZZZ       9.3858   ZZZZ     -92.1076
 -----------------------------------------------------------------
 Calculating analytic gradient of the SCF energy
 Gradient of SCF Energy
            1           2           3           4           5           6
    1   0.0011862  -0.0002572  -0.0000941   0.0001262   0.0001601  -0.0005874
    2  -0.0228406  -0.0009475  -0.0009845   0.0000178  -0.0000423   0.0020930
    3   0.0298027   0.0015150   0.0009648  -0.0003568   0.0000672  -0.0023066
            7           8           9          10          11          12
    1   0.0005321  -0.0002302   0.0001348   0.0000016  -0.0000542  -0.0009180
    2  -0.0001911   0.0002297  -0.0000084  -0.0000194  -0.0000196   0.0227128
    3  -0.0001850  -0.0000520  -0.0000203   0.0000049  -0.0000302  -0.0294036
 Max gradient component =       2.980E-02
 RMS gradient           =       8.832E-03
 Gradient time:  CPU 8.37 s  wall 0.71 s
 Geometry Optimization Parameters
   NAtoms,    NIC,     NZ,  NCons,   NDum,   NFix, NCnnct, MaxDiis
       12      83       0       1       0       0       0       0

 Cartesian Hessian Update
 Hessian Updated using BFGS Update
**WARNING** Hereditary positive definiteness endangered


** CONSTRAINED OPTIMIZATION IN DELOCALIZED INTERNAL COORDINATES **
   Searching for a Minimum

   Optimization Cycle:   2

                       Coordinates (Angstroms)
     ATOM                X               Y               Z
      1  S         2.1685204777   -0.1648551008    0.3215228878
      2  C        -0.5884137683    0.4458383572    0.0594498197
      3  C         0.4442616808   -0.6856583080    0.1155646079
      4  C        -2.0228401243   -0.0859821923   -0.0242559751
      5  H        -0.4651895038    1.0901128795    0.9366114713
      6  H        -0.3678307853    1.0721794584   -0.8209503445
      7  H         0.2735399247   -1.3075726567    1.0110930199
      8  H         0.3521768313   -1.3490361609   -0.7497786949
      9  H        -2.2876694396   -0.6679895254    0.8653838068
     10  H        -2.7394089149    0.7369906227   -0.1075385626
     11  H        -2.1580005184   -0.7331958766   -0.8980432730
     12  H         2.1034541400    1.5529715028   -1.8860557633
   Point Group: c1    Number of degrees of freedom:    30


   Energy is   -517.184238834

              Constraints and their Current Values
                                        Value     Constraint
   Distance(Angs):        1  12             2.797957     2.800000
 Hessian Updated using BFGS Update
**WARNING** Hereditary positive definiteness endangered

   Using Lagrange Multiplier Algorithm


 30 Hessian modes will be used to form the next step
  Hessian Eigenvalues:
    -1.009038    0.052271    0.128022    0.130374    0.136749    0.190767
     0.213364    0.216584    0.234335    0.235764    0.238006    0.275166
     0.352529    0.369756    0.379931    0.443150    0.455160    0.455197
     0.549188    0.698480    0.810286    0.831462    0.924512    0.946919
     0.971739    0.972286    0.973152    0.976120    0.976634    0.992755

 Minimum Search - Taking P-RFO Step
 Searching for Lamda that Maximizes Along the Constraint modes Only
 Value Taken    Lamda =   0.00002857
 Searching for Lamda that Minimizes Along All other modes
 Value Taken    Lamda =  -0.00013514
 Step Taken.  Stepsize is  0.007381

                             Maximum     Tolerance    Cnvgd?
         Gradient            0.011350       0.000300      NO
         Displacement        0.011516       0.001200      NO
         Energy change      0.007249       0.000001      NO


 New Cartesian Coordinates Obtained by Inverse Iteration

 Displacement from previous Coordinates is:  0.007628
 ----------------------------------------------------------------
             Standard Nuclear Orientation (Angstroms)
    I     Atom           X                Y                Z
 ----------------------------------------------------------------
    1      S       2.1683387019    -0.1652113894     0.3213994386
    2      C      -0.5882139536     0.4454962111     0.0594876945
    3      C       0.4441678030    -0.6854894019     0.1150734756
    4      C      -2.0228806045    -0.0860701145    -0.0239722083
    5      H      -0.4654410292     1.0900044283     0.9365043635
    6      H      -0.3665135901     1.0705829498    -0.8197398666
    7      H       0.2718865318    -1.3066348136     1.0109322750
    8      H       0.3527224958    -1.3494084133    -0.7499662559
    9      H      -2.2883247384    -0.6677063483     0.8657553058
   10      H      -2.7392267729     0.7370506507    -0.1077577439
   11      H      -2.1579041460    -0.7335425277    -0.8975722467
   12      H       2.1039893022     1.5547317689    -1.8871412317
 ----------------------------------------------------------------
 Nuclear Repulsion Energy =   158.3137361799 hartrees
 There are       21 alpha and       21 beta electrons

                       Distance Matrix (Angstroms)
             S (  1)   C (  2)   C (  3)   C (  4)   H (  5)   H (  6)
   C (  2)  2.835515
   C (  3)  1.812740  1.532328
   C (  4)  4.206170  1.532252  2.542630
   H (  5)  2.981730  1.095273  2.157433  2.175152
   H (  6)  3.042181  1.101329  2.148225  2.171323  1.759135
   H (  7)  2.318369  2.171401  1.103660  2.797635  2.508599  3.067585
   H (  8)  2.417976  2.182260  1.094278  2.786859  3.076412  2.525575
   H (  9)  4.517817  2.186244  2.833788  1.095617  2.533270  3.091262
   H ( 10)  5.008238  2.177115  3.493891  1.094395  2.526888  2.499586
   H ( 11)  4.530482  2.184038  2.792586  1.095732  3.090889  2.543621
   H ( 12)  2.800000  3.502531  3.432559  4.816086  3.845896  2.734434
             H (  7)   H (  8)   H (  9)   H ( 10)   H ( 11)
   H (  8)  1.763272
   H (  9)  2.642724  3.170237
   H ( 10)  3.807220  3.784956  1.767592
   H ( 11)  3.142405  2.589271  1.769369  1.767594
   H ( 12)  4.465742  3.576889  5.640044  5.224132  4.937528
 
 Applying Cartesian multipole field
    Component          Value
    ---------          -----
     (2,0,0)        1.00000E-11
     (0,2,0)        2.00000E-10
     (0,0,2)       -3.00000E-11
 Nucleus-field energy     =     0.0000000136 hartrees
 Requested basis set is 6-31G(d,p)
 There are 41 shells and 104 basis functions
 A cutoff of  1.0D-14 yielded    820 shell pairs
 There are      5379 function pairs
 Smallest overlap matrix eigenvalue = 5.61E-03
 Guess from superposition of atomic densities
 Warning:  Energy on first SCF cycle will be non-variational
 SAD guess density has 42.000000 electrons

 -----------------------------------------------------------------------
  General SCF calculation program by
  Eric Jon Sundstrom, Paul Horn, Yuezhi Mao, Dmitri Zuev, Alec White,
  David Stuck, Shaama M.S., Shane Yost, Joonho Lee, David Small,
  Daniel Levine, Susi Lehtola, Hugh Burton, Evgeny Epifanovsky
 -----------------------------------------------------------------------
 Exchange:     0.2000 Hartree-Fock + 0.0800 Slater + 0.7200 B88
 Correlation:  0.1900 VWN1RPA + 0.8100 LYP
 Using SG-1 standard quadrature grid
 using 12 threads for integral computing
 -------------------------------------------------------
 OpenMP Integral computing Module                
 Release: version 1.0, May 2013, Q-Chem Inc. Pittsburgh 
 -------------------------------------------------------
 -------------------------------------------------------
 OpenMP BLAS3 based DFT computing Module                
 Release: version 1.0, May 2013, Q-Chem Inc. Pittsburgh 
 -------------------------------------------------------
 A unrestricted SCF calculation will be
 performed using DIIS
 SCF converges when DIIS error is below 1.0e-06
 Alpha HF Exchange    Energy =  -4.33223931050207
 Beta HF Exchange     Energy =  -4.33223931050207
 DFT Correlation      Energy =  -1.86417708636314
 DFT Exchange         Energy = -33.95737177835286
 One-Electron (alpha) Energy = -509.68181424117830
 One-Electron (beta)  Energy = -509.68181424117830
 Total Coulomb        Energy = 387.99519929514128
 ---------------------------------------
  Cycle       Energy         DIIS error
 ---------------------------------------
    1    -517.5407204794      2.93e-02  
 Alpha HF Exchange    Energy =  -4.35558082873970
 Beta HF Exchange     Energy =  -4.35558082873970
 DFT Correlation      Energy =  -1.89882260127034
 DFT Exchange         Energy = -34.57980644283401
 One-Electron (alpha) Energy = -514.61079772595008
 One-Electron (beta)  Energy = -514.61079772595042
 Total Coulomb        Energy = 399.08536591838430
    2    -517.0122840416      4.29e-03  
 Alpha HF Exchange    Energy =  -4.28031204159538
 Beta HF Exchange     Energy =  -4.28031204159538
 DFT Correlation      Energy =  -1.85170718676582
 DFT Exchange         Energy = -33.92832771198828
 One-Electron (alpha) Energy = -505.56098621624852
 One-Electron (beta)  Energy = -505.56098621624841
 Total Coulomb        Energy = 380.45247572211298
    3    -516.6964194988      6.59e-03  
 Alpha HF Exchange    Energy =  -4.32502099030730
 Beta HF Exchange     Energy =  -4.32502099030730
 DFT Correlation      Energy =  -1.88376437663711
 DFT Exchange         Energy = -34.32948868669002
 One-Electron (alpha) Energy = -512.71598872908919
 One-Electron (beta)  Energy = -512.71598872908930
 Total Coulomb        Energy = 394.86384820718661
    4    -517.1176881014      2.26e-03  
 Alpha HF Exchange    Energy =  -4.31131048413559
 Beta HF Exchange     Energy =  -4.31131048413559
 DFT Correlation      Energy =  -1.87418841348010
 DFT Exchange         Energy = -34.23339869548355
 One-Electron (alpha) Energy = -510.19831517431606
 One-Electron (beta)  Energy = -510.19831517431567
 Total Coulomb        Energy = 389.66024111017731
    5    -517.1528611222      1.60e-03  
 Alpha HF Exchange    Energy =  -4.31454912075202
 Beta HF Exchange     Energy =  -4.31454912075203
 DFT Correlation      Energy =  -1.87708025197447
 DFT Exchange         Energy = -34.26425271220235
 One-Electron (alpha) Energy = -511.08029433213721
 One-Electron (beta)  Energy = -511.08029433213727
 Total Coulomb        Energy = 391.43417441399868
    6    -517.1831092624      3.45e-04  
 Alpha HF Exchange    Energy =  -4.31479886162976
 Beta HF Exchange     Energy =  -4.31479886162976
 DFT Correlation      Energy =  -1.87724640216131
 DFT Exchange         Energy = -34.26641657208889
 One-Electron (alpha) Energy = -511.10202368138528
 One-Electron (beta)  Energy = -511.10202368138459
 Total Coulomb        Energy = 391.48019975172701
    7    -517.1833721150      2.54e-04  
 Alpha HF Exchange    Energy =  -4.31539126879145
 Beta HF Exchange     Energy =  -4.31539126879145
 DFT Correlation      Energy =  -1.87764792322137
 DFT Exchange         Energy = -34.27115982556229
 One-Electron (alpha) Energy = -511.20200957828979
 One-Electron (beta)  Energy = -511.20200957828877
 Total Coulomb        Energy = 391.68590023919825
    8    -517.1839730102      1.07e-04  
 Alpha HF Exchange    Energy =  -4.31573360693206
 Beta HF Exchange     Energy =  -4.31573360693205
 DFT Correlation      Energy =  -1.87788019082292
 DFT Exchange         Energy = -34.27384649128869
 One-Electron (alpha) Energy = -511.26036565969997
 One-Electron (beta)  Energy = -511.26036565969821
 Total Coulomb        Energy = 391.80608679336058
    9    -517.1841022285      2.59e-05  
 Alpha HF Exchange    Energy =  -4.31580861940319
 Beta HF Exchange     Energy =  -4.31580861940317
 DFT Correlation      Energy =  -1.87793079878003
 DFT Exchange         Energy = -34.27441900390710
 One-Electron (alpha) Energy = -511.27341493975092
 One-Electron (beta)  Energy = -511.27341493974745
 Total Coulomb        Energy = 391.83295110842101
   10    -517.1841096191      6.10e-06  
 Alpha HF Exchange    Energy =  -4.31582442739496
 Beta HF Exchange     Energy =  -4.31582442739493
 DFT Correlation      Energy =  -1.87794136332272
 DFT Exchange         Energy = -34.27454228538150
 One-Electron (alpha) Energy = -511.27603463496729
 One-Electron (beta)  Energy = -511.27603463496195
 Total Coulomb        Energy = 391.83835558975761
   11    -517.1841099901      1.95e-06  
 Alpha HF Exchange    Energy =  -4.31583235951584
 Beta HF Exchange     Energy =  -4.31583235951579
 DFT Correlation      Energy =  -1.87794672049843
 DFT Exchange         Energy = -34.27460446602636
 One-Electron (alpha) Energy = -511.27739753041317
 One-Electron (beta)  Energy = -511.27739753040481
 Total Coulomb        Energy = 391.84116473430601
   12    -517.1841100386      1.93e-07  Convergence criterion met
 ---------------------------------------
 SCF time:   CPU 29.07s  wall 2.00s 
<S^2> =         -0.000000000
 Alpha HF Exchange    Energy =  -4.31583235951584
 Beta HF Exchange     Energy =  -4.31583235951579
 DFT Correlation      Energy =  -1.87794672049843
 DFT Exchange         Energy = -34.27460446602636
 One-Electron (alpha) Energy = -511.27739753041317
 One-Electron (beta)  Energy = -511.27739753040481
 Total Coulomb        Energy = 391.84116473430601
 Nuclear repulsion Energy = 158.31373619351680
 SCF   energy in the final basis set =     -517.1841100386
 Total energy in the final basis set =     -517.1841100386
 
 --------------------------------------------------------------
 
                    Orbital Energies (a.u.)
 --------------------------------------------------------------
 
 Alpha MOs
 -- Occupied --
-88.905 -10.228 -10.197 -10.186  -7.962  -5.929  -5.924  -5.915
 -0.813  -0.737  -0.638  -0.588  -0.480  -0.432  -0.410  -0.409
 -0.358  -0.345  -0.340  -0.268  -0.239
 -- Virtual --
 -0.170   0.048   0.099   0.121   0.130   0.152   0.170   0.174
  0.185   0.214   0.237   0.332   0.371   0.392   0.410   0.502
  0.514   0.525   0.554   0.571   0.642   0.664   0.667   0.741
  0.788   0.802   0.818   0.828   0.847   0.877   0.881   0.884
  0.907   0.934   0.941   0.988   1.031   1.095   1.316   1.355
  1.390   1.562   1.601   1.651   1.677   1.820   1.849   1.931
  2.006   2.011   2.040   2.047   2.053   2.080   2.097   2.109
  2.160   2.204   2.251   2.256   2.326   2.427   2.473   2.500
  2.584   2.689   2.724   2.739   2.795   2.836   2.877   2.902
  3.164   3.221   3.307   3.325   3.460   3.466   3.545   3.911
  4.264   4.447   4.621
 
 Beta MOs
 -- Occupied --
-88.905 -10.228 -10.197 -10.186  -7.962  -5.929  -5.924  -5.915
 -0.813  -0.737  -0.638  -0.588  -0.480  -0.432  -0.410  -0.409
 -0.358  -0.345  -0.340  -0.268  -0.239
 -- Virtual --
 -0.170   0.048   0.099   0.121   0.130   0.152   0.170   0.174
  0.185   0.214   0.237   0.332   0.371   0.392   0.410   0.502
  0.514   0.525   0.554   0.571   0.642   0.664   0.667   0.741
  0.788   0.802   0.818   0.828   0.847   0.877   0.881   0.884
  0.907   0.934   0.941   0.988   1.031   1.095   1.316   1.355
  1.390   1.562   1.601   1.651   1.677   1.820   1.849   1.931
  2.006   2.011   2.040   2.047   2.053   2.080   2.097   2.109
  2.160   2.204   2.251   2.256   2.326   2.427   2.473   2.500
  2.584   2.689   2.724   2.739   2.795   2.836   2.877   2.902
  3.164   3.221   3.307   3.325   3.460   3.466   3.545   3.911
  4.264   4.447   4.621
 --------------------------------------------------------------
 
          Ground-State Mulliken Net Atomic Charges

     Atom                 Charge (a.u.)    Spin (a.u.)
  --------------------------------------------------------
      1 S                    -0.017295       0.000000
      2 C                    -0.162877       0.000000
      3 C                    -0.342398      -0.000000
      4 C                    -0.324467      -0.000000
      5 H                     0.118016       0.000000
      6 H                     0.110927       0.000000
      7 H                     0.149334       0.000000
      8 H                     0.147376       0.000000
      9 H                     0.106857       0.000000
     10 H                     0.113118       0.000000
     11 H                     0.108024       0.000000
     12 H                    -0.006617      -0.000000
  --------------------------------------------------------
  Sum of atomic charges =    -0.000000
  Sum of spin   charges =     0.000000

 -----------------------------------------------------------------
                    Cartesian Multipole Moments
 -----------------------------------------------------------------
    Charge (ESU x 10^10)
                -0.0000
    Dipole Moment (Debye)
         X      -2.0549      Y      -0.5698      Z       0.0447
       Tot       2.1329
    Quadrupole Moments (Debye-Ang)
        XX     -39.4096     XY      -0.1240     YY     -34.2527
        XZ      -0.0470     YZ      -1.5322     ZZ     -33.7614
    Octopole Moments (Debye-Ang^2)
       XXX     -53.9832    XXY       5.4502    XYY     -15.9297
       YYY       7.3743    XXZ      -1.8564    XYZ      -2.9539
       YYZ      -3.2554    XZZ     -14.1991    YZZ       1.9895
       ZZZ      -8.6623
    Hexadecapole Moments (Debye-Ang^3)
      XXXX    -690.6256   XXXY      13.2838   XXYY    -133.6181
      XYYY       8.4273   YYYY    -114.0282   XXXZ      -7.7714
      XXYZ      -1.7929   XYYZ      -6.0131   YYYZ      11.4615
      XXZZ    -127.0706   XYZZ       4.5161   YYZZ     -29.8254
      XZZZ     -15.5449   YZZZ       9.4028   ZZZZ     -92.1313
 -----------------------------------------------------------------
 Calculating analytic gradient of the SCF energy
 Gradient of SCF Energy
            1           2           3           4           5           6
    1   0.0011440   0.0000120  -0.0001397   0.0000839   0.0000819  -0.0005450
    2  -0.0228191  -0.0007163  -0.0006586  -0.0000024  -0.0000100   0.0015115
    3   0.0296833   0.0010290   0.0006725  -0.0002491   0.0000251  -0.0015914
            7           8           9          10          11          12
    1   0.0003596  -0.0001449   0.0000748  -0.0000065  -0.0000245  -0.0008958
    2  -0.0001014   0.0001733  -0.0000253  -0.0000216  -0.0000095   0.0226793
    3  -0.0001394  -0.0000608  -0.0000196   0.0000103  -0.0000247  -0.0293352
 Max gradient component =       2.968E-02
 RMS gradient           =       8.798E-03
 Gradient time:  CPU 8.72 s  wall 0.76 s
 Geometry Optimization Parameters
   NAtoms,    NIC,     NZ,  NCons,   NDum,   NFix, NCnnct, MaxDiis
       12      83       0       1       0       0       0       0

 Cartesian Hessian Update
 Hessian Updated using BFGS Update


** CONSTRAINED OPTIMIZATION IN DELOCALIZED INTERNAL COORDINATES **
   Searching for a Minimum

   Optimization Cycle:   3

                       Coordinates (Angstroms)
     ATOM                X               Y               Z
      1  S         2.1683387019   -0.1652113894    0.3213994386
      2  C        -0.5882139536    0.4454962111    0.0594876945
      3  C         0.4441678030   -0.6854894019    0.1150734756
      4  C        -2.0228806045   -0.0860701145   -0.0239722083
      5  H        -0.4654410292    1.0900044283    0.9365043635
      6  H        -0.3665135901    1.0705829498   -0.8197398666
      7  H         0.2718865318   -1.3066348136    1.0109322750
      8  H         0.3527224958   -1.3494084133   -0.7499662559
      9  H        -2.2883247384   -0.6677063483    0.8657553058
     10  H        -2.7392267729    0.7370506507   -0.1077577439
     11  H        -2.1579041460   -0.7335425277   -0.8975722467
     12  H         2.1039893022    1.5547317689   -1.8871412317
   Point Group: c1    Number of degrees of freedom:    30


   Energy is   -517.184110039

              Constraints and their Current Values
                                        Value     Constraint
   Distance(Angs):        1  12             2.800000     2.800000
 Hessian Updated using BFGS Update

 29 Hessian modes will be used to form the next step
  Hessian Eigenvalues:
     0.051905    0.100238    0.128357    0.133318    0.180813    0.194263
     0.215861    0.222199    0.234385    0.236135    0.239969    0.279479
     0.356682    0.370109    0.423130    0.455190    0.455197    0.456103
     0.549986    0.683508    0.730649    0.830587    0.840532    0.947193
     0.971754    0.972336    0.973170    0.976121    0.976716

 Minimum Search - Taking Simple RFO Step
 Searching for Lamda that Minimizes Along All modes
 Value Taken    Lamda =  -0.00003276
 Step Taken.  Stepsize is  0.016088

                             Maximum     Tolerance    Cnvgd?
         Gradient           0.001285      0.000300      NO
         Displacement       0.007643      0.001200      NO
         Energy change      0.000129      0.000001      NO


 New Cartesian Coordinates Obtained by Inverse Iteration

 Displacement from previous Coordinates is:  0.018343
 ----------------------------------------------------------------
             Standard Nuclear Orientation (Angstroms)
    I     Atom           X                Y                Z
 ----------------------------------------------------------------
    1      S       2.1676298376    -0.1646533694     0.3192418078
    2      C      -0.5880692000     0.4445222094     0.0593476464
    3      C       0.4439798222    -0.6849746056     0.1134830275
    4      C      -2.0233290111    -0.0862757117    -0.0231732506
    5      H      -0.4661700071     1.0897531583     0.9358869365
    6      H      -0.3630779188     1.0662149396    -0.8170073489
    7      H       0.2688002912    -1.3043386393     1.0103084676
    8      H       0.3539907707    -1.3504633971    -0.7505679002
    9      H      -2.2899782400    -0.6665426074     0.8671254811
   10      H      -2.7390100085     0.7372863083    -0.1083920560
   11      H      -2.1583824700    -0.7347518012    -0.8960012892
   12      H       2.1062161340     1.5580265158    -1.8872485221
 ----------------------------------------------------------------
 Nuclear Repulsion Energy =   158.3634208558 hartrees
 There are       21 alpha and       21 beta electrons

                       Distance Matrix (Angstroms)
             S (  1)   C (  2)   C (  3)   C (  4)   H (  5)   H (  6)
   C (  2)  2.834170
   C (  3)  1.812192  1.530954
   C (  4)  4.205654  1.532490  2.542583
   H (  5)  2.981726  1.095218  2.157401  2.174301
   H (  6)  3.034894  1.097780  2.140986  2.171368  1.756081
   H (  7)  2.319916  2.167272  1.103900  2.793854  2.505473  3.059065
   H (  8)  2.416594  2.182983  1.094330  2.789072  3.077572  2.521693
   H (  9)  4.519108  2.187113  2.835991  1.095647  2.532899  3.090582
   H ( 10)  5.007143  2.177245  3.493348  1.094402  2.525976  2.501076
   H ( 11)  4.529482  2.183864  2.791742  1.095714  3.090019  2.544178
   H ( 12)  2.800000  3.505467  3.434678  4.819922  3.847927  2.735819
             H (  7)   H (  8)   H (  9)   H ( 10)   H ( 11)
   H (  8)  1.763539
   H (  9)  2.640953  3.174154
   H ( 10)  3.803504  3.786521  1.767484
   H ( 11)  3.138417  2.590805  1.769346  1.767584
   H ( 12)  4.468229  3.580733  5.644627  5.226295  4.942287
 
 Applying Cartesian multipole field
    Component          Value
    ---------          -----
     (2,0,0)        1.00000E-11
     (0,2,0)        2.00000E-10
     (0,0,2)       -3.00000E-11
 Nucleus-field energy     =     0.0000000136 hartrees
 Requested basis set is 6-31G(d,p)
 There are 41 shells and 104 basis functions
 A cutoff of  1.0D-14 yielded    820 shell pairs
 There are      5379 function pairs
 Smallest overlap matrix eigenvalue = 5.60E-03
 Guess from superposition of atomic densities
 Warning:  Energy on first SCF cycle will be non-variational
 SAD guess density has 42.000000 electrons

 -----------------------------------------------------------------------
  General SCF calculation program by
  Eric Jon Sundstrom, Paul Horn, Yuezhi Mao, Dmitri Zuev, Alec White,
  David Stuck, Shaama M.S., Shane Yost, Joonho Lee, David Small,
  Daniel Levine, Susi Lehtola, Hugh Burton, Evgeny Epifanovsky
 -----------------------------------------------------------------------
 Exchange:     0.2000 Hartree-Fock + 0.0800 Slater + 0.7200 B88
 Correlation:  0.1900 VWN1RPA + 0.8100 LYP
 Using SG-1 standard quadrature grid
 using 12 threads for integral computing
 -------------------------------------------------------
 OpenMP Integral computing Module                
 Release: version 1.0, May 2013, Q-Chem Inc. Pittsburgh 
 -------------------------------------------------------
 -------------------------------------------------------
 OpenMP BLAS3 based DFT computing Module                
 Release: version 1.0, May 2013, Q-Chem Inc. Pittsburgh 
 -------------------------------------------------------
 A unrestricted SCF calculation will be
 performed using DIIS
 SCF converges when DIIS error is below 1.0e-06
 Alpha HF Exchange    Energy =  -4.33263311285903
 Beta HF Exchange     Energy =  -4.33263311285903
 DFT Correlation      Energy =  -1.86426120854497
 DFT Exchange         Energy = -33.95816772077796
 One-Electron (alpha) Energy = -509.72922327828462
 One-Electron (beta)  Energy = -509.72922327828462
 Total Coulomb        Energy = 388.03889407049172
 ---------------------------------------
  Cycle       Energy         DIIS error
 ---------------------------------------
    1    -517.5438267717      2.93e-02  
 Alpha HF Exchange    Energy =  -4.35581391715863
 Beta HF Exchange     Energy =  -4.35581391715863
 DFT Correlation      Energy =  -1.89893447611403
 DFT Exchange         Energy = -34.58147793767472
 One-Electron (alpha) Energy = -514.66278573686975
 One-Electron (beta)  Energy = -514.66278573686952
 Total Coulomb        Energy = 399.14212021702184
    2    -517.0120706354      4.29e-03  
 Alpha HF Exchange    Energy =  -4.28043481581266
 Beta HF Exchange     Energy =  -4.28043481581266
 DFT Correlation      Energy =  -1.85178699103808
 DFT Exchange         Energy = -33.92929899315395
 One-Electron (alpha) Energy = -505.60602269310863
 One-Electron (beta)  Energy = -505.60602269310914
 Total Coulomb        Energy = 380.49432511800387
    3    -516.6962550146      6.60e-03  
 Alpha HF Exchange    Energy =  -4.32519083731285
 Beta HF Exchange     Energy =  -4.32519083731286
 DFT Correlation      Energy =  -1.88385537881678
 DFT Exchange         Energy = -34.33073181462014
 One-Electron (alpha) Energy = -512.76335858189498
 One-Electron (beta)  Energy = -512.76335858189509
 Total Coulomb        Energy = 394.91034446574531
    4    -517.1179206967      2.25e-03  
 Alpha HF Exchange    Energy =  -4.31148910892147
 Beta HF Exchange     Energy =  -4.31148910892148
 DFT Correlation      Energy =  -1.87427136065274
 DFT Exchange         Energy = -34.23463343189827
 One-Electron (alpha) Energy = -510.24222007592579
 One-Electron (beta)  Energy = -510.24222007592573
 Total Coulomb        Energy = 389.70025699121345
    5    -517.1526453016      1.61e-03  
 Alpha HF Exchange    Energy =  -4.31473881032796
 Beta HF Exchange     Energy =  -4.31473881032796
 DFT Correlation      Energy =  -1.87717838048568
 DFT Exchange         Energy = -34.26562059749521
 One-Electron (alpha) Energy = -511.12932321095053
 One-Electron (beta)  Energy = -511.12932321094991
 Total Coulomb        Energy = 391.48437451037000
    6    -517.1831276407      3.45e-04  
 Alpha HF Exchange    Energy =  -4.31498415285979
 Beta HF Exchange     Energy =  -4.31498415285979
 DFT Correlation      Energy =  -1.87734153092118
 DFT Exchange         Energy = -34.26774388809216
 One-Electron (alpha) Energy = -511.15032982100570
 One-Electron (beta)  Energy = -511.15032982100473
 Total Coulomb        Energy = 391.52890272614195
    7    -517.1833897711      2.53e-04  
 Alpha HF Exchange    Energy =  -4.31557729907699
 Beta HF Exchange     Energy =  -4.31557729907700
 DFT Correlation      Energy =  -1.87774373202547
 DFT Exchange         Energy = -34.27249267833047
 One-Electron (alpha) Energy = -511.25046201161030
 One-Electron (beta)  Energy = -511.25046201160961
 Total Coulomb        Energy = 391.73490361016201
    8    -517.1839905521      1.07e-04  
 Alpha HF Exchange    Energy =  -4.31591909101240
 Beta HF Exchange     Energy =  -4.31591909101240
 DFT Correlation      Energy =  -1.87797552455893
 DFT Exchange         Energy = -34.27517508861010
 One-Electron (alpha) Energy = -511.30871244574035
 One-Electron (beta)  Energy = -511.30871244573876
 Total Coulomb        Energy = 391.85487351169877
    9    -517.1841193055      2.59e-05  
 Alpha HF Exchange    Energy =  -4.31599412562806
 Beta HF Exchange     Energy =  -4.31599412562804
 DFT Correlation      Energy =  -1.87802620490972
 DFT Exchange         Energy = -34.27574742304557
 One-Electron (alpha) Energy = -511.32178873381258
 One-Electron (beta)  Energy = -511.32178873380917
 Total Coulomb        Energy = 391.88179174679067
   10    -517.1841267306      6.10e-06  
 Alpha HF Exchange    Energy =  -4.31601006039734
 Beta HF Exchange     Energy =  -4.31601006039732
 DFT Correlation      Energy =  -1.87803686218330
 DFT Exchange         Energy = -34.27587169610644
 One-Electron (alpha) Energy = -511.32443088794378
 One-Electron (beta)  Energy = -511.32443088793946
 Total Coulomb        Energy = 391.88724248185503
   11    -517.1841271037      1.94e-06  
 Alpha HF Exchange    Energy =  -4.31601794627260
 Beta HF Exchange     Energy =  -4.31601794627256
 DFT Correlation      Energy =  -1.87804218857419
 DFT Exchange         Energy = -34.27593349434729
 One-Electron (alpha) Energy = -511.32578730721457
 One-Electron (beta)  Energy = -511.32578730720695
 Total Coulomb        Energy = 391.89003816892705
   12    -517.1841271515      1.91e-07  Convergence criterion met
 ---------------------------------------
 SCF time:   CPU 28.87s  wall 2.00s 
<S^2> =         -0.000000000
 Alpha HF Exchange    Energy =  -4.31601794627260
 Beta HF Exchange     Energy =  -4.31601794627256
 DFT Correlation      Energy =  -1.87804218857419
 DFT Exchange         Energy = -34.27593349434729
 One-Electron (alpha) Energy = -511.32578730721457
 One-Electron (beta)  Energy = -511.32578730720695
 Total Coulomb        Energy = 391.89003816892705
 Nuclear repulsion Energy = 158.36342086945373
 SCF   energy in the final basis set =     -517.1841271515
 Total energy in the final basis set =     -517.1841271515
 
 --------------------------------------------------------------
 
                    Orbital Energies (a.u.)
 --------------------------------------------------------------
 
 Alpha MOs
 -- Occupied --
-88.905 -10.228 -10.197 -10.186  -7.962  -5.929  -5.924  -5.915
 -0.813  -0.737  -0.638  -0.588  -0.480  -0.432  -0.410  -0.409
 -0.358  -0.345  -0.340  -0.268  -0.239
 -- Virtual --
 -0.170   0.048   0.099   0.122   0.130   0.152   0.170   0.174
  0.185   0.214   0.237   0.332   0.371   0.392   0.410   0.502
  0.514   0.525   0.554   0.571   0.643   0.664   0.667   0.741
  0.788   0.802   0.819   0.829   0.847   0.877   0.881   0.884
  0.908   0.934   0.942   0.988   1.031   1.096   1.316   1.356
  1.390   1.562   1.601   1.651   1.678   1.821   1.850   1.932
  2.006   2.011   2.040   2.047   2.053   2.081   2.097   2.110
  2.160   2.205   2.252   2.256   2.326   2.427   2.474   2.500
  2.584   2.690   2.724   2.740   2.797   2.837   2.877   2.903
  3.165   3.221   3.310   3.325   3.461   3.466   3.547   3.911
  4.265   4.447   4.622
 
 Beta MOs
 -- Occupied --
-88.905 -10.228 -10.197 -10.186  -7.962  -5.929  -5.924  -5.915
 -0.813  -0.737  -0.638  -0.588  -0.480  -0.432  -0.410  -0.409
 -0.358  -0.345  -0.340  -0.268  -0.239
 -- Virtual --
 -0.170   0.048   0.099   0.122   0.130   0.152   0.170   0.174
  0.185   0.214   0.237   0.332   0.371   0.392   0.410   0.502
  0.514   0.525   0.554   0.571   0.643   0.664   0.667   0.741
  0.788   0.802   0.819   0.829   0.847   0.877   0.881   0.884
  0.908   0.934   0.942   0.988   1.031   1.096   1.316   1.356
  1.390   1.562   1.601   1.651   1.678   1.821   1.850   1.932
  2.006   2.011   2.040   2.047   2.053   2.081   2.097   2.110
  2.160   2.205   2.252   2.256   2.326   2.427   2.474   2.500
  2.584   2.690   2.724   2.740   2.797   2.837   2.877   2.903
  3.165   3.221   3.310   3.325   3.461   3.466   3.547   3.911
  4.265   4.447   4.622
 --------------------------------------------------------------
 
          Ground-State Mulliken Net Atomic Charges

     Atom                 Charge (a.u.)    Spin (a.u.)
  --------------------------------------------------------
      1 S                    -0.017239       0.000000
      2 C                    -0.163055      -0.000000
      3 C                    -0.342586      -0.000000
      4 C                    -0.324634       0.000000
      5 H                     0.117985       0.000000
      6 H                     0.111463       0.000000
      7 H                     0.149318       0.000000
      8 H                     0.147389       0.000000
      9 H                     0.106915      -0.000000
     10 H                     0.113166       0.000000
     11 H                     0.108006       0.000000
     12 H                    -0.006728      -0.000000
  --------------------------------------------------------
  Sum of atomic charges =    -0.000000
  Sum of spin   charges =    -0.000000

 -----------------------------------------------------------------
                    Cartesian Multipole Moments
 -----------------------------------------------------------------
    Charge (ESU x 10^10)
                -0.0000
    Dipole Moment (Debye)
         X      -2.0561      Y      -0.5698      Z       0.0456
       Tot       2.1341
    Quadrupole Moments (Debye-Ang)
        XX     -39.4017     XY      -0.1220     YY     -34.2530
        XZ      -0.0539     YZ      -1.5250     ZZ     -33.7648
    Octopole Moments (Debye-Ang^2)
       XXX     -53.9627    XXY       5.4357    XYY     -15.9151
       YYY       7.3694    XXZ      -1.8121    XYZ      -2.9515
       YYZ      -3.2342    XZZ     -14.1993    YZZ       1.9876
       ZZZ      -8.5685
    Hexadecapole Moments (Debye-Ang^3)
      XXXX    -690.4554   XXXY      13.1299   XXYY    -133.5635
      XYYY       8.2991   YYYY    -113.9738   XXXZ      -7.5022
      XXYZ      -1.8192   XYYZ      -5.9442   YYYZ      11.4478
      XXZZ    -127.0353   XYZZ       4.4894   YYZZ     -29.8007
      XZZZ     -15.2779   YZZZ       9.3813   ZZZZ     -92.0017
 -----------------------------------------------------------------
 Calculating analytic gradient of the SCF energy
 Gradient of SCF Energy
            1           2           3           4           5           6
    1   0.0009576   0.0005861  -0.0001856  -0.0000318  -0.0001022  -0.0003748
    2  -0.0228656  -0.0001069   0.0001608  -0.0000523   0.0000780   0.0000234
    3   0.0294775  -0.0001941  -0.0000694   0.0000348  -0.0000727   0.0002187
            7           8           9          10          11          12
    1  -0.0000773   0.0000800  -0.0000476  -0.0000205   0.0000349  -0.0008187
    2   0.0000727   0.0000354  -0.0000560  -0.0000238   0.0000101   0.0227242
    3  -0.0000148  -0.0000517  -0.0000227   0.0000150  -0.0000189  -0.0293016
 Max gradient component =       2.948E-02
 RMS gradient           =       8.770E-03
 Gradient time:  CPU 8.46 s  wall 0.71 s
 Geometry Optimization Parameters
   NAtoms,    NIC,     NZ,  NCons,   NDum,   NFix, NCnnct, MaxDiis
       12      83       0       1       0       0       0       0

 Cartesian Hessian Update
 Hessian Updated using BFGS Update


** CONSTRAINED OPTIMIZATION IN DELOCALIZED INTERNAL COORDINATES **
   Searching for a Minimum

   Optimization Cycle:   4

                       Coordinates (Angstroms)
     ATOM                X               Y               Z
      1  S         2.1676298376   -0.1646533694    0.3192418078
      2  C        -0.5880692000    0.4445222094    0.0593476464
      3  C         0.4439798222   -0.6849746056    0.1134830275
      4  C        -2.0233290111   -0.0862757117   -0.0231732506
      5  H        -0.4661700071    1.0897531583    0.9358869365
      6  H        -0.3630779188    1.0662149396   -0.8170073489
      7  H         0.2688002912   -1.3043386393    1.0103084676
      8  H         0.3539907707   -1.3504633971   -0.7505679002
      9  H        -2.2899782400   -0.6665426074    0.8671254811
     10  H        -2.7390100085    0.7372863083   -0.1083920560
     11  H        -2.1583824700   -0.7347518012   -0.8960012892
     12  H         2.1062161340    1.5580265158   -1.8872485221
   Point Group: c1    Number of degrees of freedom:    30


   Energy is   -517.184127152

              Constraints and their Current Values
                                        Value     Constraint
   Distance(Angs):        1  12             2.800000     2.800000
 Hessian Updated using BFGS Update

 29 Hessian modes will be used to form the next step
  Hessian Eigenvalues:
     0.052306    0.086141    0.128403    0.132888    0.184341    0.197135
     0.215991    0.219671    0.234396    0.236031    0.239257    0.283970
     0.360687    0.370112    0.422119    0.455192    0.455197    0.456887
     0.550941    0.688518    0.764685    0.831380    0.840664    0.947458
     0.971763    0.972385    0.973194    0.976121    0.976785

 Minimum Search - Taking Simple RFO Step
 Searching for Lamda that Minimizes Along All modes
 Value Taken    Lamda =  -0.00000138
 Step Taken.  Stepsize is  0.003012

                             Maximum     Tolerance    Cnvgd?
         Gradient           0.000271      0.000300     YES
         Displacement       0.001099      0.001200     YES
         Energy change     -0.000017      0.000001      NO


                       Distance Matrix (Angstroms)
             S (  1)   C (  2)   C (  3)   C (  4)   H (  5)   H (  6)
   C (  2)  2.834170
   C (  3)  1.812192  1.530954
   C (  4)  4.205654  1.532490  2.542583
   H (  5)  2.981726  1.095218  2.157401  2.174301
   H (  6)  3.034894  1.097780  2.140986  2.171368  1.756081
   H (  7)  2.319916  2.167272  1.103900  2.793854  2.505473  3.059065
   H (  8)  2.416594  2.182983  1.094330  2.789072  3.077572  2.521693
   H (  9)  4.519108  2.187113  2.835991  1.095647  2.532899  3.090582
   H ( 10)  5.007143  2.177245  3.493348  1.094402  2.525976  2.501076
   H ( 11)  4.529482  2.183864  2.791742  1.095714  3.090019  2.544178
   H ( 12)  2.800000  3.505467  3.434678  4.819922  3.847927  2.735819
             H (  7)   H (  8)   H (  9)   H ( 10)   H ( 11)
   H (  8)  1.763539
   H (  9)  2.640953  3.174154
   H ( 10)  3.803504  3.786521  1.767484
   H ( 11)  3.138417  2.590805  1.769346  1.767584
   H ( 12)  4.468229  3.580733  5.644627  5.226295  4.942287
 
 Final energy is   -517.184127151507     


 ******************************
 **  OPTIMIZATION CONVERGED  **
 ******************************

                       Coordinates (Angstroms)
     ATOM                X               Y               Z
      1  S         2.1676298376   -0.1646533694    0.3192418078
      2  C        -0.5880692000    0.4445222094    0.0593476464
      3  C         0.4439798222   -0.6849746056    0.1134830275
      4  C        -2.0233290111   -0.0862757117   -0.0231732506
      5  H        -0.4661700071    1.0897531583    0.9358869365
      6  H        -0.3630779188    1.0662149396   -0.8170073489
      7  H         0.2688002912   -1.3043386393    1.0103084676
      8  H         0.3539907707   -1.3504633971   -0.7505679002
      9  H        -2.2899782400   -0.6665426074    0.8671254811
     10  H        -2.7390100085    0.7372863083   -0.1083920560
     11  H        -2.1583824700   -0.7347518012   -0.8960012892
     12  H         2.1062161340    1.5580265158   -1.8872485221

Z-matrix Print:
$molecule
0 1
S 
C  1 1.812192
H  2 1.094330 1 110.027407
H  2 1.103900 1 102.696741 3 113.296109 0
C  2 1.530954 1 115.681506 3 -127.352533 0
H  5 1.095218 2 109.348727 1 -53.190671 0
H  5 1.097780 2 107.931556 1 62.167715 0
C  5 1.532490 2 112.192400 1 -176.247341 0
H  8 1.094402 5 110.854974 2 -177.324368 0
H  8 1.095647 5 111.568460 2 62.750831 0
H  8 1.095714 5 111.304103 2 -57.570052 0
H  7 2.735819 5 126.804103 2 -31.943992 0
$end

PES scan, value:    2.8000 energy: -517.1841271515
------- Summary of potential scan: ------ 
    2.8000      -517.1841271515
----------------------------------------- 
Archival summary:
1\1\hpc0250\JobtypUnspecified\ProcedureUnspecified\6-31G**\138\knomura\WedMar1322:07:212019WedMar1322:07:212019\0\\#,JobtypUnspecified,ProcedureUnspecified,6-31G**,\\0,1\S\C,1,1.81219\H,2,1.09433,1,110.027\H,2,1.1039,1,102.697,3,113.296,0\C,2,1.53095,1,115.682,3,-127.353,0\H,5,1.09522,2,109.349,1,-53.1907,0\H,5,1.09778,2,107.932,1,62.1677,0\C,5,1.53249,2,112.192,1,-176.247,0\H,8,1.0944,5,110.855,2,-177.324,0\H,8,1.09565,5,111.568,2,62.7508,0\H,8,1.09571,5,111.304,2,-57.5701,0\H,7,2.73582,5,126.804,2,-31.944,0\\\@

 Total job time:  14.56s(wall), 167.03s(cpu) 
 Wed Mar 13 22:07:21 2019

        *************************************************************
        *                                                           *
        *  Thank you very much for using Q-Chem.  Have a nice day.  *
        *                                                           *
        *************************************************************


