
Running Job 1 of 1 thiol/02/S-H.xyz.data/inputs/bond_triplet_2.3.in
qchem thiol/02/S-H.xyz.data/inputs/bond_triplet_2.3.in_25439.0 /staging/scratch/2868767/qchem25439/ 1
/usr/usc/qchem/5.1.1/exe/qcprog.exe_s thiol/02/S-H.xyz.data/inputs/bond_triplet_2.3.in_25439.0 /staging/scratch/2868767/qchem25439/
Check license passed

                  Welcome to Q-Chem
     A Quantum Leap Into The Future Of Chemistry


 Q-Chem 5.1, Q-Chem, Inc., Pleasanton, CA (2018)

 Yihan Shao,  Zhengting Gan,  E. Epifanovsky,  A. T. B. Gilbert,  M. Wormit,  
 J. Kussmann,  A. W. Lange,  A. Behn,  Jia Deng,  Xintian Feng,  D. Ghosh,  
 M. Goldey,  P. R. Horn,  L. D. Jacobson,  I. Kaliman,  T. Kus,  A. Landau,  
 Jie Liu,  E. I. Proynov,  R. M. Richard,  R. P. Steele,  E. J. Sundstrom,  
 H. L. Woodcock III,  P. M. Zimmerman,  D. Zuev,  B. Albrecht,  E. Alguire,  
 S. A. Baeppler,  D. Barton,  Z. Benda,  Y. A. Bernard,  E. J. Berquist,  
 K. B. Bravaya,  H. Burton,  D. Casanova,  Chun-Min Chang,  Yunqing Chen,  
 A. Chien,  K. D. Closser,  M. P. Coons,  S. Coriani,  S. Dasgupta,  
 A. L. Dempwolff,  M. Diedenhofen,  Hainam Do,  R. G. Edgar,  Po-Tung Fang,  
 S. Faraji,  S. Fatehi,  Qingguo Feng,  K. D. Fenk,  J. Fosso-Tande,  
 Qinghui Ge,  A. Ghysels,  G. Gidofalvi,  J. Gomes,  J. Gonthier,  A. Gunina,  
 D. Hait,  M. W. D. Hanson-Heine,  P. H. P. Harbach,  A. W. Hauser,  
 J. E. Herr,  E. G. Hohenstein,  Z. C. Holden,  Kerwin Hui,  B. C. Huynh,  
 T.-C. Jagau,  Hyunjun Ji,  B. Kaduk,  K. Khistyaev,  Jaehoon Kim,  
 P. Klunzinger,  K. Koh,  D. Kosenkov,  L. Koulias,  T. Kowalczyk,  
 C. M. Krauter,  A. Kunitsa,  Ka Un Lao,  A. Laurent,  K. V. Lawler,  
 Joonho Lee,  D. Lefrancois,  S. Lehtola,  D. S. Levine,  Yi-Pei Li,  
 You-Sheng Lin,  Fenglai Liu,  E. Livshits,  A. Luenser,  P. Manohar,  
 E. Mansoor,  S. F. Manzer,  Shan-Ping Mao,  Yuezhi Mao,  N. Mardirossian,  
 A. V. Marenich,  T. Markovich,  L. A. Martinez-Martinez,  S. A. Maurer,  
 N. J. Mayhall,  S. C. McKenzie,  J.-M. Mewes,  A. F. Morrison,  
 J. W. Mullinax,  K. Nanda,  T. S. Nguyen-Beck,  R. Olivares-Amaya,  
 J. A. Parkhill,  T. M. Perrine,  F. Plasser,  P. Pokhilko,  S. Prager,  
 A. Prociuk,  E. Ramos,  D. R. Rehn,  F. Rob,  M. Schneider,  N. Sergueev,  
 S. M. Sharada,  S. Sharma,  D. W. Small,  T. Stauch,  T. Stein,  
 Yu-Chuan Su,  A. J. W. Thom,  A. Tkatchenko,  T. Tsuchimochi,  N. M. Tubman,  
 L. Vogt,  M. L. Vidal,  O. Vydrov,  M. A. Watson,  J. Wenzel,  
 M. de Wergifosse,  T. A. Wesolowski,  A. White,  J. Witte,  A. Yamada,  
 Jun Yang,  K. Yao,  S. Yeganeh,  S. R. Yost,  Zhi-Qiang You,  A. Zech,  
 Igor Ying Zhang,  Xing Zhang,  Yan Zhao,  Ying Zhu,  B. R. Brooks,  
 G. K. L. Chan,  C. J. Cramer,  M. S. Gordon,  W. J. Hehre,  A. Klamt,  
 M. W. Schmidt,  C. D. Sherrill,  D. G. Truhlar,  A. Aspuru-Guzik,  R. Baer,  
 A. T. Bell,  N. A. Besley,  Jeng-Da Chai,  A. E. DePrince, III,  
 R. A. DiStasio Jr.,  A. Dreuw,  B. D. Dunietz,  T. R. Furlani,  
 Chao-Ping Hsu,  Yousung Jung,  Jing Kong,  D. S. Lambrecht,  WanZhen Liang,  
 C. Ochsenfeld,  V. A. Rassolov,  L. V. Slipchenko,  J. E. Subotnik,  
 T. Van Voorhis,  J. M. Herbert,  A. I. Krylov,  P. M. W. Gill,  M. Head-Gordon

 Contributors to earlier versions of Q-Chem not listed above: 
 R. D. Adamson,  B. Austin,  J. Baker,  G. J. O. Beran,  K. Brandhorst,  
 S. T. Brown,  E. F. C. Byrd,  A. K. Chakraborty,  C.-L. Cheng,  
 Siu Hung Chien,  D. M. Chipman,  D. L. Crittenden,  H. Dachsel,  
 R. J. Doerksen,  A. D. Dutoi,  L. Fusti-Molnar,  W. A. Goddard III,  
 A. Golubeva-Zadorozhnaya,  S. R. Gwaltney,  G. Hawkins,  A. Heyden,  
 S. Hirata,  G. Kedziora,  F. J. Keil,  C. Kelley,  Jihan Kim,  R. A. King,  
 R. Z. Khaliullin,  P. P. Korambath,  W. Kurlancheek,  A. M. Lee,  M. S. Lee,  
 S. V. Levchenko,  Ching Yeh Lin,  D. Liotard,  R. C. Lochan,  I. Lotan,  
 P. E. Maslen,  N. Nair,  D. P. O'Neill,  D. Neuhauser,  E. Neuscamman,  
 C. M. Oana,  R. Olson,  B. Peters,  R. Peverati,  P. A. Pieniazek,  
 Y. M. Rhee,  J. Ritchie,  M. A. Rohrdanz,  E. Rosta,  N. J. Russ,  
 H. F. Schaefer III,  N. E. Schultz,  N. Shenvi,  A. C. Simmonett,  A. Sodt,  
 D. Stuck,  K. S. Thanthiriwatte,  V. Vanovschi,  Tao Wang,  A. Warshel,  
 C. F. Williams,  Q. Wu,  X. Xu,  W. Zhang

 Please cite Q-Chem as follows:
 Y. Shao et al., Mol. Phys. 113, 184-215 (2015)
 DOI: 10.1080/00268976.2014.952696

 Q-Chem 5.1.1 for Intel X86 EM64T Linux

 Parts of Q-Chem use Armadillo 8.300.2 (Tropical Shenanigans).
 http://arma.sourceforge.net/

 Q-Chem begins on Wed Mar 13 22:47:43 2019  

Host: 
0

     Scratch files written to /staging/scratch/2868767/qchem25439//
 Aug318 |scratch|qcdevops|jenkins|workspace|build_RNUM 6013   
Processing $rem in /usr/usc/qchem/5.1.1/config/preferences.
 MEM_TOTAL  2000 
Input Ideriv = 2
Curr. Ideriv = -1
Max.  Ideriv = 2

Checking the input file for inconsistencies... 	...done.

--------------------------------------------------------------
User input:
--------------------------------------------------------------

$comment
potential surface scanner
$end

$rem
JOBTYPE  PES_SCAN
UNRESTRICTED TRUE
SYM_IGNORE  TRUE
GEOM_OPT_MAX_CYCLES 400
SCF_MAX_CYCLES 400
METHOD   B3LYP
BASIS   6-31G**
PDB_PRINT 2
SCF_CONVERGENCE 6
THRESH 14
SCF_PRINT 1
$end
$molecule
0 3
S 1.751718 -0.027564 -1.209753
C -0.736909 0.000634 0.140456
C 0.423432 -0.784864 -0.416106
C -1.955907 -0.892224 0.408418
H -1.012480 0.799977 -0.558804
H 1.330133 3.070107 -1.080509
H -0.445709 0.507963 1.076093
H 0.648068 -1.763986 0.008633
H -2.782272 -0.302662 0.818022
H -2.300669 -1.374081 -0.511054
H -1.715753 -1.678923 1.131585
H 1.508946 2.349427 -0.983981
$end
$scan
stre 1 12 2.300000 2.301000 0.100000
$end
--------------------------------------------------------------
 ----------------------------------------------------------------
             Standard Nuclear Orientation (Angstroms)
    I     Atom           X                Y                Z
 ----------------------------------------------------------------
    1      S       1.7517180000    -0.0275640000    -1.2097530000
    2      C      -0.7369090000     0.0006340000     0.1404560000
    3      C       0.4234320000    -0.7848640000    -0.4161060000
    4      C      -1.9559070000    -0.8922240000     0.4084180000
    5      H      -1.0124800000     0.7999770000    -0.5588040000
    6      H       1.3301330000     3.0701070000    -1.0805090000
    7      H      -0.4457090000     0.5079630000     1.0760930000
    8      H       0.6480680000    -1.7639860000     0.0086330000
    9      H      -2.7822720000    -0.3026620000     0.8180220000
   10      H      -2.3006690000    -1.3740810000    -0.5110540000
   11      H      -1.7157530000    -1.6789230000     1.1315850000
   12      H       1.5089460000     2.3494270000    -0.9839810000
 ----------------------------------------------------------------
 Nuclear Repulsion Energy =   156.6250501014 hartrees
 There are       22 alpha and       20 beta electrons
 Requested basis set is 6-31G(d,p)
 There are 41 shells and 104 basis functions

 Total QAlloc Memory Limit   2000 MB
 Mega-Array Size       188 MB
 MEM_STATIC part       192 MB
A total of 1 constraints
  
            1
    1   1.0100000
    2   1.0100000
    3  12.0100000
    4   2.3000000
    5   2.3010000
    6   0.1000000
    7   0.0000000
    8   0.0000000
    9   0.0000000
   10   0.0000000

                       Distance Matrix (Angstroms)
             S (  1)   C (  2)   C (  3)   C (  4)   H (  5)   H (  6)
   C (  2)  2.831453
   C (  3)  1.722708  1.507700
   C (  4)  4.136738  1.534586  2.520440
   H (  5)  2.957930  1.097202  2.143345  2.165437
   H (  6)  3.128898  3.896804  4.015512  5.358641  3.303559
   H (  7)  3.215675  1.103448  2.157189  2.164951  1.754819  3.790663
   H (  8)  2.391165  2.247092  1.090662  2.774974  3.106978  5.001989
   H (  9)  4.974396  2.175912  3.468736  1.094641  2.498725  5.647288
   H ( 10)  4.327023  2.181663  2.788713  1.093835  2.527497  5.766958
   H ( 11)  4.498022  2.182060  2.787616  1.095235  3.081713  6.060039
   H ( 12)  2.399999  3.438757  3.365205  4.944925  2.989843  0.748780
             H (  7)   H (  8)   H (  9)   H ( 10)   H ( 11)
   H (  8)  2.738169
   H (  9)  2.486612  3.815470
   H ( 10)  3.082532  3.019462  1.773788
   H ( 11)  2.529538  2.618379  1.769146  1.770118
   H ( 12)  3.384608  4.318166  5.356803  5.348022  5.576908
 
 A cutoff of  1.0D-14 yielded    797 shell pairs
 There are      5270 function pairs
 
 -------------------------------------------------------
 OpenMP Integral Computing Module                       
 Release: version 1.0, May 2013, Q-Chem Inc. Pittsburgh 
 -------------------------------------------------------
 Integral Job Info:
 Integral job number is                      11
 Integral operator is                         1
 short-range coefficients                     0
 long-range coefficients              100000000
 Omega coefficients                           0
 if combine SR and LR in K                    0
 Integral screening is                        0
 Integral computing path is                   2
 max size of driver memory is            800000
 size of driver memory is                593474
 size of scratch memory is             15267112
 max col of scratch BK array               1296
 max len of scratch array in speh3          155
 max len of scratch index in speh4           18
 max int batch size is                      520
 min int batch size is                       52
 fixed nKL is                                52
 max L of basis functions is                  2
 order of int derivative is                   0
 number of shells is                         41
 number of basis is                         104
 number of cartesian basis is               104
 number of contracted shell pairs           797
 number of primitive shell pairs           2841
 maxK2 (contraction) of shell pair           36
 max number of K2 of shell pair               1
 max number of CS2 of shell pair             72
 max number of PS2 of shell pair            258
 mem total for path MDJ                  513890
 -------------------------------------------------------
 Smallest overlap matrix eigenvalue = 5.58E-03

 Scale SEOQF with 1.000000e-01/1.000000e-01/1.000000e-01

 Standard Electronic Orientation quadrupole field applied
 Nucleus-field energy     =     0.0000000024 hartrees
 Guess from superposition of atomic densities
 Warning:  Energy on first SCF cycle will be non-variational
 SAD guess density has 42.000000 electrons

 -----------------------------------------------------------------------
  General SCF calculation program by
  Eric Jon Sundstrom, Paul Horn, Yuezhi Mao, Dmitri Zuev, Alec White,
  David Stuck, Shaama M.S., Shane Yost, Joonho Lee, David Small,
  Daniel Levine, Susi Lehtola, Hugh Burton, Evgeny Epifanovsky
 -----------------------------------------------------------------------
 Exchange:     0.2000 Hartree-Fock + 0.0800 Slater + 0.7200 B88
 Correlation:  0.1900 VWN1RPA + 0.8100 LYP
 Using SG-1 standard quadrature grid
 using 12 threads for integral computing
 -------------------------------------------------------
 OpenMP Integral computing Module                
 Release: version 1.0, May 2013, Q-Chem Inc. Pittsburgh 
 -------------------------------------------------------
 -------------------------------------------------------
 OpenMP BLAS3 based DFT computing Module                
 Release: version 1.0, May 2013, Q-Chem Inc. Pittsburgh 
 -------------------------------------------------------
 A unrestricted SCF calculation will be
 performed using DIIS
 SCF converges when DIIS error is below 1.0e-06
 Alpha HF Exchange    Energy =  -4.32590002059298
 Beta HF Exchange     Energy =  -4.32590002059298
 DFT Correlation      Energy =  -1.86165820036442
 DFT Exchange         Energy = -33.95257146905219
 One-Electron (alpha) Energy = -507.96225768619570
 One-Electron (beta)  Energy = -507.96225768619570
 Total Coulomb        Energy = 386.28770860040868
 ---------------------------------------
  Cycle       Energy         DIIS error
 ---------------------------------------
    1    -517.4777863787      2.87e-02  
 Alpha HF Exchange    Energy =  -4.45189343620396
 Beta HF Exchange     Energy =  -4.25682239510446
 DFT Correlation      Energy =  -1.88079295127518
 DFT Exchange         Energy = -34.55383006125962
 One-Electron (alpha) Energy = -523.80292933151509
 One-Electron (beta)  Energy = -497.87128801647816
 Total Coulomb        Energy = 393.07759301668113
    2    -517.1149130713      4.01e-03  
 Alpha HF Exchange    Energy =  -4.40636044970029
 Beta HF Exchange     Energy =  -4.20806008543170
 DFT Correlation      Energy =  -1.85569733708511
 DFT Exchange         Energy = -34.15614929619220
 One-Electron (alpha) Energy = -521.14514648575664
 One-Electron (beta)  Energy = -495.32741553642472
 Total Coulomb        Energy = 387.47899142141745
    3    -516.9947876653      5.88e-03  
 Alpha HF Exchange    Energy =  -4.42684637725935
 Beta HF Exchange     Energy =  -4.23138084708573
 DFT Correlation      Energy =  -1.86740737269476
 DFT Exchange         Energy = -34.33034151564060
 One-Electron (alpha) Energy = -522.45828376547399
 One-Electron (beta)  Energy = -496.36641252441467
 Total Coulomb        Energy = 389.84396592035591
    4    -517.2116563783      7.19e-04  
 Alpha HF Exchange    Energy =  -4.43121636977068
 Beta HF Exchange     Energy =  -4.23521475878979
 DFT Correlation      Energy =  -1.86815758240055
 DFT Exchange         Energy = -34.36118462269246
 One-Electron (alpha) Energy = -522.72694550870722
 One-Electron (beta)  Energy = -496.57233616157066
 Total Coulomb        Energy = 390.35527239183602
    5    -517.2147325082      3.48e-04  
 Alpha HF Exchange    Energy =  -4.43098487429828
 Beta HF Exchange     Energy =  -4.23483064071106
 DFT Correlation      Energy =  -1.86770571503810
 DFT Exchange         Energy = -34.35748111489576
 One-Electron (alpha) Energy = -522.70421606987202
 One-Electron (beta)  Energy = -496.51179031603937
 Total Coulomb        Energy = 390.26648309450002
    6    -517.2154755325      8.77e-05  
 Alpha HF Exchange    Energy =  -4.43054335443224
 Beta HF Exchange     Energy =  -4.23483775506855
 DFT Correlation      Energy =  -1.86749215400810
 DFT Exchange         Energy = -34.35505947371916
 One-Electron (alpha) Energy = -522.67215041829263
 One-Electron (beta)  Energy = -496.48342922460910
 Total Coulomb        Energy = 390.20292474079241
    7    -517.2155375355      3.26e-05  
 Alpha HF Exchange    Energy =  -4.43071139242719
 Beta HF Exchange     Energy =  -4.23498108039487
 DFT Correlation      Energy =  -1.86749905249339
 DFT Exchange         Energy = -34.35611793766341
 One-Electron (alpha) Energy = -522.68571956622782
 One-Electron (beta)  Energy = -496.49120933690068
 Total Coulomb        Energy = 390.22564106670342
    8    -517.2155471955      1.10e-05  
 Alpha HF Exchange    Energy =  -4.43071869595359
 Beta HF Exchange     Energy =  -4.23503986630422
 DFT Correlation      Energy =  -1.86748433125572
 DFT Exchange         Energy = -34.35629968447790
 One-Electron (alpha) Energy = -522.68597428964006
 One-Electron (beta)  Energy = -496.49172212698511
 Total Coulomb        Energy = 390.22664052510561
    9    -517.2155483656      5.01e-06  
 Alpha HF Exchange    Energy =  -4.43069773969431
 Beta HF Exchange     Energy =  -4.23503197842563
 DFT Correlation      Energy =  -1.86747371352514
 DFT Exchange         Energy = -34.35616728641369
 One-Electron (alpha) Energy = -522.68388517046071
 One-Electron (beta)  Energy = -496.49010574270437
 Total Coulomb        Energy = 390.22276297154076
   10    -517.2155485558      1.16e-06  
 Alpha HF Exchange    Energy =  -4.43070107000017
 Beta HF Exchange     Energy =  -4.23503627013802
 DFT Correlation      Energy =  -1.86747503370327
 DFT Exchange         Energy = -34.35620004218718
 One-Electron (alpha) Energy = -522.68420580165048
 One-Electron (beta)  Energy = -496.49060255269461
 Total Coulomb        Energy = 390.22362208487499
   11    -517.2155485816      3.89e-07  Convergence criterion met
 ---------------------------------------
 SCF time:   CPU 26.55s  wall 2.00s 
<S^2> =          2.005254686
 Alpha HF Exchange    Energy =  -4.43070107000017
 Beta HF Exchange     Energy =  -4.23503627013802
 DFT Correlation      Energy =  -1.86747503370327
 DFT Exchange         Energy = -34.35620004218718
 One-Electron (alpha) Energy = -522.68420580165048
 One-Electron (beta)  Energy = -496.49060255269461
 Total Coulomb        Energy = 390.22362208487499
 Nuclear repulsion Energy = 156.62505010387090
 SCF   energy in the final basis set =     -517.2155485816
 Total energy in the final basis set =     -517.2155485816
 
 --------------------------------------------------------------
 
                    Orbital Energies (a.u.)
 --------------------------------------------------------------
 
 Alpha MOs
 -- Occupied --
-88.908 -10.214 -10.202 -10.183  -7.969  -5.939  -5.929  -5.924
 -0.817  -0.751  -0.643  -0.575  -0.461  -0.446  -0.429  -0.422
 -0.371  -0.363  -0.348  -0.309  -0.290  -0.170
 -- Virtual --
  0.058   0.106   0.118   0.127   0.150   0.161   0.172   0.189
  0.228   0.249   0.308   0.363   0.378   0.412   0.503   0.522
  0.535   0.549   0.582   0.623   0.638   0.674   0.722   0.739
  0.798   0.806   0.830   0.840   0.859   0.882   0.889   0.912
  0.940   0.977   1.003   1.056   1.134   1.190   1.310   1.441
  1.559   1.603   1.671   1.679   1.684   1.766   1.823   1.860
  1.908   2.029   2.046   2.060   2.094   2.119   2.198   2.247
  2.272   2.373   2.377   2.415   2.441   2.516   2.611   2.613
  2.622   2.681   2.714   2.743   2.821   2.876   2.906   3.182
  3.273   3.306   3.404   3.460   3.524   3.893   4.124   4.218
  4.384   4.609
 
 Beta MOs
 -- Occupied --
-88.902 -10.202 -10.201 -10.183  -7.963  -5.925  -5.921  -5.917
 -0.795  -0.731  -0.629  -0.547  -0.451  -0.437  -0.422  -0.407
 -0.361  -0.355  -0.339  -0.270
 -- Virtual --
 -0.162  -0.038   0.077   0.112   0.126   0.133   0.153   0.164
  0.174   0.193   0.235   0.260   0.326   0.378   0.390   0.436
  0.513   0.539   0.543   0.555   0.623   0.641   0.656   0.690
  0.730   0.792   0.820   0.834   0.842   0.854   0.863   0.891
  0.897   0.926   0.943   0.991   1.027   1.077   1.141   1.197
  1.321   1.447   1.564   1.626   1.675   1.683   1.688   1.789
  1.827   1.886   1.921   2.045   2.061   2.066   2.098   2.123
  2.209   2.253   2.283   2.380   2.382   2.427   2.450   2.528
  2.613   2.617   2.634   2.686   2.721   2.745   2.825   2.877
  2.908   3.183   3.278   3.313   3.409   3.461   3.527   3.913
  4.129   4.239   4.391   4.612
 --------------------------------------------------------------
 
          Ground-State Mulliken Net Atomic Charges

     Atom                 Charge (a.u.)    Spin (a.u.)
  --------------------------------------------------------
      1 S                     0.086556       1.083051
      2 C                    -0.183853      -0.022962
      3 C                    -0.276460       0.833490
      4 C                    -0.317587       0.012073
      5 H                     0.114828       0.011459
      6 H                     0.006940       0.043318
      7 H                     0.115418       0.049882
      8 H                     0.134867       0.001647
      9 H                     0.106870       0.002055
     10 H                     0.117651       0.001588
     11 H                     0.107640      -0.001010
     12 H                    -0.012870      -0.014592
  --------------------------------------------------------
  Sum of atomic charges =     0.000000
  Sum of spin   charges =     2.000000

 -----------------------------------------------------------------
                    Cartesian Multipole Moments
 -----------------------------------------------------------------
    Charge (ESU x 10^10)
                 0.0000
    Dipole Moment (Debye)
         X      -0.8998      Y      -0.2139      Z       0.8495
       Tot       1.2558
    Quadrupole Moments (Debye-Ang)
        XX     -35.3745     XY      -1.0795     YY     -32.8870
        XZ       0.3845     YZ      -1.0476     ZZ     -36.6817
    Octopole Moments (Debye-Ang^2)
       XXX     -26.5304    XXY       4.8356    XYY      -6.0926
       YYY      20.1738    XXZ      14.9964    XYZ      -0.3897
       YYZ      15.0122    XZZ     -10.1632    YZZ       8.2047
       ZZZ      51.8591
    Hexadecapole Moments (Debye-Ang^3)
      XXXX    -520.2223   XXXY     -59.8815   XXYY    -120.0274
      XYYY     -54.9885   YYYY    -189.4515   XXXZ     109.3541
      XXYZ       7.6630   XYYZ      36.6964   YYYZ      11.9614
      XXZZ    -118.8366   XYZZ     -16.1954   YYZZ     -65.6047
      XZZZ     119.9895   YZZZ      15.8928   ZZZZ    -206.5450
 -----------------------------------------------------------------
 Calculating analytic gradient of the SCF energy
 Gradient of SCF Energy
            1           2           3           4           5           6
    1  -0.0004662   0.0000143  -0.0000677  -0.0000247   0.0000314   0.0001439
    2   0.0048038  -0.0000008   0.0000148   0.0000175   0.0000298  -0.0000697
    3   0.0003303  -0.0000324   0.0000346  -0.0000217   0.0000246  -0.0001414
            7           8           9          10          11          12
    1  -0.0000049   0.0000428   0.0000029  -0.0000134  -0.0000095   0.0003513
    2  -0.0000332   0.0000150   0.0000207   0.0000180   0.0000077  -0.0048235
    3   0.0000238   0.0000361   0.0000136   0.0000066  -0.0000002  -0.0002738
 Max gradient component =       4.823E-03
 RMS gradient           =       1.142E-03
 Gradient time:  CPU 7.84 s  wall 0.66 s
 Geometry Optimization Parameters
   NAtoms,    NIC,     NZ,  NCons,   NDum,   NFix, NCnnct, MaxDiis
       12      70       0       1       0       0       0       0


** CONSTRAINED OPTIMIZATION IN DELOCALIZED INTERNAL COORDINATES **
   Searching for a Minimum

   Optimization Cycle:   1

                       Coordinates (Angstroms)
     ATOM                X               Y               Z
      1  S         1.7517180000   -0.0275640000   -1.2097530000
      2  C        -0.7369090000    0.0006340000    0.1404560000
      3  C         0.4234320000   -0.7848640000   -0.4161060000
      4  C        -1.9559070000   -0.8922240000    0.4084180000
      5  H        -1.0124800000    0.7999770000   -0.5588040000
      6  H         1.3301330000    3.0701070000   -1.0805090000
      7  H        -0.4457090000    0.5079630000    1.0760930000
      8  H         0.6480680000   -1.7639860000    0.0086330000
      9  H        -2.7822720000   -0.3026620000    0.8180220000
     10  H        -2.3006690000   -1.3740810000   -0.5110540000
     11  H        -1.7157530000   -1.6789230000    1.1315850000
     12  H         1.5089460000    2.3494270000   -0.9839810000
   Point Group: c1    Number of degrees of freedom:    30


   Energy is   -517.215548582

              Constraints and their Current Values
                                        Value     Constraint
   Distance(Angs):        1  12             2.399999     2.300000

 Attempting to Generate Delocalized Internal Coordinates

   Using Lagrange Multiplier Algorithm


 31 Hessian modes will be used to form the next step
  Hessian Eigenvalues:
    -0.985214    0.045000    0.045000    0.045000    0.045000    0.047837
     0.072084    0.082314    0.082853    0.083265    0.109899    0.136140
     0.155856    0.160000    0.160000    0.160000    0.160000    0.160000
     0.219254    0.222166    0.290039    0.315827    0.332903    0.333037
     0.339934    0.342146    0.342818    0.343731    0.347362    0.379768
     1.015008

 Minimum Search - Taking P-RFO Step
 Searching for Lamda that Maximizes Along the Constraint modes Only
 Value Taken    Lamda =   0.01897886
 Searching for Lamda that Minimizes Along All other modes
 Value Taken    Lamda =  -0.01617193
 Step Taken.  Stepsize is  0.185703

                             Maximum     Tolerance    Cnvgd?
         Gradient            0.188972       0.000300      NO
         Displacement        0.185692       0.001200      NO
         Energy change     *********       0.000001      NO


 New Cartesian Coordinates Obtained by Inverse Iteration

 Displacement from previous Coordinates is:  0.205491
 ----------------------------------------------------------------
             Standard Nuclear Orientation (Angstroms)
    I     Atom           X                Y                Z
 ----------------------------------------------------------------
    1      S       1.7497719920     0.0100945182    -1.2083220858
    2      C      -0.7389314128     0.0134614103     0.1418286271
    3      C       0.4269364867    -0.7609248010    -0.4188154606
    4      C      -1.9513071028    -0.8895010529     0.4058836612
    5      H      -1.0205179695     0.8140905415    -0.5535588660
    6      H       1.3177787619     3.0070707632    -1.0724667849
    7      H      -0.4511292710     0.5184475758     1.0797794290
    8      H       0.6584082692    -1.7406691366     0.0007647082
    9      H      -2.7818240839    -0.3079167260     0.8184828039
   10      H      -2.2928355870    -1.3695008514    -0.5157649998
   11      H      -1.7052163516    -1.6778342246     1.1252662623
   12      H       1.5014642689     2.2869859834    -0.9800772945
 ----------------------------------------------------------------
 Nuclear Repulsion Energy =   156.9683807481 hartrees
 There are       22 alpha and       20 beta electrons

                       Distance Matrix (Angstroms)
             S (  1)   C (  2)   C (  3)   C (  4)   H (  5)   H (  6)
   C (  2)  2.831354
   C (  3)  1.722697  1.507728
   C (  4)  4.136776  1.534575  2.520457
   H (  5)  2.957978  1.097206  2.143351  2.165438
   H (  6)  3.030997  3.829656  3.926659  5.296765  3.247470
   H (  7)  3.215245  1.103446  2.157216  2.164945  1.754823  3.735565
   H (  8)  2.391263  2.247094  1.090654  2.774747  3.106906  4.911988
   H (  9)  4.974378  2.175903  3.468756  1.094640  2.498719  5.601033
   H ( 10)  4.327308  2.181658  2.788714  1.093836  2.527507  5.700950
   H ( 11)  4.497964  2.182049  2.787649  1.095236  3.081713  5.993068
   H ( 12)  2.301736  3.383336  3.280150  4.892094  2.951565  0.748865
             H (  7)   H (  8)   H (  9)   H ( 10)   H ( 11)
   H (  8)  2.738422
   H (  9)  2.486623  3.815317
   H ( 10)  3.082530  3.019008  1.773778
   H ( 11)  2.529517  2.618239  1.769145  1.770127
   H ( 12)  3.344153  4.230225  5.321174  5.289820  5.516799
 
 Applying Cartesian multipole field
    Component          Value
    ---------          -----
     (2,0,0)        1.00000E-11
     (0,2,0)        2.00000E-11
     (0,0,2)       -3.00000E-11
 Nucleus-field energy     =     0.0000000024 hartrees
 Requested basis set is 6-31G(d,p)
 There are 41 shells and 104 basis functions
 A cutoff of  1.0D-14 yielded    798 shell pairs
 There are      5273 function pairs
 Smallest overlap matrix eigenvalue = 5.55E-03
 Guess from superposition of atomic densities
 Warning:  Energy on first SCF cycle will be non-variational
 SAD guess density has 42.000000 electrons

 -----------------------------------------------------------------------
  General SCF calculation program by
  Eric Jon Sundstrom, Paul Horn, Yuezhi Mao, Dmitri Zuev, Alec White,
  David Stuck, Shaama M.S., Shane Yost, Joonho Lee, David Small,
  Daniel Levine, Susi Lehtola, Hugh Burton, Evgeny Epifanovsky
 -----------------------------------------------------------------------
 Exchange:     0.2000 Hartree-Fock + 0.0800 Slater + 0.7200 B88
 Correlation:  0.1900 VWN1RPA + 0.8100 LYP
 Using SG-1 standard quadrature grid
 using 12 threads for integral computing
 -------------------------------------------------------
 OpenMP Integral computing Module                
 Release: version 1.0, May 2013, Q-Chem Inc. Pittsburgh 
 -------------------------------------------------------
 -------------------------------------------------------
 OpenMP BLAS3 based DFT computing Module                
 Release: version 1.0, May 2013, Q-Chem Inc. Pittsburgh 
 -------------------------------------------------------
 A unrestricted SCF calculation will be
 performed using DIIS
 SCF converges when DIIS error is below 1.0e-06
 Alpha HF Exchange    Energy =  -4.32671754020419
 Beta HF Exchange     Energy =  -4.32671754020419
 DFT Correlation      Energy =  -1.86230825002297
 DFT Exchange         Energy = -33.95424564300427
 One-Electron (alpha) Energy = -508.30508343667850
 One-Electron (beta)  Energy = -508.30508343667850
 Total Coulomb        Energy = 386.62738171374031
 ---------------------------------------
  Cycle       Energy         DIIS error
 ---------------------------------------
    1    -517.4843933826      2.87e-02  
 Alpha HF Exchange    Energy =  -4.45207966785882
 Beta HF Exchange     Energy =  -4.25668694750433
 DFT Correlation      Energy =  -1.88144139680053
 DFT Exchange         Energy = -34.55477233874056
 One-Electron (alpha) Energy = -524.13375187324698
 One-Electron (beta)  Energy = -498.23291837405992
 Total Coulomb        Energy = 393.42928085912081
    2    -517.1139889886      4.01e-03  
 Alpha HF Exchange    Energy =  -4.40661735274876
 Beta HF Exchange     Energy =  -4.20828288412627
 DFT Correlation      Energy =  -1.85632319390467
 DFT Exchange         Energy = -34.15817776030617
 One-Electron (alpha) Energy = -521.47793677162713
 One-Electron (beta)  Energy = -495.67836903598868
 Total Coulomb        Energy = 387.82137623925894
    3    -516.9959500090      5.86e-03  
 Alpha HF Exchange    Energy =  -4.42714960161843
 Beta HF Exchange     Energy =  -4.23136971176033
 DFT Correlation      Energy =  -1.86805636786928
 DFT Exchange         Energy = -34.33201886727059
 One-Electron (alpha) Energy = -522.79359346120964
 One-Electron (beta)  Energy = -496.72354771037493
 Total Coulomb        Energy = 390.19670468505615
    4    -517.2106502846      7.14e-04  
 Alpha HF Exchange    Energy =  -4.43147279028322
 Beta HF Exchange     Energy =  -4.23517871448641
 DFT Correlation      Energy =  -1.86879694094715
 DFT Exchange         Energy = -34.36257058469758
 One-Electron (alpha) Energy = -523.06007784340591
 One-Electron (beta)  Energy = -496.92904096071601
 Total Coulomb        Energy = 390.70508338980437
    5    -517.2136736943      3.48e-04  
 Alpha HF Exchange    Energy =  -4.43124127207104
 Beta HF Exchange     Energy =  -4.23479256370797
 DFT Correlation      Energy =  -1.86834327797824
 DFT Exchange         Energy = -34.35885482239864
 One-Electron (alpha) Energy = -523.03663937946499
 One-Electron (beta)  Energy = -496.86697852075611
 Total Coulomb        Energy = 390.61405222571204
    6    -517.2144168602      8.65e-05  
 Alpha HF Exchange    Energy =  -4.43081022431560
 Beta HF Exchange     Energy =  -4.23480333210304
 DFT Correlation      Energy =  -1.86813191857398
 DFT Exchange         Energy = -34.35649009556822
 One-Electron (alpha) Energy = -523.00524880809064
 One-Electron (beta)  Energy = -496.83871123409801
 Total Coulomb        Energy = 390.55133769435349
    7    -517.2144771679      3.25e-05  
 Alpha HF Exchange    Energy =  -4.43098050429768
 Beta HF Exchange     Energy =  -4.23494505559066
 DFT Correlation      Energy =  -1.86814063280583
 DFT Exchange         Energy = -34.35755708601874
 One-Electron (alpha) Energy = -523.01906209891104
 One-Electron (beta)  Energy = -496.84688058946506
 Total Coulomb        Energy = 390.57469852449265
    8    -517.2144866921      1.08e-05  
 Alpha HF Exchange    Energy =  -4.43098596282048
 Beta HF Exchange     Energy =  -4.23500200067945
 DFT Correlation      Energy =  -1.86812529662582
 DFT Exchange         Energy = -34.35772439977309
 One-Electron (alpha) Energy = -523.01912858905973
 One-Electron (beta)  Energy = -496.84727157807953
 Total Coulomb        Energy = 390.57536925522038
    9    -517.2144878214      4.90e-06  
 Alpha HF Exchange    Energy =  -4.43096524361212
 Beta HF Exchange     Energy =  -4.23499401473305
 DFT Correlation      Energy =  -1.86811489250186
 DFT Exchange         Energy = -34.35759337195007
 One-Electron (alpha) Energy = -523.01704619816564
 One-Electron (beta)  Energy = -496.84566656539960
 Total Coulomb        Energy = 390.57151154260151
   10    -517.2144879933      1.13e-06  
 Alpha HF Exchange    Energy =  -4.43096865092181
 Beta HF Exchange     Energy =  -4.23499826440855
 DFT Correlation      Energy =  -1.86811626797397
 DFT Exchange         Energy = -34.35762654231713
 One-Electron (alpha) Energy = -523.01736673474579
 One-Electron (beta)  Energy = -496.84618085149168
 Total Coulomb        Energy = 390.57238855017329
   11    -517.2144880112      3.30e-07  Convergence criterion met
 ---------------------------------------
 SCF time:   CPU 25.48s  wall 2.00s 
<S^2> =          2.005341489
 Alpha HF Exchange    Energy =  -4.43096865092181
 Beta HF Exchange     Energy =  -4.23499826440855
 DFT Correlation      Energy =  -1.86811626797397
 DFT Exchange         Energy = -34.35762654231713
 One-Electron (alpha) Energy = -523.01736673474579
 One-Electron (beta)  Energy = -496.84618085149168
 Total Coulomb        Energy = 390.57238855017329
 Nuclear repulsion Energy = 156.96838075045306
 SCF   energy in the final basis set =     -517.2144880112
 Total energy in the final basis set =     -517.2144880112
 
 --------------------------------------------------------------
 
                    Orbital Energies (a.u.)
 --------------------------------------------------------------
 
 Alpha MOs
 -- Occupied --
-88.908 -10.213 -10.202 -10.183  -7.968  -5.938  -5.928  -5.923
 -0.817  -0.751  -0.643  -0.575  -0.460  -0.450  -0.429  -0.422
 -0.370  -0.362  -0.348  -0.308  -0.288  -0.170
 -- Virtual --
  0.058   0.106   0.122   0.127   0.150   0.161   0.172   0.190
  0.228   0.250   0.310   0.363   0.378   0.412   0.505   0.522
  0.535   0.548   0.582   0.621   0.637   0.674   0.725   0.739
  0.804   0.813   0.830   0.842   0.860   0.882   0.889   0.913
  0.941   0.978   1.002   1.056   1.135   1.192   1.310   1.441
  1.560   1.604   1.671   1.679   1.685   1.767   1.823   1.861
  1.908   2.030   2.046   2.060   2.094   2.119   2.198   2.247
  2.272   2.372   2.377   2.415   2.442   2.516   2.610   2.613
  2.623   2.682   2.714   2.743   2.821   2.876   2.906   3.182
  3.273   3.306   3.404   3.460   3.525   3.893   4.122   4.220
  4.385   4.609
 
 Beta MOs
 -- Occupied --
-88.901 -10.202 -10.201 -10.183  -7.962  -5.925  -5.921  -5.917
 -0.795  -0.731  -0.629  -0.548  -0.451  -0.440  -0.421  -0.407
 -0.361  -0.355  -0.338  -0.270
 -- Virtual --
 -0.161  -0.038   0.077   0.112   0.131   0.133   0.153   0.164
  0.174   0.194   0.235   0.260   0.327   0.378   0.390   0.437
  0.514   0.540   0.543   0.553   0.624   0.640   0.655   0.690
  0.734   0.792   0.821   0.836   0.842   0.860   0.867   0.891
  0.898   0.926   0.943   0.993   1.025   1.077   1.143   1.199
  1.321   1.447   1.565   1.627   1.675   1.684   1.690   1.790
  1.827   1.887   1.921   2.045   2.061   2.066   2.098   2.123
  2.209   2.253   2.283   2.380   2.382   2.427   2.451   2.528
  2.613   2.617   2.634   2.686   2.722   2.745   2.825   2.878
  2.908   3.183   3.278   3.313   3.409   3.462   3.527   3.913
  4.127   4.241   4.392   4.613
 --------------------------------------------------------------
 
          Ground-State Mulliken Net Atomic Charges

     Atom                 Charge (a.u.)    Spin (a.u.)
  --------------------------------------------------------
      1 S                     0.086782       1.074433
      2 C                    -0.183998      -0.023439
      3 C                    -0.275205       0.834159
      4 C                    -0.317587       0.011850
      5 H                     0.114653       0.011583
      6 H                     0.011351       0.055447
      7 H                     0.115217       0.049765
      8 H                     0.134729       0.001697
      9 H                     0.106769       0.002033
     10 H                     0.117598       0.001585
     11 H                     0.107581      -0.001008
     12 H                    -0.017891      -0.018105
  --------------------------------------------------------
  Sum of atomic charges =    -0.000000
  Sum of spin   charges =     2.000000

 -----------------------------------------------------------------
                    Cartesian Multipole Moments
 -----------------------------------------------------------------
    Charge (ESU x 10^10)
                 0.0000
    Dipole Moment (Debye)
         X      -0.8977      Y      -0.1975      Z       0.8482
       Tot       1.2508
    Quadrupole Moments (Debye-Ang)
        XX     -35.3859     XY      -1.0545     YY     -32.8662
        XZ       0.3885     YZ      -1.0315     ZZ     -36.6947
    Octopole Moments (Debye-Ang^2)
       XXX     -26.5681    XXY       4.3402    XYY      -6.0589
       YYY      18.4455    XXZ      15.0052    XYZ      -0.4182
       YYZ      14.9224    XZZ     -10.1722    YZZ       7.5552
       ZZZ      51.8761
    Hexadecapole Moments (Debye-Ang^3)
      XXXX    -519.0222   XXXY     -61.1141   XXYY    -118.7864
      XYYY     -56.3667   YYYY    -185.0111   XXXZ     109.0198
      XXYZ       7.9218   XYYZ      36.5025   YYYZ      13.3981
      XXZZ    -118.5677   XYZZ     -16.7292   YYZZ     -64.4729
      XZZZ     119.6514   YZZZ      17.3158   ZZZZ    -206.2025
 -----------------------------------------------------------------
 Calculating analytic gradient of the SCF energy
 Gradient of SCF Energy
            1           2           3           4           5           6
    1  -0.0010866   0.0000093   0.0002473  -0.0000260  -0.0000187   0.0005139
    2   0.0065444   0.0001086  -0.0002254  -0.0000186   0.0000598  -0.0014615
    3   0.0005550  -0.0000931  -0.0000778  -0.0000580   0.0000228  -0.0000404
            7           8           9          10          11          12
    1   0.0000117   0.0000482   0.0000124  -0.0000191  -0.0000103   0.0003177
    2  -0.0000479   0.0000358   0.0000315   0.0000190   0.0000144  -0.0050601
    3   0.0000100   0.0001512   0.0000131   0.0000093   0.0000029  -0.0004949
 Max gradient component =       6.544E-03
 RMS gradient           =       1.423E-03
 Gradient time:  CPU 8.39 s  wall 0.75 s
 Geometry Optimization Parameters
   NAtoms,    NIC,     NZ,  NCons,   NDum,   NFix, NCnnct, MaxDiis
       12      70       0       1       0       0       0       0

 Cartesian Hessian Update
 Hessian Updated using BFGS Update


** CONSTRAINED OPTIMIZATION IN DELOCALIZED INTERNAL COORDINATES **
   Searching for a Minimum

   Optimization Cycle:   2

                       Coordinates (Angstroms)
     ATOM                X               Y               Z
      1  S         1.7497719920    0.0100945182   -1.2083220858
      2  C        -0.7389314128    0.0134614103    0.1418286271
      3  C         0.4269364867   -0.7609248010   -0.4188154606
      4  C        -1.9513071028   -0.8895010529    0.4058836612
      5  H        -1.0205179695    0.8140905415   -0.5535588660
      6  H         1.3177787619    3.0070707632   -1.0724667849
      7  H        -0.4511292710    0.5184475758    1.0797794290
      8  H         0.6584082692   -1.7406691366    0.0007647082
      9  H        -2.7818240839   -0.3079167260    0.8184828039
     10  H        -2.2928355870   -1.3695008514   -0.5157649998
     11  H        -1.7052163516   -1.6778342246    1.1252662623
     12  H         1.5014642689    2.2869859834   -0.9800772945
   Point Group: c1    Number of degrees of freedom:    30


   Energy is   -517.214488011

              Constraints and their Current Values
                                        Value     Constraint
   Distance(Angs):        1  12             2.301736     2.300000
 Hessian Updated using BFGS Update

   Using Lagrange Multiplier Algorithm


 26 Hessian modes will be used to form the next step
  Hessian Eigenvalues:
    -0.995560    0.044992    0.045238    0.047838    0.072085    0.082314
     0.082853    0.083266    0.109900    0.136152    0.155862    0.159990
     0.160550    0.219257    0.222323    0.290039    0.315833    0.333027
     0.333044    0.339938    0.342146    0.342818    0.343732    0.347364
     0.386541    1.004547

 Minimum Search - Taking P-RFO Step
 Searching for Lamda that Maximizes Along the Constraint modes Only
 Value Taken    Lamda =   0.00000002
 Searching for Lamda that Minimizes Along All other modes
 Value Taken    Lamda =  -0.00003210
 Step Taken.  Stepsize is  0.008799

                             Maximum     Tolerance    Cnvgd?
         Gradient            0.003483       0.000300      NO
         Displacement        0.004700       0.001200      NO
         Energy change      0.001061       0.000001      NO


 New Cartesian Coordinates Obtained by Inverse Iteration

 Displacement from previous Coordinates is:  0.015723
 ----------------------------------------------------------------
             Standard Nuclear Orientation (Angstroms)
    I     Atom           X                Y                Z
 ----------------------------------------------------------------
    1      S       1.7523393414     0.0095362424    -1.2063351487
    2      C      -0.7379466735     0.0137789259     0.1425507117
    3      C       0.4275750709    -0.7606863062    -0.4185764935
    4      C      -1.9509864279    -0.8885974028     0.4054608745
    5      H      -1.0185210015     0.8151639476    -0.5522941428
    6      H       1.3134043222     3.0061183729    -1.0734118309
    7      H      -0.4502175602     0.5177859410     1.0810737968
    8      H       0.6576160321    -1.7413621433    -0.0005196023
    9      H      -2.7813823326    -0.3069637910     0.8182371767
   10      H      -2.2924192178    -1.3675849013    -0.5167557633
   11      H      -1.7056388624    -1.6777337893     1.1242223831
   12      H       1.4987753093     2.2843489042    -0.9806519614
 ----------------------------------------------------------------
 Nuclear Repulsion Energy =   156.9605353203 hartrees
 There are       22 alpha and       20 beta electrons

                       Distance Matrix (Angstroms)
             S (  1)   C (  2)   C (  3)   C (  4)   H (  5)   H (  6)
   C (  2)  2.832143
   C (  3)  1.723023  1.507681
   C (  4)  4.137530  1.534559  2.520507
   H (  5)  2.958796  1.097155  2.142984  2.165546
   H (  6)  3.031474  3.826317  3.924579  5.292648  3.241870
   H (  7)  3.215869  1.103466  2.157304  2.164873  1.754792  3.734162
   H (  8)  2.391246  2.246906  1.090603  2.774317  3.106399  4.911184
   H (  9)  4.975309  2.176019  3.468859  1.094641  2.499041  5.596617
   H ( 10)  4.328054  2.181567  2.788608  1.093841  2.527543  5.695710
   H ( 11)  4.498443  2.182046  2.787796  1.095240  3.081782  5.990216
   H ( 12)  2.300000  3.379349  3.276528  4.887715  2.945976  0.750945
             H (  7)   H (  8)   H (  9)   H ( 10)   H ( 11)
   H (  8)  2.738775
   H (  9)  2.486689  3.815045
   H ( 10)  3.082432  3.018098  1.773755
   H ( 11)  2.529476  2.618027  1.769141  1.770117
   H ( 12)  3.342160  4.227831  5.317015  5.284409  5.513335
 
 Applying Cartesian multipole field
    Component          Value
    ---------          -----
     (2,0,0)        1.00000E-11
     (0,2,0)        2.00000E-11
     (0,0,2)       -3.00000E-11
 Nucleus-field energy     =     0.0000000024 hartrees
 Requested basis set is 6-31G(d,p)
 There are 41 shells and 104 basis functions
 A cutoff of  1.0D-14 yielded    798 shell pairs
 There are      5273 function pairs
 Smallest overlap matrix eigenvalue = 5.55E-03
 Guess from superposition of atomic densities
 Warning:  Energy on first SCF cycle will be non-variational
 SAD guess density has 42.000000 electrons

 -----------------------------------------------------------------------
  General SCF calculation program by
  Eric Jon Sundstrom, Paul Horn, Yuezhi Mao, Dmitri Zuev, Alec White,
  David Stuck, Shaama M.S., Shane Yost, Joonho Lee, David Small,
  Daniel Levine, Susi Lehtola, Hugh Burton, Evgeny Epifanovsky
 -----------------------------------------------------------------------
 Exchange:     0.2000 Hartree-Fock + 0.0800 Slater + 0.7200 B88
 Correlation:  0.1900 VWN1RPA + 0.8100 LYP
 Using SG-1 standard quadrature grid
 using 12 threads for integral computing
 -------------------------------------------------------
 OpenMP Integral computing Module                
 Release: version 1.0, May 2013, Q-Chem Inc. Pittsburgh 
 -------------------------------------------------------
 -------------------------------------------------------
 OpenMP BLAS3 based DFT computing Module                
 Release: version 1.0, May 2013, Q-Chem Inc. Pittsburgh 
 -------------------------------------------------------
 A unrestricted SCF calculation will be
 performed using DIIS
 SCF converges when DIIS error is below 1.0e-06
 Alpha HF Exchange    Energy =  -4.32665578185663
 Beta HF Exchange     Energy =  -4.32665578185663
 DFT Correlation      Energy =  -1.86230317752186
 DFT Exchange         Energy = -33.95408852981717
 One-Electron (alpha) Energy = -508.29821903250587
 One-Electron (beta)  Energy = -508.29821903250587
 Total Coulomb        Energy = 386.62124107307147
 ---------------------------------------
  Cycle       Energy         DIIS error
 ---------------------------------------
    1    -517.4843649403      2.87e-02  
 Alpha HF Exchange    Energy =  -4.45197950144657
 Beta HF Exchange     Energy =  -4.25658143609038
 DFT Correlation      Energy =  -1.88142701693699
 DFT Exchange         Energy = -34.55406580933766
 One-Electron (alpha) Energy = -524.12425949942678
 One-Electron (beta)  Energy = -498.22810221009922
 Total Coulomb        Energy = 393.42188397324185
    2    -517.1139961775      4.01e-03  
 Alpha HF Exchange    Energy =  -4.40653832624880
 Beta HF Exchange     Energy =  -4.20821381418139
 DFT Correlation      Energy =  -1.85630877284624
 DFT Exchange         Energy = -34.15765279859168
 One-Electron (alpha) Energy = -521.46890071376447
 One-Electron (beta)  Energy = -495.67272845226194
 Total Coulomb        Energy = 387.81378641689633
    3    -516.9960211384      5.85e-03  
 Alpha HF Exchange    Energy =  -4.42706671367490
 Beta HF Exchange     Energy =  -4.23128736072236
 DFT Correlation      Energy =  -1.86804157186569
 DFT Exchange         Energy = -34.33144359526687
 One-Electron (alpha) Energy = -522.78421036396117
 One-Electron (beta)  Energy = -496.71805516635987
 Total Coulomb        Energy = 390.18893531734244
    4    -517.2106341319      7.14e-04  
 Alpha HF Exchange    Energy =  -4.43138892155146
 Beta HF Exchange     Energy =  -4.23509717978841
 DFT Correlation      Energy =  -1.86878266918143
 DFT Exchange         Energy = -34.36199387275587
 One-Electron (alpha) Energy = -523.05082678175995
 One-Electron (beta)  Energy = -496.92377280201691
 Total Coulomb        Energy = 390.69766873605727
    5    -517.2136581684      3.48e-04  
 Alpha HF Exchange    Energy =  -4.43115828320004
 Beta HF Exchange     Energy =  -4.23471183794968
 DFT Correlation      Energy =  -1.86832890762836
 DFT Exchange         Energy = -34.35828330895431
 One-Electron (alpha) Energy = -523.02741831920264
 One-Electron (beta)  Energy = -496.86166429706748
 Total Coulomb        Energy = 390.60662794218837
    6    -517.2144016892      8.64e-05  
 Alpha HF Exchange    Energy =  -4.43072712879442
 Beta HF Exchange     Energy =  -4.23472262916822
 DFT Correlation      Energy =  -1.86811745243584
 DFT Exchange         Energy = -34.35591807784552
 One-Electron (alpha) Energy = -522.99601307024147
 One-Electron (beta)  Energy = -496.83336940458298
 Total Coulomb        Energy = 390.54387048314709
    7    -517.2144619573      3.25e-05  
 Alpha HF Exchange    Energy =  -4.43089741033766
 Beta HF Exchange     Energy =  -4.23486443044364
 DFT Correlation      Energy =  -1.86812617983641
 DFT Exchange         Energy = -34.35698532442966
 One-Electron (alpha) Energy = -523.00982649270895
 One-Electron (beta)  Energy = -496.84155067602478
 Total Coulomb        Energy = 390.56724370805148
    8    -517.2144714831      1.08e-05  
 Alpha HF Exchange    Energy =  -4.43090277646076
 Beta HF Exchange     Energy =  -4.23492131443436
 DFT Correlation      Energy =  -1.86811080807291
 DFT Exchange         Energy = -34.35715202407911
 One-Electron (alpha) Energy = -523.00988309257491
 One-Electron (beta)  Energy = -496.84193727992960
 Total Coulomb        Energy = 390.56789935929208
    9    -517.2144726136      4.89e-06  
 Alpha HF Exchange    Energy =  -4.43088206170775
 Beta HF Exchange     Energy =  -4.23491333539798
 DFT Correlation      Energy =  -1.86810041510465
 DFT Exchange         Energy = -34.35702109214327
 One-Electron (alpha) Energy = -523.00780007975914
 One-Electron (beta)  Energy = -496.84033345564353
 Total Coulomb        Energy = 390.56404233118008
   10    -517.2144727859      1.13e-06  
 Alpha HF Exchange    Energy =  -4.43088547523468
 Beta HF Exchange     Energy =  -4.23491759453953
 DFT Correlation      Energy =  -1.86810179542747
 DFT Exchange         Energy = -34.35705434422700
 One-Electron (alpha) Energy = -523.00812068924597
 One-Electron (beta)  Energy = -496.84084942841463
 Total Coulomb        Energy = 390.56492120000519
   11    -517.2144728044      3.34e-07  Convergence criterion met
 ---------------------------------------
 SCF time:   CPU 27.04s  wall 3.00s 
<S^2> =          2.005349522
 Alpha HF Exchange    Energy =  -4.43088547523468
 Beta HF Exchange     Energy =  -4.23491759453953
 DFT Correlation      Energy =  -1.86810179542747
 DFT Exchange         Energy = -34.35705434422700
 One-Electron (alpha) Energy = -523.00812068924597
 One-Electron (beta)  Energy = -496.84084942841463
 Total Coulomb        Energy = 390.56492120000519
 Nuclear repulsion Energy = 156.96053532264318
 SCF   energy in the final basis set =     -517.2144728044
 Total energy in the final basis set =     -517.2144728044
 
 --------------------------------------------------------------
 
                    Orbital Energies (a.u.)
 --------------------------------------------------------------
 
 Alpha MOs
 -- Occupied --
-88.908 -10.214 -10.202 -10.183  -7.968  -5.938  -5.928  -5.923
 -0.817  -0.751  -0.643  -0.575  -0.460  -0.450  -0.429  -0.422
 -0.370  -0.362  -0.348  -0.308  -0.288  -0.170
 -- Virtual --
  0.058   0.106   0.122   0.127   0.150   0.161   0.172   0.190
  0.228   0.250   0.310   0.363   0.378   0.412   0.505   0.523
  0.535   0.548   0.582   0.621   0.637   0.674   0.725   0.740
  0.804   0.813   0.830   0.842   0.860   0.882   0.889   0.913
  0.941   0.978   1.002   1.056   1.134   1.192   1.310   1.441
  1.560   1.604   1.671   1.680   1.685   1.767   1.823   1.861
  1.908   2.030   2.046   2.060   2.094   2.119   2.198   2.247
  2.272   2.370   2.375   2.415   2.442   2.516   2.607   2.610
  2.622   2.682   2.714   2.743   2.821   2.876   2.906   3.182
  3.273   3.306   3.404   3.460   3.525   3.893   4.113   4.220
  4.385   4.609
 
 Beta MOs
 -- Occupied --
-88.901 -10.202 -10.201 -10.183  -7.962  -5.925  -5.921  -5.917
 -0.795  -0.731  -0.629  -0.548  -0.451  -0.439  -0.421  -0.407
 -0.361  -0.355  -0.338  -0.270
 -- Virtual --
 -0.161  -0.038   0.077   0.111   0.131   0.133   0.153   0.164
  0.174   0.194   0.235   0.260   0.327   0.378   0.390   0.437
  0.514   0.540   0.543   0.553   0.624   0.640   0.655   0.689
  0.734   0.792   0.821   0.836   0.842   0.860   0.867   0.891
  0.898   0.926   0.943   0.993   1.025   1.077   1.142   1.199
  1.321   1.447   1.565   1.627   1.675   1.684   1.690   1.790
  1.827   1.886   1.921   2.045   2.061   2.066   2.098   2.123
  2.209   2.253   2.283   2.377   2.381   2.427   2.451   2.528
  2.611   2.614   2.634   2.686   2.722   2.745   2.825   2.878
  2.908   3.183   3.278   3.313   3.409   3.462   3.527   3.912
  4.118   4.241   4.392   4.613
 --------------------------------------------------------------
 
          Ground-State Mulliken Net Atomic Charges

     Atom                 Charge (a.u.)    Spin (a.u.)
  --------------------------------------------------------
      1 S                     0.086688       1.073876
      2 C                    -0.183926      -0.023543
      3 C                    -0.275210       0.834405
      4 C                    -0.317624       0.011796
      5 H                     0.114667       0.011628
      6 H                     0.011529       0.056161
      7 H                     0.115202       0.049803
      8 H                     0.134723       0.001678
      9 H                     0.106784       0.002018
     10 H                     0.117589       0.001588
     11 H                     0.107587      -0.001006
     12 H                    -0.018009      -0.018404
  --------------------------------------------------------
  Sum of atomic charges =    -0.000000
  Sum of spin   charges =     2.000000

 -----------------------------------------------------------------
                    Cartesian Multipole Moments
 -----------------------------------------------------------------
    Charge (ESU x 10^10)
                 0.0000
    Dipole Moment (Debye)
         X      -0.8992      Y      -0.1961      Z       0.8470
       Tot       1.2508
    Quadrupole Moments (Debye-Ang)
        XX     -35.3953     XY      -1.0499     YY     -32.8571
        XZ       0.3867     YZ      -1.0305     ZZ     -36.6976
    Octopole Moments (Debye-Ang^2)
       XXX     -26.7073    XXY       4.3438    XYY      -6.0931
       YYY      18.4504    XXZ      14.9833    XYZ      -0.4184
       YYZ      14.8853    XZZ     -10.2206    YZZ       7.5484
       ZZZ      51.8042
    Hexadecapole Moments (Debye-Ang^3)
      XXXX    -519.5592   XXXY     -60.9597   XXYY    -118.8480
      XYYY     -56.2246   YYYY    -184.8076   XXXZ     108.9778
      XXYZ       7.9067   XYYZ      36.4802   YYYZ      13.3421
      XXZZ    -118.6116   XYZZ     -16.6846   YYZZ     -64.3930
      XZZZ     119.6379   YZZZ      17.3011   ZZZZ    -205.8437
 -----------------------------------------------------------------
 Calculating analytic gradient of the SCF energy
 Gradient of SCF Energy
            1           2           3           4           5           6
    1  -0.0009736  -0.0000274   0.0001657  -0.0000289   0.0000287   0.0001742
    2   0.0065643   0.0000656  -0.0002527   0.0000059   0.0000300  -0.0001225
    3   0.0004756  -0.0000885  -0.0000377  -0.0000285   0.0000230  -0.0002121
            7           8           9          10          11          12
    1  -0.0000038   0.0000229  -0.0000005  -0.0000119  -0.0000118   0.0006664
    2  -0.0000436   0.0000712   0.0000208   0.0000239   0.0000103  -0.0063731
    3   0.0000222   0.0001396   0.0000138   0.0000054   0.0000034  -0.0003164
 Max gradient component =       6.564E-03
 RMS gradient           =       1.542E-03
 Gradient time:  CPU 8.39 s  wall 0.76 s
 Geometry Optimization Parameters
   NAtoms,    NIC,     NZ,  NCons,   NDum,   NFix, NCnnct, MaxDiis
       12      70       0       1       0       0       0       0

 Cartesian Hessian Update
 Hessian Updated using BFGS Update


** CONSTRAINED OPTIMIZATION IN DELOCALIZED INTERNAL COORDINATES **
   Searching for a Minimum

   Optimization Cycle:   3

                       Coordinates (Angstroms)
     ATOM                X               Y               Z
      1  S         1.7523393414    0.0095362424   -1.2063351487
      2  C        -0.7379466735    0.0137789259    0.1425507117
      3  C         0.4275750709   -0.7606863062   -0.4185764935
      4  C        -1.9509864279   -0.8885974028    0.4054608745
      5  H        -1.0185210015    0.8151639476   -0.5522941428
      6  H         1.3134043222    3.0061183729   -1.0734118309
      7  H        -0.4502175602    0.5177859410    1.0810737968
      8  H         0.6576160321   -1.7413621433   -0.0005196023
      9  H        -2.7813823326   -0.3069637910    0.8182371767
     10  H        -2.2924192178   -1.3675849013   -0.5167557633
     11  H        -1.7056388624   -1.6777337893    1.1242223831
     12  H         1.4987753093    2.2843489042   -0.9806519614
   Point Group: c1    Number of degrees of freedom:    30


   Energy is   -517.214472804

              Constraints and their Current Values
                                        Value     Constraint
   Distance(Angs):        1  12             2.300000     2.300000
 Hessian Updated using BFGS Update

 26 Hessian modes will be used to form the next step
  Hessian Eigenvalues:
     0.026844    0.045000    0.045039    0.047833    0.072085    0.082313
     0.082852    0.083264    0.109889    0.134788    0.137922    0.155960
     0.160037    0.160080    0.219316    0.220249    0.290011    0.315656
     0.332430    0.333037    0.339956    0.342146    0.342816    0.343727
     0.347378    0.494360

 Minimum Search - Taking Simple RFO Step
 Searching for Lamda that Minimizes Along All modes
 Value Taken    Lamda =  -0.00000596
 Step Taken.  Stepsize is  0.013979

                             Maximum     Tolerance    Cnvgd?
         Gradient           0.000227      0.000300     YES
         Displacement       0.005593      0.001200      NO
         Energy change      0.000015      0.000001      NO


 New Cartesian Coordinates Obtained by Inverse Iteration

 Displacement from previous Coordinates is:  0.029974
 ----------------------------------------------------------------
             Standard Nuclear Orientation (Angstroms)
    I     Atom           X                Y                Z
 ----------------------------------------------------------------
    1      S       1.7570676133     0.0074402360    -1.2023406444
    2      C      -0.7358394651     0.0143033350     0.1436444101
    3      C       0.4287690627    -0.7609079891    -0.4180876021
    4      C      -1.9502438473    -0.8867388208     0.4045632218
    5      H      -1.0147484337     0.8170968778    -0.5502131690
    6      H       1.3049129755     3.0037366907    -1.0747162840
    7      H      -0.4479324163     0.5165836824     1.0830604200
    8      H       0.6560468499    -1.7433876959    -0.0027645880
    9      H      -2.7801245951    -0.3046176338     0.8176653165
   10      H      -2.2917906536    -1.3639547563    -0.5185450330
   11      H      -1.7063811304    -1.6772727978     1.1222945072
   12      H       1.4928620402     2.2815228718    -0.9815605551
 ----------------------------------------------------------------
 Nuclear Repulsion Energy =   156.9551442897 hartrees
 There are       22 alpha and       20 beta electrons

                       Distance Matrix (Angstroms)
             S (  1)   C (  2)   C (  3)   C (  4)   H (  5)   H (  6)
   C (  2)  2.833074
   C (  3)  1.723308  1.507584
   C (  4)  4.138340  1.534514  2.520375
   H (  5)  2.960368  1.097135  2.142732  2.165596
   H (  6)  3.032907  3.819134  3.920630  5.283949  3.230685
   H (  7)  3.216257  1.103485  2.157321  2.164858  1.754757  3.730201
   H (  8)  2.390947  2.246834  1.090603  2.773538  3.106016  4.909715
   H (  9)  4.976336  2.176032  3.468758  1.094633  2.499177  5.586936
   H ( 10)  4.329152  2.181530  2.788405  1.093855  2.527613  5.685273
   H ( 11)  4.498629  2.182003  2.787717  1.095240  3.081804  5.983861
   H ( 12)  2.300000  3.372459  3.272030  4.879979  2.935765  0.752061
             H (  7)   H (  8)   H (  9)   H ( 10)   H ( 11)
   H (  8)  2.739572
   H (  9)  2.486750  3.814504
   H ( 10)  3.082431  3.016578  1.773731
   H ( 11)  2.529474  2.617479  1.769154  1.770092
   H ( 12)  3.338316  4.225897  5.308837  5.275176  5.507579
 
 Applying Cartesian multipole field
    Component          Value
    ---------          -----
     (2,0,0)        1.00000E-11
     (0,2,0)        2.00000E-11
     (0,0,2)       -3.00000E-11
 Nucleus-field energy     =     0.0000000024 hartrees
 Requested basis set is 6-31G(d,p)
 There are 41 shells and 104 basis functions
 A cutoff of  1.0D-14 yielded    798 shell pairs
 There are      5273 function pairs
 Smallest overlap matrix eigenvalue = 5.55E-03
 Guess from superposition of atomic densities
 Warning:  Energy on first SCF cycle will be non-variational
 SAD guess density has 42.000000 electrons

 -----------------------------------------------------------------------
  General SCF calculation program by
  Eric Jon Sundstrom, Paul Horn, Yuezhi Mao, Dmitri Zuev, Alec White,
  David Stuck, Shaama M.S., Shane Yost, Joonho Lee, David Small,
  Daniel Levine, Susi Lehtola, Hugh Burton, Evgeny Epifanovsky
 -----------------------------------------------------------------------
 Exchange:     0.2000 Hartree-Fock + 0.0800 Slater + 0.7200 B88
 Correlation:  0.1900 VWN1RPA + 0.8100 LYP
 Using SG-1 standard quadrature grid
 using 12 threads for integral computing
 -------------------------------------------------------
 OpenMP Integral computing Module                
 Release: version 1.0, May 2013, Q-Chem Inc. Pittsburgh 
 -------------------------------------------------------
 -------------------------------------------------------
 OpenMP BLAS3 based DFT computing Module                
 Release: version 1.0, May 2013, Q-Chem Inc. Pittsburgh 
 -------------------------------------------------------
 A unrestricted SCF calculation will be
 performed using DIIS
 SCF converges when DIIS error is below 1.0e-06
 Alpha HF Exchange    Energy =  -4.32661372540418
 Beta HF Exchange     Energy =  -4.32661372540418
 DFT Correlation      Energy =  -1.86230043187034
 DFT Exchange         Energy = -33.95397702654928
 One-Electron (alpha) Energy = -508.29338527998289
 One-Electron (beta)  Energy = -508.29338527998289
 Total Coulomb        Energy = 386.61687131038627
 ---------------------------------------
  Cycle       Energy         DIIS error
 ---------------------------------------
    1    -517.4842598667      2.87e-02  
 Alpha HF Exchange    Energy =  -4.45192132402071
 Beta HF Exchange     Energy =  -4.25651803738485
 DFT Correlation      Energy =  -1.88141668043046
 DFT Exchange         Energy = -34.55363789509641
 One-Electron (alpha) Energy = -524.11802884435087
 One-Electron (beta)  Energy = -498.22518340990968
 Total Coulomb        Energy = 393.41754092711568
    2    -517.1140209720      4.01e-03  
 Alpha HF Exchange    Energy =  -4.40649220540089
 Beta HF Exchange     Energy =  -4.20817817677017
 DFT Correlation      Energy =  -1.85629755035062
 DFT Exchange         Energy = -34.15733425941283
 One-Electron (alpha) Energy = -521.46260401401798
 One-Electron (beta)  Energy = -495.66866696456714
 Total Coulomb        Energy = 387.80826116529863
    3    -516.9961677132      5.85e-03  
 Alpha HF Exchange    Energy =  -4.42701737100295
 Beta HF Exchange     Energy =  -4.23123871007296
 DFT Correlation      Energy =  -1.86803039602634
 DFT Exchange         Energy = -34.33108867479866
 One-Electron (alpha) Energy = -522.77781149869793
 One-Electron (beta)  Energy = -496.71452165130063
 Total Coulomb        Energy = 390.18392536946953
    4    -517.2106386404      7.14e-04  
 Alpha HF Exchange    Energy =  -4.43133774185908
 Beta HF Exchange     Energy =  -4.23504867008869
 DFT Correlation      Energy =  -1.86877153999461
 DFT Exchange         Energy = -34.36163128905709
 One-Electron (alpha) Energy = -523.04440334517665
 One-Electron (beta)  Energy = -496.92029989857087
 Total Coulomb        Energy = 390.69268524863799
    5    -517.2136629440      3.48e-04  
 Alpha HF Exchange    Energy =  -4.43110841264228
 Beta HF Exchange     Energy =  -4.23466446087491
 DFT Correlation      Energy =  -1.86831802028670
 DFT Exchange         Energy = -34.35792983855272
 One-Electron (alpha) Energy = -523.02106788980939
 One-Electron (beta)  Energy = -496.85821373417099
 Total Coulomb        Energy = 390.60175150802911
    6    -517.2144065562      8.64e-05  
 Alpha HF Exchange    Energy =  -4.43067715405466
 Beta HF Exchange     Energy =  -4.23467508763353
 DFT Correlation      Energy =  -1.86810651256610
 DFT Exchange         Energy = -34.35556362523363
 One-Electron (alpha) Energy = -522.98965749663955
 One-Electron (beta)  Energy = -496.82990522934290
 Total Coulomb        Energy = 390.53897404950646
    7    -517.2144667639      3.25e-05  
 Alpha HF Exchange    Energy =  -4.43084735620791
 Beta HF Exchange     Energy =  -4.23481693031227
 DFT Correlation      Energy =  -1.86811523009042
 DFT Exchange         Energy = -34.35663071333344
 One-Electron (alpha) Energy = -523.00346403341803
 One-Electron (beta)  Energy = -496.83808801482843
 Total Coulomb        Energy = 390.56234170031922
    8    -517.2144762858      1.08e-05  
 Alpha HF Exchange    Energy =  -4.43085265542199
 Beta HF Exchange     Energy =  -4.23487374117679
 DFT Correlation      Energy =  -1.86809983581643
 DFT Exchange         Energy = -34.35679688960698
 One-Electron (alpha) Energy = -523.00351393259484
 One-Electron (beta)  Energy = -496.83847028907894
 Total Coulomb        Energy = 390.56298563359115
    9    -517.2144774180      4.89e-06  
 Alpha HF Exchange    Energy =  -4.43083195674328
 Beta HF Exchange     Energy =  -4.23486577650342
 DFT Correlation      Energy =  -1.86808945669537
 DFT Exchange         Energy = -34.35666611882917
 One-Electron (alpha) Energy = -523.00143191271241
 One-Electron (beta)  Energy = -496.83686836373278
 Total Coulomb        Energy = 390.55913170197664
   10    -517.2144775912      1.14e-06  
 Alpha HF Exchange    Energy =  -4.43083537499946
 Beta HF Exchange     Energy =  -4.23487004410634
 DFT Correlation      Energy =  -1.86809084060084
 DFT Exchange         Energy = -34.35669943591806
 One-Electron (alpha) Energy = -523.00175267293332
 One-Electron (beta)  Energy = -496.83738528896447
 Total Coulomb        Energy = 390.56001175487864
   11    -517.2144776106      3.41e-07  Convergence criterion met
 ---------------------------------------
 SCF time:   CPU 26.41s  wall 2.00s 
<S^2> =          2.005355903
 Alpha HF Exchange    Energy =  -4.43083537499946
 Beta HF Exchange     Energy =  -4.23487004410634
 DFT Correlation      Energy =  -1.86809084060084
 DFT Exchange         Energy = -34.35669943591806
 One-Electron (alpha) Energy = -523.00175267293332
 One-Electron (beta)  Energy = -496.83738528896447
 Total Coulomb        Energy = 390.56001175487864
 Nuclear repulsion Energy = 156.95514429206236
 SCF   energy in the final basis set =     -517.2144776106
 Total energy in the final basis set =     -517.2144776106
 
 --------------------------------------------------------------
 
                    Orbital Energies (a.u.)
 --------------------------------------------------------------
 
 Alpha MOs
 -- Occupied --
-88.908 -10.214 -10.202 -10.183  -7.968  -5.938  -5.928  -5.923
 -0.817  -0.751  -0.643  -0.575  -0.460  -0.449  -0.429  -0.422
 -0.370  -0.362  -0.348  -0.308  -0.288  -0.170
 -- Virtual --
  0.058   0.106   0.121   0.127   0.150   0.161   0.172   0.190
  0.228   0.250   0.310   0.363   0.377   0.412   0.505   0.523
  0.535   0.548   0.582   0.621   0.637   0.673   0.725   0.740
  0.804   0.812   0.830   0.843   0.860   0.882   0.889   0.913
  0.941   0.978   1.002   1.056   1.133   1.192   1.310   1.441
  1.560   1.604   1.671   1.680   1.685   1.767   1.823   1.861
  1.908   2.029   2.046   2.060   2.094   2.119   2.198   2.247
  2.272   2.369   2.375   2.415   2.442   2.516   2.606   2.609
  2.622   2.682   2.714   2.743   2.821   2.876   2.906   3.182
  3.273   3.306   3.404   3.460   3.525   3.892   4.108   4.220
  4.385   4.609
 
 Beta MOs
 -- Occupied --
-88.901 -10.202 -10.201 -10.183  -7.962  -5.925  -5.921  -5.917
 -0.795  -0.731  -0.629  -0.548  -0.451  -0.439  -0.421  -0.407
 -0.361  -0.355  -0.338  -0.270
 -- Virtual --
 -0.162  -0.038   0.077   0.111   0.130   0.133   0.153   0.164
  0.174   0.194   0.235   0.261   0.328   0.378   0.390   0.437
  0.514   0.540   0.543   0.553   0.624   0.640   0.655   0.689
  0.735   0.792   0.821   0.836   0.842   0.860   0.867   0.891
  0.898   0.926   0.943   0.993   1.025   1.078   1.141   1.199
  1.321   1.446   1.565   1.627   1.675   1.684   1.690   1.790
  1.827   1.886   1.921   2.045   2.061   2.066   2.098   2.123
  2.209   2.253   2.283   2.376   2.381   2.427   2.451   2.528
  2.609   2.613   2.634   2.686   2.722   2.745   2.825   2.878
  2.908   3.183   3.278   3.314   3.409   3.462   3.527   3.912
  4.113   4.241   4.392   4.613
 --------------------------------------------------------------
 
          Ground-State Mulliken Net Atomic Charges

     Atom                 Charge (a.u.)    Spin (a.u.)
  --------------------------------------------------------
      1 S                     0.086529       1.073478
      2 C                    -0.183810      -0.023658
      3 C                    -0.275277       0.834652
      4 C                    -0.317676       0.011709
      5 H                     0.114684       0.011709
      6 H                     0.011837       0.056630
      7 H                     0.115183       0.049855
      8 H                     0.134716       0.001672
      9 H                     0.106791       0.001993
     10 H                     0.117577       0.001589
     11 H                     0.107595      -0.001002
     12 H                    -0.018149      -0.018627
  --------------------------------------------------------
  Sum of atomic charges =    -0.000000
  Sum of spin   charges =     2.000000

 -----------------------------------------------------------------
                    Cartesian Multipole Moments
 -----------------------------------------------------------------
    Charge (ESU x 10^10)
                 0.0000
    Dipole Moment (Debye)
         X      -0.9017      Y      -0.1933      Z       0.8446
       Tot       1.2505
    Quadrupole Moments (Debye-Ang)
        XX     -35.4096     XY      -1.0419     YY     -32.8376
        XZ       0.3844     YZ      -1.0287     ZZ     -36.6997
    Octopole Moments (Debye-Ang^2)
       XXX     -26.9497    XXY       4.3740    XYY      -6.1530
       YYY      18.5131    XXZ      14.9345    XYZ      -0.4187
       YYZ      14.8154    XZZ     -10.3060    YZZ       7.5608
       ZZZ      51.6502
    Hexadecapole Moments (Debye-Ang^3)
      XXXX    -520.4479   XXXY     -60.5507   XXYY    -118.9213
      XYYY     -55.8513   YYYY    -184.4054   XXXZ     108.8527
      XXYZ       7.8560   XYYZ      36.4253   YYYZ      13.1755
      XXZZ    -118.6616   XYZZ     -16.5598   YYZZ     -64.2231
      XZZZ     119.5563   YZZZ      17.1867   ZZZZ    -205.0722
 -----------------------------------------------------------------
 Calculating analytic gradient of the SCF energy
 Gradient of SCF Energy
            1           2           3           4           5           6
    1  -0.0008718  -0.0000555   0.0000452  -0.0000189   0.0000561  -0.0000163
    2   0.0065249   0.0000215  -0.0002348   0.0000274   0.0000176   0.0006153
    3   0.0003980  -0.0000703   0.0000201  -0.0000172   0.0000207  -0.0003063
            7           8           9          10          11          12
    1  -0.0000089   0.0000258  -0.0000018  -0.0000123  -0.0000095   0.0008679
    2  -0.0000367   0.0000774   0.0000163   0.0000201   0.0000061  -0.0070551
    3   0.0000284   0.0001207   0.0000097   0.0000021  -0.0000001  -0.0002059
 Max gradient component =       7.055E-03
 RMS gradient           =       1.621E-03
 Gradient time:  CPU 8.25 s  wall 0.72 s
 Geometry Optimization Parameters
   NAtoms,    NIC,     NZ,  NCons,   NDum,   NFix, NCnnct, MaxDiis
       12      70       0       1       0       0       0       0

 Cartesian Hessian Update
 Hessian Updated using BFGS Update


** CONSTRAINED OPTIMIZATION IN DELOCALIZED INTERNAL COORDINATES **
   Searching for a Minimum

   Optimization Cycle:   4

                       Coordinates (Angstroms)
     ATOM                X               Y               Z
      1  S         1.7570676133    0.0074402360   -1.2023406444
      2  C        -0.7358394651    0.0143033350    0.1436444101
      3  C         0.4287690627   -0.7609079891   -0.4180876021
      4  C        -1.9502438473   -0.8867388208    0.4045632218
      5  H        -1.0147484337    0.8170968778   -0.5502131690
      6  H         1.3049129755    3.0037366907   -1.0747162840
      7  H        -0.4479324163    0.5165836824    1.0830604200
      8  H         0.6560468499   -1.7433876959   -0.0027645880
      9  H        -2.7801245951   -0.3046176338    0.8176653165
     10  H        -2.2917906536   -1.3639547563   -0.5185450330
     11  H        -1.7063811304   -1.6772727978    1.1222945072
     12  H         1.4928620402    2.2815228718   -0.9815605551
   Point Group: c1    Number of degrees of freedom:    30


   Energy is   -517.214477611

              Constraints and their Current Values
                                        Value     Constraint
   Distance(Angs):        1  12             2.300000     2.300000
 Hessian Updated using BFGS Update

 28 Hessian modes will be used to form the next step
  Hessian Eigenvalues:
     0.007143    0.045000    0.045000    0.045090    0.047851    0.072122
     0.082313    0.082859    0.083269    0.109954    0.125382    0.136446
     0.156024    0.160002    0.160066    0.160120    0.219352    0.221140
     0.290082    0.315755    0.333037    0.333640    0.339955    0.342146
     0.342823    0.343736    0.347389    0.751874

 Minimum Search - Taking Simple RFO Step
 Searching for Lamda that Minimizes Along All modes
 Value Taken    Lamda =  -0.00001431
 Step Taken.  Stepsize is  0.043138

                             Maximum     Tolerance    Cnvgd?
         Gradient           0.000502      0.000300      NO
         Displacement       0.019499      0.001200      NO
         Energy change     -0.000005      0.000001      NO


 New Cartesian Coordinates Obtained by Inverse Iteration

 Displacement from previous Coordinates is:  0.094403
 ----------------------------------------------------------------
             Standard Nuclear Orientation (Angstroms)
    I     Atom           X                Y                Z
 ----------------------------------------------------------------
    1      S       1.7714434394     0.0014155057    -1.1894615295
    2      C      -0.7291275849     0.0160885683     0.1466981894
    3      C       0.4326882679    -0.7615636789    -0.4167861228
    4      C      -1.9477606127    -0.8807928564     0.4017268282
    5      H      -1.0032620013     0.8231843832    -0.5440328260
    6      H       1.2782174922     2.9942950155    -1.0781273501
    7      H      -0.4405505547     0.5130550870     1.0887718799
    8      H       0.6513708902    -1.7495461614    -0.0099054380
    9      H      -2.7759307225    -0.2970454670     0.8159284690
   10      H      -2.2897979320    -1.3525676259    -0.5240212312
   11      H      -1.7084690040    -1.6755294963     1.1163457786
   12      H       1.4737763224     2.2728107261    -0.9841366475
 ----------------------------------------------------------------
 Nuclear Repulsion Energy =   156.9577549189 hartrees
 There are       22 alpha and       20 beta electrons

                       Distance Matrix (Angstroms)
             S (  1)   C (  2)   C (  3)   C (  4)   H (  5)   H (  6)
   C (  2)  2.835206
   C (  3)  1.723784  1.507340
   C (  4)  4.140368  1.534439  2.520063
   H (  5)  2.964941  1.097116  2.142328  2.165659
   H (  6)  3.035292  3.794647  3.906247  5.254827  3.194390
   H (  7)  3.216371  1.103519  2.157291  2.164838  1.754672  3.715665
   H (  8)  2.389933  2.246724  1.090634  2.771220  3.105164  4.902863
   H (  9)  4.978883  2.176080  3.468515  1.094619  2.499353  5.554862
   H ( 10)  4.332408  2.181462  2.787959  1.093879  2.527740  5.650928
   H ( 11)  4.498742  2.181948  2.787540  1.095238  3.081841  5.961818
   H ( 12)  2.300000  3.350279  3.257787  4.855177  2.903589  0.753404
             H (  7)   H (  8)   H (  9)   H ( 10)   H ( 11)
   H (  8)  2.742034
   H (  9)  2.486907  3.812893
   H ( 10)  3.082429  3.012039  1.773673
   H ( 11)  2.529482  2.615868  1.769165  1.770043
   H ( 12)  3.325408  4.219577  5.282462  5.245909  5.488907
 
 Applying Cartesian multipole field
    Component          Value
    ---------          -----
     (2,0,0)        1.00000E-11
     (0,2,0)        2.00000E-11
     (0,0,2)       -3.00000E-11
 Nucleus-field energy     =     0.0000000025 hartrees
 Requested basis set is 6-31G(d,p)
 There are 41 shells and 104 basis functions
 A cutoff of  1.0D-14 yielded    798 shell pairs
 There are      5273 function pairs
 Smallest overlap matrix eigenvalue = 5.55E-03
 Guess from superposition of atomic densities
 Warning:  Energy on first SCF cycle will be non-variational
 SAD guess density has 42.000000 electrons

 -----------------------------------------------------------------------
  General SCF calculation program by
  Eric Jon Sundstrom, Paul Horn, Yuezhi Mao, Dmitri Zuev, Alec White,
  David Stuck, Shaama M.S., Shane Yost, Joonho Lee, David Small,
  Daniel Levine, Susi Lehtola, Hugh Burton, Evgeny Epifanovsky
 -----------------------------------------------------------------------
 Exchange:     0.2000 Hartree-Fock + 0.0800 Slater + 0.7200 B88
 Correlation:  0.1900 VWN1RPA + 0.8100 LYP
 Using SG-1 standard quadrature grid
 using 12 threads for integral computing
 -------------------------------------------------------
 OpenMP Integral computing Module                
 Release: version 1.0, May 2013, Q-Chem Inc. Pittsburgh 
 -------------------------------------------------------
 -------------------------------------------------------
 OpenMP BLAS3 based DFT computing Module                
 Release: version 1.0, May 2013, Q-Chem Inc. Pittsburgh 
 -------------------------------------------------------
 A unrestricted SCF calculation will be
 performed using DIIS
 SCF converges when DIIS error is below 1.0e-06
 Alpha HF Exchange    Energy =  -4.32656834920877
 Beta HF Exchange     Energy =  -4.32656834920877
 DFT Correlation      Energy =  -1.86231680906242
 DFT Exchange         Energy = -33.95383337986235
 One-Electron (alpha) Energy = -508.29668615262676
 One-Electron (beta)  Energy = -508.29668615262676
 Total Coulomb        Energy = 386.62075448918245
 ---------------------------------------
  Cycle       Energy         DIIS error
 ---------------------------------------
    1    -517.4841497820      2.87e-02  
 Alpha HF Exchange    Energy =  -4.45184924955905
 Beta HF Exchange     Energy =  -4.25642545430799
 DFT Correlation      Energy =  -1.88141744418609
 DFT Exchange         Energy = -34.55305513676861
 One-Electron (alpha) Energy = -524.11950184768830
 One-Electron (beta)  Energy = -498.23320330809423
 Total Coulomb        Energy = 393.42361839018366
    2    -517.1140791290      4.00e-03  
 Alpha HF Exchange    Energy =  -4.40643684093583
 Beta HF Exchange     Energy =  -4.20814747676581
 DFT Correlation      Energy =  -1.85629533822769
 DFT Exchange         Energy = -34.15693359557001
 One-Electron (alpha) Energy = -521.46321271779959
 One-Electron (beta)  Energy = -495.67340936295761
 Total Coulomb        Energy = 387.81004380838328
    3    -516.9966366025      5.85e-03  
 Alpha HF Exchange    Energy =  -4.42695630235002
 Beta HF Exchange     Energy =  -4.23117173727965
 DFT Correlation      Energy =  -1.86802905278225
 DFT Exchange         Energy = -34.33061038262058
 One-Electron (alpha) Energy = -522.77855329070246
 One-Electron (beta)  Energy = -496.72112446349229
 Total Coulomb        Energy = 390.18804003922446
    4    -517.2106502686      7.14e-04  
 Alpha HF Exchange    Energy =  -4.43127040410221
 Beta HF Exchange     Energy =  -4.23498002678638
 DFT Correlation      Energy =  -1.86876968559539
 DFT Exchange         Energy = -34.36112027543680
 One-Electron (alpha) Energy = -523.04483095446130
 One-Electron (beta)  Energy = -496.92681931087327
 Total Coulomb        Energy = 390.69636173698814
    5    -517.2136739989      3.48e-04  
 Alpha HF Exchange    Energy =  -4.43104464801093
[...]
             Standard Nuclear Orientation (Angstroms)
    I     Atom           X                Y                Z
 ----------------------------------------------------------------
    1      S       1.8292429030     0.0016309361    -1.0934297316
    2      C      -0.7192155090     0.0184421658     0.1505312072
    3      C       0.4351321046    -0.7617961806    -0.4252951132
    4      C      -1.9420819650    -0.8728653407     0.4024107052
    5      H      -0.9915559133     0.8334798264    -0.5321523029
    6      H       1.2402861541     2.9877463982    -1.0939609260
    7      H      -0.4231637499     0.5059005404     1.0951144309
    8      H       0.6110348664    -1.7778284959    -0.0692071510
    9      H      -2.7661525860    -0.2871373537     0.8217186896
   10      H      -2.2892036119    -1.3366178465    -0.5255962305
   11      H      -1.7059271380    -1.6733704367     1.1115924250
   12      H       1.4342024450     2.2662197873    -1.0187260027
 ----------------------------------------------------------------
 Nuclear Repulsion Energy =   156.9527754888 hartrees
 There are       22 alpha and       20 beta electrons

                       Distance Matrix (Angstroms)
             S (  1)   C (  2)   C (  3)   C (  4)   H (  5)   H (  6)
   C (  2)  2.835906
   C (  3)  1.724172  1.507603
   C (  4)  4.150322  1.534039  2.519639
   H (  5)  2.993979  1.097503  2.142840  2.165299
   H (  6)  3.043642  3.768975  3.892873  5.222156  3.152398
   H (  7)  3.180778  1.103404  2.157631  2.165167  1.754530  3.703873
   H (  8)  2.387371  2.245983  1.090900  2.749507  3.098636  4.914955
   H (  9)  4.986867  2.175735  3.468223  1.094527  2.497587  5.517811
   H ( 10)  4.367487  2.181330  2.786124  1.093964  2.528489  5.610745
   H ( 11)  4.490566  2.181621  2.788750  1.095224  3.081643  5.938910
   H ( 12)  2.300000  3.325188  3.243329  4.824187  2.858986  0.750909
             H (  7)   H (  8)   H (  9)   H ( 10)   H ( 11)
   H (  8)  2.764169
   H (  9)  2.488624  3.797539
   H ( 10)  3.082804  2.968896  1.773174
   H ( 11)  2.528829  2.602597  1.769109  1.770311
   H ( 12)  3.319165  4.234798  5.248795  5.204553  5.469830
 
 Applying Cartesian multipole field
    Component          Value
    ---------          -----
     (2,0,0)        1.00000E-11
     (0,2,0)        2.00000E-11
     (0,0,2)       -3.00000E-11
 Nucleus-field energy     =     0.0000000029 hartrees
 Requested basis set is 6-31G(d,p)
 There are 41 shells and 104 basis functions
 A cutoff of  1.0D-14 yielded    798 shell pairs
 There are      5273 function pairs
 Smallest overlap matrix eigenvalue = 5.54E-03
 Guess from superposition of atomic densities
 Warning:  Energy on first SCF cycle will be non-variational
 SAD guess density has 42.000000 electrons

 -----------------------------------------------------------------------
  General SCF calculation program by
  Eric Jon Sundstrom, Paul Horn, Yuezhi Mao, Dmitri Zuev, Alec White,
  David Stuck, Shaama M.S., Shane Yost, Joonho Lee, David Small,
  Daniel Levine, Susi Lehtola, Hugh Burton, Evgeny Epifanovsky
 -----------------------------------------------------------------------
 Exchange:     0.2000 Hartree-Fock + 0.0800 Slater + 0.7200 B88
 Correlation:  0.1900 VWN1RPA + 0.8100 LYP
 Using SG-1 standard quadrature grid
 using 12 threads for integral computing
 -------------------------------------------------------
 OpenMP Integral computing Module                
 Release: version 1.0, May 2013, Q-Chem Inc. Pittsburgh 
 -------------------------------------------------------
 -------------------------------------------------------
 OpenMP BLAS3 based DFT computing Module                
 Release: version 1.0, May 2013, Q-Chem Inc. Pittsburgh 
 -------------------------------------------------------
 A unrestricted SCF calculation will be
 performed using DIIS
 SCF converges when DIIS error is below 1.0e-06
 Alpha HF Exchange    Energy =  -4.32662605175979
 Beta HF Exchange     Energy =  -4.32662605175979
 DFT Correlation      Energy =  -1.86237564658734
 DFT Exchange         Energy = -33.95392286718617
 One-Electron (alpha) Energy = -508.29101989436833
 One-Electron (beta)  Energy = -508.29101989436833
 Total Coulomb        Energy = 386.61496472127988
 ---------------------------------------
  Cycle       Energy         DIIS error
 ---------------------------------------
    1    -517.4838501930      2.87e-02  
 Alpha HF Exchange    Energy =  -4.45189133917916
 Beta HF Exchange     Energy =  -4.25645380460827
 DFT Correlation      Energy =  -1.88144810043784
 DFT Exchange         Energy = -34.55327751051604
 One-Electron (alpha) Energy = -524.10654127723990
 One-Electron (beta)  Energy = -498.23969439580253
 Total Coulomb        Energy = 393.42218984302269
    2    -517.1143410930      4.00e-03  
 Alpha HF Exchange    Energy =  -4.40653424725830
 Beta HF Exchange     Energy =  -4.20833228646814
 DFT Correlation      Energy =  -1.85631899088241
 DFT Exchange         Energy = -34.15766282612947
 One-Electron (alpha) Energy = -521.45258399893203
 One-Electron (beta)  Energy = -495.67789034221454
 Total Coulomb        Energy = 387.80861473274501
    3    -516.9979324674      5.83e-03  
 Alpha HF Exchange    Energy =  -4.42698720899404
 Beta HF Exchange     Energy =  -4.23123666681829
 DFT Correlation      Energy =  -1.86805611663764
 DFT Exchange         Energy = -34.33088414577472
 One-Electron (alpha) Energy = -522.76389735623388
 One-Electron (beta)  Energy = -496.72848904514711
 Total Coulomb        Energy = 390.18609316601572
    4    -517.2106818819      7.16e-04  
 Alpha HF Exchange    Energy =  -4.43128959293181
 Beta HF Exchange     Energy =  -4.23504110938834
 DFT Correlation      Energy =  -1.86879339336841
 DFT Exchange         Energy = -34.36132502137558
 One-Electron (alpha) Energy = -523.02879246947316
 One-Electron (beta)  Energy = -496.93438322166048
 Total Coulomb        Energy = 390.69313067875692
    5    -517.2137186377      3.47e-04  
 Alpha HF Exchange    Energy =  -4.43107185539466
 Beta HF Exchange     Energy =  -4.23467113093258
 DFT Correlation      Energy =  -1.86834362710448
 DFT Exchange         Energy = -34.35772387499451
 One-Electron (alpha) Energy = -523.00608659245847
 One-Electron (beta)  Energy = -496.87286929908146
 Total Coulomb        Energy = 390.60353093161177
    6    -517.2144599566      8.57e-05  
 Alpha HF Exchange    Energy =  -4.43064144374817
 Beta HF Exchange     Energy =  -4.23468201582701
 DFT Correlation      Energy =  -1.86813203175521
 DFT Exchange         Energy = -34.35536009739836
 One-Electron (alpha) Energy = -522.97478105441860
 One-Electron (beta)  Energy = -496.84479612223760
 Total Coulomb        Energy = 390.54109772907958
    7    -517.2145195446      3.23e-05  
 Alpha HF Exchange    Energy =  -4.43081033350260
 Beta HF Exchange     Energy =  -4.23482401702187
 DFT Correlation      Energy =  -1.86814051391401
 DFT Exchange         Energy = -34.35642304273662
 One-Electron (alpha) Energy = -522.98845883852891
 One-Electron (beta)  Energy = -496.85299931756930
 Total Coulomb        Energy = 390.56435152463041
    8    -517.2145290469      1.08e-05  
 Alpha HF Exchange    Energy =  -4.43081521338461
 Beta HF Exchange     Energy =  -4.23488035851672
 DFT Correlation      Energy =  -1.86812497799821
 DFT Exchange         Energy = -34.35658554153286
 One-Electron (alpha) Energy = -522.98846638958491
 One-Electron (beta)  Energy = -496.85339399817093
 Total Coulomb        Energy = 390.56496078125861
    9    -517.2145302062      4.87e-06  
 Alpha HF Exchange    Energy =  -4.43079461548923
 Beta HF Exchange     Energy =  -4.23487258759839
 DFT Correlation      Energy =  -1.86811468208965
 DFT Exchange         Energy = -34.35645596210865
 One-Electron (alpha) Energy = -522.98638830147138
 One-Electron (beta)  Energy = -496.85181698112484
 Total Coulomb        Energy = 390.56113724581985
   10    -517.2145303923      1.19e-06  
 Alpha HF Exchange    Energy =  -4.43079807851833
 Beta HF Exchange     Energy =  -4.23487691473981
 DFT Correlation      Energy =  -1.86811609590557
 DFT Exchange         Energy = -34.35648972771362
 One-Electron (alpha) Energy = -522.98670829166520
 One-Electron (beta)  Energy = -496.85234858488883
 Total Coulomb        Energy = 390.56203177875886
   11    -517.2145304229      4.15e-07  Convergence criterion met
 ---------------------------------------
 SCF time:   CPU 26.39s  wall 3.00s 
<S^2> =          2.005386685
 Alpha HF Exchange    Energy =  -4.43079807851833
 Beta HF Exchange     Energy =  -4.23487691473981
 DFT Correlation      Energy =  -1.86811609590557
 DFT Exchange         Energy = -34.35648972771362
 One-Electron (alpha) Energy = -522.98670829166520
 One-Electron (beta)  Energy = -496.85234858488883
 Total Coulomb        Energy = 390.56203177875886
 Nuclear repulsion Energy = 156.95277549173838
 SCF   energy in the final basis set =     -517.2145304229
 Total energy in the final basis set =     -517.2145304229
 
 --------------------------------------------------------------
 
                    Orbital Energies (a.u.)
 --------------------------------------------------------------
 
 Alpha MOs
 -- Occupied --
-88.907 -10.214 -10.202 -10.183  -7.968  -5.938  -5.928  -5.923
 -0.816  -0.751  -0.643  -0.575  -0.460  -0.450  -0.429  -0.423
 -0.369  -0.363  -0.348  -0.308  -0.287  -0.170
 -- Virtual --
  0.058   0.105   0.121   0.127   0.150   0.160   0.171   0.190
  0.230   0.251   0.310   0.364   0.377   0.412   0.505   0.524
  0.535   0.548   0.581   0.620   0.639   0.672   0.717   0.749
  0.803   0.811   0.832   0.848   0.859   0.881   0.888   0.913
  0.941   0.979   1.005   1.058   1.137   1.194   1.310   1.440
  1.559   1.608   1.671   1.676   1.680   1.771   1.823   1.852
  1.906   2.030   2.046   2.060   2.097   2.117   2.198   2.249
  2.273   2.372   2.378   2.416   2.442   2.509   2.604   2.608
  2.627   2.681   2.711   2.743   2.823   2.876   2.906   3.182
  3.271   3.309   3.403   3.460   3.524   3.892   4.111   4.220
  4.384   4.611
 
 Beta MOs
 -- Occupied --
-88.901 -10.202 -10.201 -10.183  -7.962  -5.924  -5.920  -5.917
 -0.795  -0.731  -0.629  -0.548  -0.450  -0.440  -0.421  -0.408
 -0.361  -0.355  -0.338  -0.270
 -- Virtual --
 -0.162  -0.038   0.077   0.111   0.130   0.134   0.153   0.163
  0.173   0.194   0.237   0.261   0.329   0.377   0.388   0.437
  0.515   0.541   0.543   0.554   0.625   0.638   0.659   0.685
  0.732   0.793   0.822   0.835   0.845   0.862   0.869   0.891
  0.897   0.924   0.943   0.994   1.026   1.080   1.145   1.201
  1.321   1.445   1.565   1.630   1.675   1.681   1.685   1.793
  1.827   1.878   1.920   2.045   2.061   2.067   2.100   2.122
  2.208   2.255   2.283   2.378   2.385   2.428   2.451   2.521
  2.607   2.612   2.639   2.686   2.719   2.745   2.827   2.878
  2.909   3.183   3.277   3.316   3.408   3.462   3.527   3.911
  4.117   4.241   4.390   4.614
 --------------------------------------------------------------
 
          Ground-State Mulliken Net Atomic Charges

     Atom                 Charge (a.u.)    Spin (a.u.)
  --------------------------------------------------------
      1 S                     0.084591       1.070300
      2 C                    -0.183140      -0.023858
      3 C                    -0.275175       0.835121
      4 C                    -0.319554       0.009838
      5 H                     0.115437       0.014417
      6 H                     0.017449       0.060542
      7 H                     0.115081       0.050157
      8 H                     0.134566       0.002336
      9 H                     0.107147       0.001073
     10 H                     0.117360       0.001483
     11 H                     0.107944      -0.000860
     12 H                    -0.021705      -0.020549
  --------------------------------------------------------
  Sum of atomic charges =    -0.000000
  Sum of spin   charges =     2.000000

 -----------------------------------------------------------------
                    Cartesian Multipole Moments
 -----------------------------------------------------------------
    Charge (ESU x 10^10)
                 0.0000
    Dipole Moment (Debye)
         X      -0.9505      Y      -0.1701      Z       0.7971
       Tot       1.2521
    Quadrupole Moments (Debye-Ang)
        XX     -35.5740     XY      -0.8933     YY     -32.4985
        XZ       0.3317     YZ      -0.9002     ZZ     -36.7439
    Octopole Moments (Debye-Ang^2)
       XXX     -30.1620    XXY       4.7236    XYY      -6.8578
       YYY      18.8242    XXZ      13.6319    XYZ      -0.3485
       YYZ      13.2341    XZZ     -11.5696    YZZ       7.3499
       ZZZ      47.6534
    Hexadecapole Moments (Debye-Ang^3)
      XXXX    -536.1164   XXXY     -57.5038   XXYY    -120.6516
      XYYY     -53.0224   YYYY    -179.8113   XXXZ     104.2114
      XXYZ       7.6396   XYYZ      34.6749   YYYZ      12.6117
      XXZZ    -119.1597   XYZZ     -16.1339   YYZZ     -60.9453
      XZZZ     115.6564   YZZZ      17.3701   ZZZZ    -185.7999
 -----------------------------------------------------------------
 Calculating analytic gradient of the SCF energy
 Gradient of SCF Energy
            1           2           3           4           5           6
    1  -0.0009408  -0.0000041  -0.0000951   0.0000119  -0.0000036   0.0000937
    2   0.0060348   0.0000042  -0.0000255   0.0000142  -0.0000221   0.0001941
    3   0.0001596   0.0000811  -0.0000952   0.0000250  -0.0000227  -0.0001835
            7           8           9          10          11          12
    1   0.0000169  -0.0000077   0.0000021  -0.0000164  -0.0000059   0.0009487
    2   0.0000253  -0.0000084   0.0000140   0.0000181   0.0000046  -0.0062534
    3  -0.0000196   0.0000055   0.0000129   0.0000053  -0.0000000   0.0000316
 Max gradient component =       6.253E-03
 RMS gradient           =       1.467E-03
 Gradient time:  CPU 8.38 s  wall 0.75 s
 Geometry Optimization Parameters
   NAtoms,    NIC,     NZ,  NCons,   NDum,   NFix, NCnnct, MaxDiis
       12      70       0       1       0       0       0       0

 Cartesian Hessian Update
 Hessian Updated using BFGS Update


** CONSTRAINED OPTIMIZATION IN DELOCALIZED INTERNAL COORDINATES **
   Searching for a Minimum

   Optimization Cycle:  14

                       Coordinates (Angstroms)
     ATOM                X               Y               Z
      1  S         1.8292429030    0.0016309361   -1.0934297316
      2  C        -0.7192155090    0.0184421658    0.1505312072
      3  C         0.4351321046   -0.7617961806   -0.4252951132
      4  C        -1.9420819650   -0.8728653407    0.4024107052
      5  H        -0.9915559133    0.8334798264   -0.5321523029
      6  H         1.2402861541    2.9877463982   -1.0939609260
      7  H        -0.4231637499    0.5059005404    1.0951144309
      8  H         0.6110348664   -1.7778284959   -0.0692071510
      9  H        -2.7661525860   -0.2871373537    0.8217186896
     10  H        -2.2892036119   -1.3366178465   -0.5255962305
     11  H        -1.7059271380   -1.6733704367    1.1115924250
     12  H         1.4342024450    2.2662197873   -1.0187260027
   Point Group: c1    Number of degrees of freedom:    30


   Energy is   -517.214530423

              Constraints and their Current Values
                                        Value     Constraint
   Distance(Angs):        1  12             2.300000     2.300000
 Hessian Updated using BFGS Update

 29 Hessian modes will be used to form the next step
  Hessian Eigenvalues:
     0.000912    0.009970    0.014973    0.045006    0.046598    0.070464
     0.074515    0.082266    0.082903    0.083323    0.110025    0.123222
     0.136470    0.158050    0.160003    0.160042    0.160070    0.218894
     0.219383    0.290107    0.313663    0.333000    0.337354    0.339971
     0.342149    0.342830    0.343741    0.347470    0.703210

 Minimum Search - Taking Simple RFO Step
 Searching for Lamda that Minimizes Along All modes
 Value Taken    Lamda =   0.00000000
 Step Taken.  Stepsize is  0.010025

                             Maximum     Tolerance    Cnvgd?
         Gradient           0.000130      0.000300     YES
         Displacement       0.005897      0.001200      NO
         Energy change     -0.000001      0.000001     YES


                       Distance Matrix (Angstroms)
             S (  1)   C (  2)   C (  3)   C (  4)   H (  5)   H (  6)
   C (  2)  2.835906
   C (  3)  1.724172  1.507603
   C (  4)  4.150322  1.534039  2.519639
   H (  5)  2.993979  1.097503  2.142840  2.165299
   H (  6)  3.043642  3.768975  3.892873  5.222156  3.152398
   H (  7)  3.180778  1.103404  2.157631  2.165167  1.754530  3.703873
   H (  8)  2.387371  2.245983  1.090900  2.749507  3.098636  4.914955
   H (  9)  4.986867  2.175735  3.468223  1.094527  2.497587  5.517811
   H ( 10)  4.367487  2.181330  2.786124  1.093964  2.528489  5.610745
   H ( 11)  4.490566  2.181621  2.788750  1.095224  3.081643  5.938910
   H ( 12)  2.300000  3.325188  3.243329  4.824187  2.858986  0.750909
             H (  7)   H (  8)   H (  9)   H ( 10)   H ( 11)
   H (  8)  2.764169
   H (  9)  2.488624  3.797539
   H ( 10)  3.082804  2.968896  1.773174
   H ( 11)  2.528829  2.602597  1.769109  1.770311
   H ( 12)  3.319165  4.234798  5.248795  5.204553  5.469830
 
 Final energy is   -517.214530422934     


 ******************************
 **  OPTIMIZATION CONVERGED  **
 ******************************

                       Coordinates (Angstroms)
     ATOM                X               Y               Z
      1  S         1.8292429030    0.0016309361   -1.0934297316
      2  C        -0.7192155090    0.0184421658    0.1505312072
      3  C         0.4351321046   -0.7617961806   -0.4252951132
      4  C        -1.9420819650   -0.8728653407    0.4024107052
      5  H        -0.9915559133    0.8334798264   -0.5321523029
      6  H         1.2402861541    2.9877463982   -1.0939609260
      7  H        -0.4231637499    0.5059005404    1.0951144309
      8  H         0.6110348664   -1.7778284959   -0.0692071510
      9  H        -2.7661525860   -0.2871373537    0.8217186896
     10  H        -2.2892036119   -1.3366178465   -0.5255962305
     11  H        -1.7059271380   -1.6733704367    1.1115924250
     12  H         1.4342024450    2.2662197873   -1.0187260027

Z-matrix Print:
$molecule
0 3
S 
C  1 1.724172
H  2 1.090900 1 114.110848
C  2 1.507603 1 122.545070 3 155.575353 0
H  4 1.097503 2 109.679211 1 46.099259 0
H  4 1.103404 2 110.497606 1 -70.066352 0
C  4 1.534039 2 111.862699 1 167.954480 0
H  7 1.093964 4 111.097920 2 -59.881199 0
H  7 1.094527 4 110.619001 2 179.883963 0
H  7 1.095224 4 111.045260 2 60.252762 0
H  1 2.300000 2 106.528875 3 -159.181094 0
H  11 0.750909 1 170.814836 2 -80.454042 0
$end

PES scan, value:    2.3000 energy: -517.2145304229
------- Summary of potential scan: ------ 
    2.3000      -517.2145304229
----------------------------------------- 
Archival summary:
1\1\hpc0250\JobtypUnspecified\ProcedureUnspecified\6-31G**\138(3)\knomura\WedMar1322:48:312019WedMar1322:48:312019\0\\#,JobtypUnspecified,ProcedureUnspecified,6-31G**,\\0,3\S\C,1,1.72417\H,2,1.0909,1,114.111\C,2,1.5076,1,122.545,3,155.575,0\H,4,1.0975,2,109.679,1,46.0993,0\H,4,1.1034,2,110.498,1,-70.0664,0\C,4,1.53404,2,111.863,1,167.954,0\H,7,1.09396,4,111.098,2,-59.8812,0\H,7,1.09453,4,110.619,2,179.884,0\H,7,1.09522,4,111.045,2,60.2528,0\H,1,2.3,2,106.529,3,-159.181,0\H,11,0.750909,1,170.815,2,-80.454,0\\\@

 Total job time:  48.50s(wall), 548.07s(cpu) 
 Wed Mar 13 22:48:31 2019

        *************************************************************
        *                                                           *
        *  Thank you very much for using Q-Chem.  Have a nice day.  *
        *                                                           *
        *************************************************************


