
Running Job 1 of 1 thiol/03/S-H.xyz.data/inputs/bond_singlet_1.0.in
qchem thiol/03/S-H.xyz.data/inputs/bond_singlet_1.0.in_31404.0 /staging/scratch/2868767/qchem31404/ 1
/usr/usc/qchem/5.1.1/exe/qcprog.exe_s thiol/03/S-H.xyz.data/inputs/bond_singlet_1.0.in_31404.0 /staging/scratch/2868767/qchem31404/
Check license passed

                  Welcome to Q-Chem
     A Quantum Leap Into The Future Of Chemistry


 Q-Chem 5.1, Q-Chem, Inc., Pleasanton, CA (2018)

 Yihan Shao,  Zhengting Gan,  E. Epifanovsky,  A. T. B. Gilbert,  M. Wormit,  
 J. Kussmann,  A. W. Lange,  A. Behn,  Jia Deng,  Xintian Feng,  D. Ghosh,  
 M. Goldey,  P. R. Horn,  L. D. Jacobson,  I. Kaliman,  T. Kus,  A. Landau,  
 Jie Liu,  E. I. Proynov,  R. M. Richard,  R. P. Steele,  E. J. Sundstrom,  
 H. L. Woodcock III,  P. M. Zimmerman,  D. Zuev,  B. Albrecht,  E. Alguire,  
 S. A. Baeppler,  D. Barton,  Z. Benda,  Y. A. Bernard,  E. J. Berquist,  
 K. B. Bravaya,  H. Burton,  D. Casanova,  Chun-Min Chang,  Yunqing Chen,  
 A. Chien,  K. D. Closser,  M. P. Coons,  S. Coriani,  S. Dasgupta,  
 A. L. Dempwolff,  M. Diedenhofen,  Hainam Do,  R. G. Edgar,  Po-Tung Fang,  
 S. Faraji,  S. Fatehi,  Qingguo Feng,  K. D. Fenk,  J. Fosso-Tande,  
 Qinghui Ge,  A. Ghysels,  G. Gidofalvi,  J. Gomes,  J. Gonthier,  A. Gunina,  
 D. Hait,  M. W. D. Hanson-Heine,  P. H. P. Harbach,  A. W. Hauser,  
 J. E. Herr,  E. G. Hohenstein,  Z. C. Holden,  Kerwin Hui,  B. C. Huynh,  
 T.-C. Jagau,  Hyunjun Ji,  B. Kaduk,  K. Khistyaev,  Jaehoon Kim,  
 P. Klunzinger,  K. Koh,  D. Kosenkov,  L. Koulias,  T. Kowalczyk,  
 C. M. Krauter,  A. Kunitsa,  Ka Un Lao,  A. Laurent,  K. V. Lawler,  
 Joonho Lee,  D. Lefrancois,  S. Lehtola,  D. S. Levine,  Yi-Pei Li,  
 You-Sheng Lin,  Fenglai Liu,  E. Livshits,  A. Luenser,  P. Manohar,  
 E. Mansoor,  S. F. Manzer,  Shan-Ping Mao,  Yuezhi Mao,  N. Mardirossian,  
 A. V. Marenich,  T. Markovich,  L. A. Martinez-Martinez,  S. A. Maurer,  
 N. J. Mayhall,  S. C. McKenzie,  J.-M. Mewes,  A. F. Morrison,  
 J. W. Mullinax,  K. Nanda,  T. S. Nguyen-Beck,  R. Olivares-Amaya,  
 J. A. Parkhill,  T. M. Perrine,  F. Plasser,  P. Pokhilko,  S. Prager,  
 A. Prociuk,  E. Ramos,  D. R. Rehn,  F. Rob,  M. Schneider,  N. Sergueev,  
 S. M. Sharada,  S. Sharma,  D. W. Small,  T. Stauch,  T. Stein,  
 Yu-Chuan Su,  A. J. W. Thom,  A. Tkatchenko,  T. Tsuchimochi,  N. M. Tubman,  
 L. Vogt,  M. L. Vidal,  O. Vydrov,  M. A. Watson,  J. Wenzel,  
 M. de Wergifosse,  T. A. Wesolowski,  A. White,  J. Witte,  A. Yamada,  
 Jun Yang,  K. Yao,  S. Yeganeh,  S. R. Yost,  Zhi-Qiang You,  A. Zech,  
 Igor Ying Zhang,  Xing Zhang,  Yan Zhao,  Ying Zhu,  B. R. Brooks,  
 G. K. L. Chan,  C. J. Cramer,  M. S. Gordon,  W. J. Hehre,  A. Klamt,  
 M. W. Schmidt,  C. D. Sherrill,  D. G. Truhlar,  A. Aspuru-Guzik,  R. Baer,  
 A. T. Bell,  N. A. Besley,  Jeng-Da Chai,  A. E. DePrince, III,  
 R. A. DiStasio Jr.,  A. Dreuw,  B. D. Dunietz,  T. R. Furlani,  
 Chao-Ping Hsu,  Yousung Jung,  Jing Kong,  D. S. Lambrecht,  WanZhen Liang,  
 C. Ochsenfeld,  V. A. Rassolov,  L. V. Slipchenko,  J. E. Subotnik,  
 T. Van Voorhis,  J. M. Herbert,  A. I. Krylov,  P. M. W. Gill,  M. Head-Gordon

 Contributors to earlier versions of Q-Chem not listed above: 
 R. D. Adamson,  B. Austin,  J. Baker,  G. J. O. Beran,  K. Brandhorst,  
 S. T. Brown,  E. F. C. Byrd,  A. K. Chakraborty,  C.-L. Cheng,  
 Siu Hung Chien,  D. M. Chipman,  D. L. Crittenden,  H. Dachsel,  
 R. J. Doerksen,  A. D. Dutoi,  L. Fusti-Molnar,  W. A. Goddard III,  
 A. Golubeva-Zadorozhnaya,  S. R. Gwaltney,  G. Hawkins,  A. Heyden,  
 S. Hirata,  G. Kedziora,  F. J. Keil,  C. Kelley,  Jihan Kim,  R. A. King,  
 R. Z. Khaliullin,  P. P. Korambath,  W. Kurlancheek,  A. M. Lee,  M. S. Lee,  
 S. V. Levchenko,  Ching Yeh Lin,  D. Liotard,  R. C. Lochan,  I. Lotan,  
 P. E. Maslen,  N. Nair,  D. P. O'Neill,  D. Neuhauser,  E. Neuscamman,  
 C. M. Oana,  R. Olson,  B. Peters,  R. Peverati,  P. A. Pieniazek,  
 Y. M. Rhee,  J. Ritchie,  M. A. Rohrdanz,  E. Rosta,  N. J. Russ,  
 H. F. Schaefer III,  N. E. Schultz,  N. Shenvi,  A. C. Simmonett,  A. Sodt,  
 D. Stuck,  K. S. Thanthiriwatte,  V. Vanovschi,  Tao Wang,  A. Warshel,  
 C. F. Williams,  Q. Wu,  X. Xu,  W. Zhang

 Please cite Q-Chem as follows:
 Y. Shao et al., Mol. Phys. 113, 184-215 (2015)
 DOI: 10.1080/00268976.2014.952696

 Q-Chem 5.1.1 for Intel X86 EM64T Linux

 Parts of Q-Chem use Armadillo 8.300.2 (Tropical Shenanigans).
 http://arma.sourceforge.net/

 Q-Chem begins on Thu Mar 14 02:30:55 2019  

Host: 
0

     Scratch files written to /staging/scratch/2868767/qchem31404//
 Aug318 |scratch|qcdevops|jenkins|workspace|build_RNUM 6013   
Processing $rem in /usr/usc/qchem/5.1.1/config/preferences.
 MEM_TOTAL  2000 
Input Ideriv = 2
Curr. Ideriv = -1
Max.  Ideriv = 2

Checking the input file for inconsistencies... 	...done.

--------------------------------------------------------------
User input:
--------------------------------------------------------------

$comment
potential surface scanner
$end

$rem
JOBTYPE  PES_SCAN
UNRESTRICTED TRUE
SYM_IGNORE  TRUE
GEOM_OPT_MAX_CYCLES 400
SCF_MAX_CYCLES 400
METHOD   B3LYP
BASIS   6-31G**
PDB_PRINT 2
SCF_CONVERGENCE 6
THRESH 14
SCF_PRINT 1
$end
$molecule
0 1
S 0.653000 -1.655100 0.136100
S -2.273700 -0.042700 -0.103500
C 0.513800 0.101500 -0.361300
C -0.697000 0.778900 0.292500
C 1.803900 0.817400 0.036300
H 0.414100 0.130900 -1.452400
H -0.592400 0.804400 1.383200
H -0.770600 1.816900 -0.049700
H 1.768400 1.866200 -0.278900
H 1.962400 0.805000 1.120700
H 2.677400 0.363600 -0.445400
H 0.755100 -1.437500 1.455700
H -1.974700 -1.224500 0.455700
$end
$scan
stre 2 13 1.000000 1.001000 0.100000
$end
--------------------------------------------------------------
 ----------------------------------------------------------------
             Standard Nuclear Orientation (Angstroms)
    I     Atom           X                Y                Z
 ----------------------------------------------------------------
    1      S       0.6530000000    -1.6551000000     0.1361000000
    2      S      -2.2737000000    -0.0427000000    -0.1035000000
    3      C       0.5138000000     0.1015000000    -0.3613000000
    4      C      -0.6970000000     0.7789000000     0.2925000000
    5      C       1.8039000000     0.8174000000     0.0363000000
    6      H       0.4141000000     0.1309000000    -1.4524000000
    7      H      -0.5924000000     0.8044000000     1.3832000000
    8      H      -0.7706000000     1.8169000000    -0.0497000000
    9      H       1.7684000000     1.8662000000    -0.2789000000
   10      H       1.9624000000     0.8050000000     1.1207000000
   11      H       2.6774000000     0.3636000000    -0.4454000000
   12      H       0.7551000000    -1.4375000000     1.4557000000
   13      H      -1.9747000000    -1.2245000000     0.4557000000
 ----------------------------------------------------------------
 Nuclear Repulsion Energy =   290.8061723522 hartrees
 There are       29 alpha and       29 beta electrons
 Requested basis set is 6-31G(d,p)
 There are 46 shells and 123 basis functions

 Total QAlloc Memory Limit   2000 MB
 Mega-Array Size       188 MB
 MEM_STATIC part       192 MB
A total of 1 constraints
  
            1
    1   1.0100000
    2   2.0100000
    3  13.0100000
    4   1.0000000
    5   1.0010000
    6   0.1000000
    7   0.0000000
    8   0.0000000
    9   0.0000000
   10   0.0000000

                       Distance Matrix (Angstroms)
             S (  1)   S (  2)   C (  3)   C (  4)   C (  5)   H (  6)
   S (  2)  3.350047
   C (  3)  1.830963  2.803107
   C (  4)  2.787708  1.821490  1.533741
   C (  5)  2.729063  4.169669  1.528056  2.514283
   H (  6)  2.402124  3.012298  1.096040  2.167746  2.149198
   H (  7)  3.025792  2.398880  2.181978  1.096001  2.748920  3.083386
   H (  8)  3.757119  2.391718  2.165496  1.095428  2.763050  2.492725
   H (  9)  3.716974  4.473616  2.166790  2.754436  1.095716  2.494493
   H ( 10)  2.955682  4.490190  2.188533  2.785499  1.095992  3.077741
   H ( 11)  2.917445  4.979495  2.181040  3.479015  1.095888  2.488117
   H ( 12)  1.341312  3.681060  2.393373  2.893796  2.863434  3.321627
   H ( 13)  2.681859  1.341177  2.935711  2.381756  4.315446  3.344297
             H (  7)   H (  8)   H (  9)   H ( 10)   H ( 11)   H ( 12)
   H (  8)  1.763552
   H (  9)  3.076259  2.549801
   H ( 10)  2.568250  3.140552  1.767105
   H ( 11)  3.772224  3.762627  1.764032  1.777281
   H ( 12)  2.616702  3.896808  3.866529  2.568775  3.248597
   H ( 13)  2.624394  3.309894  4.909466  4.479046  4.997607  2.914992

 
 A cutoff of  1.0D-14 yielded   1033 shell pairs
 There are      7542 function pairs
 
 -------------------------------------------------------
 OpenMP Integral Computing Module                       
 Release: version 1.0, May 2013, Q-Chem Inc. Pittsburgh 
 -------------------------------------------------------
 Integral Job Info:
 Integral job number is                      11
 Integral operator is                         1
 short-range coefficients                     0
 long-range coefficients              100000000
 Omega coefficients                           0
 if combine SR and LR in K                    0
 Integral screening is                        0
 Integral computing path is                   2
 max size of driver memory is            800000
 size of driver memory is                593474
 size of scratch memory is             15267112
 max col of scratch BK array               1296
 max len of scratch array in speh3          155
 max len of scratch index in speh4           18
 max int batch size is                      520
 min int batch size is                       52
 fixed nKL is                                52
 max L of basis functions is                  2
 order of int derivative is                   0
 number of shells is                         46
 number of basis is                         123
 number of cartesian basis is               123
 number of contracted shell pairs          1033
 number of primitive shell pairs           3974
 maxK2 (contraction) of shell pair           36
 max number of K2 of shell pair               1
 max number of CS2 of shell pair             80
 max number of PS2 of shell pair            354
 mem total for path MDJ                  519084
 -------------------------------------------------------
 Smallest overlap matrix eigenvalue = 5.32E-03

 Scale SEOQF with 1.000000e-01/1.000000e-01/1.000000e+00

 Standard Electronic Orientation quadrupole field applied
 Nucleus-field energy     =    -0.0000000011 hartrees
 Guess from superposition of atomic densities
 Warning:  Energy on first SCF cycle will be non-variational
 SAD guess density has 58.000000 electrons

 -----------------------------------------------------------------------
  General SCF calculation program by
  Eric Jon Sundstrom, Paul Horn, Yuezhi Mao, Dmitri Zuev, Alec White,
  David Stuck, Shaama M.S., Shane Yost, Joonho Lee, David Small,
  Daniel Levine, Susi Lehtola, Hugh Burton, Evgeny Epifanovsky
 -----------------------------------------------------------------------
 Exchange:     0.2000 Hartree-Fock + 0.0800 Slater + 0.7200 B88
 Correlation:  0.1900 VWN1RPA + 0.8100 LYP
 Using SG-1 standard quadrature grid
 using 12 threads for integral computing
 -------------------------------------------------------
 OpenMP Integral computing Module                
 Release: version 1.0, May 2013, Q-Chem Inc. Pittsburgh 
 -------------------------------------------------------
 -------------------------------------------------------
 OpenMP BLAS3 based DFT computing Module                
 Release: version 1.0, May 2013, Q-Chem Inc. Pittsburgh 
 -------------------------------------------------------
 A unrestricted SCF calculation will be
 performed using DIIS
 SCF converges when DIIS error is below 1.0e-06
 Alpha HF Exchange    Energy =  -6.86860418470643
 Beta HF Exchange     Energy =  -6.86860418470643
 DFT Correlation      Energy =  -2.71728058875326
 DFT Exchange         Energy = -53.89352891367010
 One-Electron (alpha) Energy = -916.70586215165179
 One-Electron (beta)  Energy = -916.70586215165179
 Total Coulomb        Energy = 696.76699239042875
 ---------------------------------------
  Cycle       Energy         DIIS error
 ---------------------------------------
    1    -916.1865774336      2.85e-02  
 Alpha HF Exchange    Energy =  -6.86971263644539
 Beta HF Exchange     Energy =  -6.86971263644539
 DFT Correlation      Energy =  -2.74409399772525
 DFT Exchange         Energy = -54.50147737483255
 One-Electron (alpha) Energy = -920.72960993610093
 One-Electron (beta)  Energy = -920.72960993610127
 Total Coulomb        Energy = 706.18405706375654
    2    -915.4539871028      2.83e-03  
 Alpha HF Exchange    Energy =  -6.81529932414627
 Beta HF Exchange     Energy =  -6.81529932414627
 DFT Correlation      Energy =  -2.71846496072072
 DFT Exchange         Energy = -54.04165878911405
 One-Electron (alpha) Energy = -916.56372188784849
 One-Electron (beta)  Energy = -916.56372188784871
 Total Coulomb        Energy = 697.27720351538949
    3    -915.4347903073      3.25e-03  
 Alpha HF Exchange    Energy =  -6.84069511450832
 Beta HF Exchange     Energy =  -6.84069511450832
 DFT Correlation      Energy =  -2.73152250796605
 DFT Exchange         Energy = -54.25571982027954
 One-Electron (alpha) Energy = -918.69056560103184
 One-Electron (beta)  Energy = -918.69056560103161
 Total Coulomb        Energy = 701.72362510795358
    4    -915.5199663003      4.83e-04  
 Alpha HF Exchange    Energy =  -6.84200958650548
 Beta HF Exchange     Energy =  -6.84200958650548
 DFT Correlation      Energy =  -2.73151262195696
 DFT Exchange         Energy = -54.26493451546444
 One-Electron (alpha) Energy = -918.71756739542820
 One-Electron (beta)  Energy = -918.71756739542866
 Total Coulomb        Energy = 701.78756719936143
    5    -915.5218615508      1.38e-04  
 Alpha HF Exchange    Energy =  -6.84189437479300
 Beta HF Exchange     Energy =  -6.84189437479300
 DFT Correlation      Energy =  -2.73151319638994
 DFT Exchange         Energy = -54.26421812721283
 One-Electron (alpha) Energy = -918.71807144472371
 One-Electron (beta)  Energy = -918.71807144472371
 Total Coulomb        Energy = 701.78749265404883
    6    -915.5219979575      3.74e-05  
 Alpha HF Exchange    Energy =  -6.84173127652597
 Beta HF Exchange     Energy =  -6.84173127652597
 DFT Correlation      Energy =  -2.73145508456731
 DFT Exchange         Energy = -54.26284056248262
 One-Electron (alpha) Energy = -918.70135627841432
 One-Electron (beta)  Energy = -918.70135627841421
 Total Coulomb        Energy = 701.75229023259533
    7    -915.5220081732      7.61e-06  
 Alpha HF Exchange    Energy =  -6.84178894557164
 Beta HF Exchange     Energy =  -6.84178894557164
 DFT Correlation      Energy =  -2.73147746417039
 DFT Exchange         Energy = -54.26329699897540
 One-Electron (alpha) Energy = -918.70806105302995
 One-Electron (beta)  Energy = -918.70806105302995
 Total Coulomb        Energy = 701.76629345009997
    8    -915.5220086591      1.51e-06  
 Alpha HF Exchange    Energy =  -6.84178235010642
 Beta HF Exchange     Energy =  -6.84178235010642
 DFT Correlation      Energy =  -2.73147461643586
 DFT Exchange         Energy = -54.26324233705522
 One-Electron (alpha) Energy = -918.70716644607899
 One-Electron (beta)  Energy = -918.70716644607944
 Total Coulomb        Energy = 701.76443351557646
    9    -915.5220086792      2.35e-07  Convergence criterion met
 ---------------------------------------
 SCF time:   CPU 29.96s  wall 3.00s 
<S^2> =         -0.000000000
 Alpha HF Exchange    Energy =  -6.84178235010642
 Beta HF Exchange     Energy =  -6.84178235010642
 DFT Correlation      Energy =  -2.73147461643586
 DFT Exchange         Energy = -54.26324233705522
 One-Electron (alpha) Energy = -918.70716644607899
 One-Electron (beta)  Energy = -918.70716644607944
 Total Coulomb        Energy = 701.76443351557646
 Nuclear repulsion Energy = 290.80617235111839
 SCF   energy in the final basis set =     -915.5220086792
 Total energy in the final basis set =     -915.5220086792
 
 --------------------------------------------------------------
 
                    Orbital Energies (a.u.)
 --------------------------------------------------------------
 
 Alpha MOs
 -- Occupied --
-88.879 -88.869 -10.239 -10.229 -10.194  -7.942  -7.932  -5.907
 -5.903  -5.897  -5.897  -5.893  -5.886  -0.843  -0.761  -0.715
 -0.656  -0.591  -0.484  -0.453  -0.430  -0.424  -0.400  -0.383
 -0.366  -0.324  -0.321  -0.245  -0.235
 -- Virtual --
  0.018   0.040   0.065   0.079   0.096   0.119   0.135   0.154
  0.166   0.171   0.202   0.212   0.328   0.337   0.358   0.367
  0.376   0.396   0.405   0.442   0.494   0.518   0.536   0.563
  0.579   0.647   0.660   0.685   0.726   0.748   0.756   0.783
  0.811   0.820   0.836   0.853   0.870   0.883   0.888   0.928
  0.945   0.962   0.980   1.033   1.089   1.129   1.166   1.210
  1.363   1.376   1.399   1.566   1.609   1.721   1.771   1.821
  1.853   1.924   2.032   2.035   2.062   2.075   2.094   2.095
  2.116   2.123   2.162   2.202   2.235   2.280   2.352   2.438
  2.490   2.586   2.599   2.628   2.721   2.723   2.751   2.774
  2.825   2.859   2.886   3.175   3.232   3.314   3.428   3.457
  3.468   3.970   4.011   4.271   4.446   4.591
 
 Beta MOs
 -- Occupied --
-88.879 -88.869 -10.239 -10.229 -10.194  -7.942  -7.932  -5.907
 -5.903  -5.897  -5.897  -5.893  -5.886  -0.843  -0.761  -0.715
 -0.656  -0.591  -0.484  -0.453  -0.430  -0.424  -0.400  -0.383
 -0.366  -0.324  -0.321  -0.245  -0.235
 -- Virtual --
  0.018   0.040   0.065   0.079   0.096   0.119   0.135   0.154
  0.166   0.171   0.202   0.212   0.328   0.337   0.358   0.367
  0.376   0.396   0.405   0.442   0.494   0.518   0.536   0.563
  0.579   0.647   0.660   0.685   0.726   0.748   0.756   0.783
  0.811   0.820   0.836   0.853   0.870   0.883   0.888   0.928
  0.945   0.962   0.980   1.033   1.089   1.129   1.166   1.210
  1.363   1.376   1.399   1.566   1.609   1.721   1.771   1.821
  1.853   1.924   2.032   2.035   2.062   2.075   2.094   2.095
  2.116   2.123   2.162   2.202   2.235   2.280   2.352   2.438
  2.490   2.586   2.599   2.628   2.721   2.723   2.751   2.774
  2.825   2.859   2.886   3.175   3.232   3.314   3.428   3.457
  3.468   3.970   4.011   4.271   4.446   4.591
 --------------------------------------------------------------
 
          Ground-State Mulliken Net Atomic Charges

     Atom                 Charge (a.u.)    Spin (a.u.)
  --------------------------------------------------------
      1 S                    -0.042247       0.000000
      2 S                    -0.043972       0.000000
      3 C                    -0.204044       0.000000
      4 C                    -0.322612       0.000000
      5 C                    -0.307845       0.000000
      6 H                     0.155117      -0.000000
      7 H                     0.135624       0.000000
      8 H                     0.145126      -0.000000
      9 H                     0.106579      -0.000000
     10 H                     0.108876       0.000000
     11 H                     0.130155      -0.000000
     12 H                     0.058227      -0.000000
     13 H                     0.081015      -0.000000
  --------------------------------------------------------
  Sum of atomic charges =    -0.000000
  Sum of spin   charges =     0.000000

 -----------------------------------------------------------------
                    Cartesian Multipole Moments
 -----------------------------------------------------------------
    Charge (ESU x 10^10)
                -0.0000
    Dipole Moment (Debye)
         X       1.7224      Y       1.3979      Z       1.0471
       Tot       2.4530
    Quadrupole Moments (Debye-Ang)
        XX     -53.2230     XY       2.5303     YY     -47.4794
        XZ      -0.4609     YZ      -2.3302     ZZ     -44.8941
    Octopole Moments (Debye-Ang^2)
       XXX      43.4654    XXY       8.6172    XYY       3.8472
       YYY      39.9574    XXZ      -1.6154    XYZ       0.5731
       YYZ       0.6838    XZZ      14.4077    YZZ       8.4765
       ZZZ      -2.9942
    Hexadecapole Moments (Debye-Ang^3)
      XXXX    -751.3241   XXXY      33.6731   XXYY    -176.8919
      XYYY      14.7589   YYYY    -362.3460   XXXZ      -4.9527
      XXYZ      -2.6142   XYYZ       0.0567   YYYZ      -1.0543
      XXZZ    -139.8968   XYZZ       1.1698   YYZZ     -71.5973
      XZZZ      -6.7603   YZZZ       5.4019   ZZZZ     -91.9179
 -----------------------------------------------------------------
 Calculating analytic gradient of the SCF energy
 Gradient of SCF Energy
            1           2           3           4           5           6
    1   0.0002227   0.0141548  -0.0084846  -0.0006409  -0.0059392   0.0024780
    2   0.0147686  -0.0076285  -0.0094234   0.0047502  -0.0073493   0.0058484
    3   0.0084502   0.0045173  -0.0116582  -0.0005776   0.0044183  -0.0018788
            7           8           9          10          11          12
    1  -0.0032202   0.0024903   0.0002295   0.0005791   0.0018568  -0.0018755
    2  -0.0010194   0.0011742  -0.0018446   0.0009799   0.0003233  -0.0026893
    3   0.0010187   0.0011999  -0.0003271   0.0008242  -0.0018397  -0.0037968
           13
    1  -0.0018506
    2   0.0021097
    3  -0.0003504
 Max gradient component =       1.477E-02
 RMS gradient           =       5.331E-03
 Gradient time:  CPU 11.68 s  wall 1.02 s
 Geometry Optimization Parameters
   NAtoms,    NIC,     NZ,  NCons,   NDum,   NFix, NCnnct, MaxDiis
       13      82       0       1       0       0       0       0


** CONSTRAINED OPTIMIZATION IN DELOCALIZED INTERNAL COORDINATES **
   Searching for a Minimum

   Optimization Cycle:   1

                       Coordinates (Angstroms)
     ATOM                X               Y               Z
      1  S         0.6530000000   -1.6551000000    0.1361000000
      2  S        -2.2737000000   -0.0427000000   -0.1035000000
      3  C         0.5138000000    0.1015000000   -0.3613000000
      4  C        -0.6970000000    0.7789000000    0.2925000000
      5  C         1.8039000000    0.8174000000    0.0363000000
      6  H         0.4141000000    0.1309000000   -1.4524000000
      7  H        -0.5924000000    0.8044000000    1.3832000000
      8  H        -0.7706000000    1.8169000000   -0.0497000000
      9  H         1.7684000000    1.8662000000   -0.2789000000
     10  H         1.9624000000    0.8050000000    1.1207000000
     11  H         2.6774000000    0.3636000000   -0.4454000000
     12  H         0.7551000000   -1.4375000000    1.4557000000
     13  H        -1.9747000000   -1.2245000000    0.4557000000
   Point Group: c1    Number of degrees of freedom:    33


   Energy is   -915.522008679

              Constraints and their Current Values
                                        Value     Constraint
   Distance(Angs):        2  13             1.341177     1.000000

 Attempting to Generate Delocalized Internal Coordinates
**WARNING** Constraint Gradient Reduced for constraint   1

   Using Lagrange Multiplier Algorithm


 34 Hessian modes will be used to form the next step
  Hessian Eigenvalues:
    -0.876986    0.045000    0.045000    0.045000    0.045000    0.075919
     0.076295    0.078850    0.081805    0.083482    0.084194    0.094223
     0.127259    0.144645    0.160000    0.160000    0.160000    0.160000
     0.160000    0.176672    0.204035    0.220629    0.238218    0.244944
     0.263175    0.290806    0.296036    0.341239    0.341283    0.341292
     0.341409    0.341604    0.341929    1.140269

 Minimum Search - Taking P-RFO Step
 Searching for Lamda that Maximizes Along the Constraint modes Only
 Value Taken    Lamda =   0.05533056


 ********************************************
 ** ERROR IN DETERMINING Lamda IN CONFormD **
 ********************************************


 ** Scaling Hessian by  2.459136 **


 34 Hessian modes will be used to form the next step
  Hessian Eigenvalues:
    -0.727370    0.110661    0.110661    0.110661    0.110661    0.186696
     0.187621    0.193903    0.201171    0.205293    0.207044    0.231708
     0.312946    0.355702    0.393462    0.393462    0.393462    0.393462
     0.393462    0.434460    0.501749    0.542556    0.585811    0.602349
     0.647184    0.715132    0.727994    0.839152    0.839260    0.839284
     0.839572    0.840050    0.840849    1.374817

 Minimum Search - Taking P-RFO Step
 Searching for Lamda that Maximizes Along the Constraint modes Only
 Value Taken    Lamda =   0.07427560
 Searching for Lamda that Minimizes Along All other modes
 Value Taken    Lamda =  -0.02442983
 Step Taken.  Stepsize is  0.294831

                             Maximum     Tolerance    Cnvgd?
         Gradient            0.300000       0.000300      NO
         Displacement        0.279924       0.001200      NO
         Energy change     *********       0.000001      NO


 New Cartesian Coordinates Obtained by Inverse Iteration

 Displacement from previous Coordinates is:  0.388431
 ----------------------------------------------------------------
             Standard Nuclear Orientation (Angstroms)
    I     Atom           X                Y                Z
 ----------------------------------------------------------------
    1      S       0.7011752471    -1.6874257279     0.1398935644
    2      S      -2.3041964200    -0.0384000257    -0.0922083080
    3      C       0.5245303316     0.0783244612    -0.3465573740
    4      C      -0.7000741384     0.7480424310     0.3002736441
    5      C       1.8039180525     0.8291866897     0.0361785644
    6      H       0.4151640274     0.0943014968    -1.4359003722
    7      H      -0.5857917339     0.7836275112     1.3892981297
    8      H      -0.7764072904     1.7825322536    -0.0507517275
    9      H       1.7440383594     1.8761565555    -0.2848961683
   10      H       1.9673775734     0.8255335506     1.1193569233
   11      H       2.6826509890     0.3889739275    -0.4456320858
   12      H       0.8202316710    -1.4601409377     1.4599001880
   13      H      -2.0529166687    -1.0957121858     0.4000450220
 ----------------------------------------------------------------
 Nuclear Repulsion Energy =   289.2802944380 hartrees
 There are       29 alpha and       29 beta electrons

                       Distance Matrix (Angstroms)
             S (  1)   S (  2)   C (  3)   C (  4)   C (  5)   H (  6)
   S (  2)  3.435901
   C (  3)  1.840030  2.842536
   C (  4)  2.814379  1.829137  1.538366
   C (  5)  2.749570  4.200690  1.532029  2.519188
   H (  6)  2.395721  3.036122  1.094936  2.164586  2.153070
   H (  7)  3.053424  2.413194  2.177949  1.095583  2.746584  3.075521
   H (  8)  3.776269  2.377320  2.164316  1.095087  2.752182  2.487690
   H (  9)  3.737262  4.482283  2.173293  2.754769  1.096732  2.503143
   H ( 10)  2.979527  4.523341  2.188386  2.791451  1.095449  3.077890
   H ( 11)  2.929253  5.017589  2.182614  3.482547  1.094578  2.491779
   H ( 12)  1.344712  3.767285  2.391151  2.920982  2.869781  3.311500
   H ( 13)  2.828927  1.193048  2.928995  2.289010  4.325830  3.298219
             H (  7)   H (  8)   H (  9)   H ( 10)   H ( 11)   H ( 12)
   H (  8)  1.762920
   H (  9)  3.069960  2.533029
   H ( 10)  2.567742  3.132628  1.767941
   H ( 11)  3.769010  3.750069  1.765939  1.775216
   H ( 12)  2.648846  3.917430  3.876676  2.579965  3.243283
   H ( 13)  2.581278  3.180721  4.870115  4.513464  5.034388  3.084004

 
 Applying Cartesian multipole field
    Component          Value
    ---------          -----
     (2,0,0)        1.00000E-11
     (0,2,0)        2.00000E-11
     (0,0,2)       -3.00000E-10
 Nucleus-field energy     =    -0.0000000007 hartrees
 Requested basis set is 6-31G(d,p)
 There are 46 shells and 123 basis functions
 A cutoff of  1.0D-14 yielded   1031 shell pairs
 There are      7534 function pairs
 Smallest overlap matrix eigenvalue = 5.44E-03
 Guess from superposition of atomic densities
 Warning:  Energy on first SCF cycle will be non-variational
 SAD guess density has 58.000000 electrons

 -----------------------------------------------------------------------
  General SCF calculation program by
  Eric Jon Sundstrom, Paul Horn, Yuezhi Mao, Dmitri Zuev, Alec White,
  David Stuck, Shaama M.S., Shane Yost, Joonho Lee, David Small,
  Daniel Levine, Susi Lehtola, Hugh Burton, Evgeny Epifanovsky
 -----------------------------------------------------------------------
 Exchange:     0.2000 Hartree-Fock + 0.0800 Slater + 0.7200 B88
 Correlation:  0.1900 VWN1RPA + 0.8100 LYP
 Using SG-1 standard quadrature grid
 using 12 threads for integral computing
 -------------------------------------------------------
 OpenMP Integral computing Module                
 Release: version 1.0, May 2013, Q-Chem Inc. Pittsburgh 
 -------------------------------------------------------
 -------------------------------------------------------
 OpenMP BLAS3 based DFT computing Module                
 Release: version 1.0, May 2013, Q-Chem Inc. Pittsburgh 
 -------------------------------------------------------
 A unrestricted SCF calculation will be
 performed using DIIS
 SCF converges when DIIS error is below 1.0e-06
 Alpha HF Exchange    Energy =  -6.87340968567673
 Beta HF Exchange     Energy =  -6.87340968567673
 DFT Correlation      Energy =  -2.71777148890871
 DFT Exchange         Energy = -53.90710064897193
 One-Electron (alpha) Energy = -915.09621843040429
 One-Electron (beta)  Energy = -915.09621843040429
 Total Coulomb        Energy = 695.05633212487942
 ---------------------------------------
  Cycle       Energy         DIIS error
 ---------------------------------------
    1    -916.2275018079      2.91e-02  
 Alpha HF Exchange    Energy =  -6.87449466311659
 Beta HF Exchange     Energy =  -6.87449466311659
 DFT Correlation      Energy =  -2.74489729591806
 DFT Exchange         Energy = -54.53543312274854
 One-Electron (alpha) Energy = -919.17317415083221
 One-Electron (beta)  Energy = -919.17317415083232
 Total Coulomb        Energy = 704.65260568073222
    2    -915.4427679285      2.79e-03  
 Alpha HF Exchange    Energy =  -6.82001946310528
 Beta HF Exchange     Energy =  -6.82001946310528
 DFT Correlation      Energy =  -2.71961220228378
 DFT Exchange         Energy = -54.07516303966301
 One-Electron (alpha) Energy = -915.06394375845753
 One-Electron (beta)  Energy = -915.06394375845798
 Total Coulomb        Energy = 695.85516563337171
    3    -915.4272416144      3.15e-03  
 Alpha HF Exchange    Energy =  -6.84489362852682
 Beta HF Exchange     Energy =  -6.84489362852682
 DFT Correlation      Energy =  -2.73231734830872
 DFT Exchange         Energy = -54.28509048040245
 One-Electron (alpha) Energy = -917.12059536435072
 One-Electron (beta)  Energy = -917.12059536435049
 Total Coulomb        Energy = 700.16119938100599
    4    -915.5068919962      4.83e-04  
 Alpha HF Exchange    Energy =  -6.84629429164749
 Beta HF Exchange     Energy =  -6.84629429164749
 DFT Correlation      Energy =  -2.73231824416456
 DFT Exchange         Energy = -54.29494420826029
 One-Electron (alpha) Energy = -917.15434167171065
 One-Electron (beta)  Energy = -917.15434167171065
 Total Coulomb        Energy = 700.23944258631923
    5    -915.5087973555      1.38e-04  
 Alpha HF Exchange    Energy =  -6.84621634295658
 Beta HF Exchange     Energy =  -6.84621634295658
 DFT Correlation      Energy =  -2.73233627160091
 DFT Exchange         Energy = -54.29454546446524
 One-Electron (alpha) Energy = -917.15791972610634
 One-Electron (beta)  Energy = -917.15791972610612
 Total Coulomb        Energy = 700.24592640331286
    6    -915.5089330336      3.93e-05  
 Alpha HF Exchange    Energy =  -6.84604398318054
 Beta HF Exchange     Energy =  -6.84604398318053
 DFT Correlation      Energy =  -2.73227446063682
 DFT Exchange         Energy = -54.29309276821870
 One-Electron (alpha) Energy = -917.14041482402558
 One-Electron (beta)  Energy = -917.14041482402536
 Total Coulomb        Energy = 700.20904606150555
    7    -915.5089443445      7.35e-06  
 Alpha HF Exchange    Energy =  -6.84609676883035
 Beta HF Exchange     Energy =  -6.84609676883035
 DFT Correlation      Energy =  -2.73229506496770
 DFT Exchange         Energy = -54.29351018524229
 One-Electron (alpha) Energy = -917.14667465929642
 One-Electron (beta)  Energy = -917.14667465929620
 Total Coulomb        Energy = 700.22210887596452
    8    -915.5089447932      1.53e-06  
 Alpha HF Exchange    Energy =  -6.84609032863981
 Beta HF Exchange     Energy =  -6.84609032863981
 DFT Correlation      Energy =  -2.73229229220707
 DFT Exchange         Energy = -54.29345680499226
 One-Electron (alpha) Energy = -917.14578811155593
 One-Electron (beta)  Energy = -917.14578811155559
 Total Coulomb        Energy = 700.22026672682841
    9    -915.5089448135      2.83e-07  Convergence criterion met
 ---------------------------------------
 SCF time:   CPU 29.72s  wall 3.00s 
<S^2> =          0.000000000
 Alpha HF Exchange    Energy =  -6.84609032863981
 Beta HF Exchange     Energy =  -6.84609032863981
 DFT Correlation      Energy =  -2.73229229220707
 DFT Exchange         Energy = -54.29345680499226
 One-Electron (alpha) Energy = -917.14578811155593
 One-Electron (beta)  Energy = -917.14578811155559
 Total Coulomb        Energy = 700.22026672682841
 Nuclear repulsion Energy = 289.28029443728599
 SCF   energy in the final basis set =     -915.5089448135
 Total energy in the final basis set =     -915.5089448135
 
 --------------------------------------------------------------
 
                    Orbital Energies (a.u.)
 --------------------------------------------------------------
 
 Alpha MOs
 -- Occupied --
-88.879 -88.861 -10.239 -10.230 -10.194  -7.942  -7.929  -5.907
 -5.903  -5.897  -5.893  -5.890  -5.883  -0.841  -0.770  -0.714
 -0.667  -0.591  -0.487  -0.453  -0.429  -0.425  -0.400  -0.387
 -0.365  -0.326  -0.324  -0.245  -0.238
 -- Virtual --
  0.016   0.042   0.065   0.094   0.111   0.122   0.138   0.154
  0.166   0.172   0.202   0.212   0.302   0.335   0.357   0.367
  0.373   0.393   0.401   0.444   0.495   0.518   0.535   0.563
  0.578   0.648   0.659   0.682   0.724   0.751   0.753   0.783
  0.804   0.818   0.837   0.850   0.872   0.883   0.887   0.927
  0.944   0.961   0.974   1.028   1.082   1.126   1.200   1.321
  1.369   1.375   1.398   1.567   1.607   1.717   1.770   1.816
  1.851   1.915   2.032   2.038   2.065   2.078   2.098   2.107
  2.119   2.160   2.170   2.221   2.234   2.283   2.354   2.436
  2.490   2.586   2.605   2.629   2.720   2.723   2.746   2.822
  2.859   2.885   3.045   3.175   3.235   3.314   3.428   3.455
  3.470   3.962   4.002   4.266   4.445   4.590
 
 Beta MOs
 -- Occupied --
-88.879 -88.861 -10.239 -10.230 -10.194  -7.942  -7.929  -5.907
 -5.903  -5.897  -5.893  -5.890  -5.883  -0.841  -0.770  -0.714
 -0.667  -0.591  -0.487  -0.453  -0.429  -0.425  -0.400  -0.387
 -0.365  -0.326  -0.324  -0.245  -0.238
 -- Virtual --
  0.016   0.042   0.065   0.094   0.111   0.122   0.138   0.154
  0.166   0.172   0.202   0.212   0.302   0.335   0.357   0.367
  0.373   0.393   0.401   0.444   0.495   0.518   0.535   0.563
  0.578   0.648   0.659   0.682   0.724   0.751   0.753   0.783
  0.804   0.818   0.837   0.850   0.872   0.883   0.887   0.927
  0.944   0.961   0.974   1.028   1.082   1.126   1.200   1.321
  1.369   1.375   1.398   1.567   1.607   1.717   1.770   1.816
  1.851   1.915   2.032   2.038   2.065   2.078   2.098   2.107
  2.119   2.160   2.170   2.221   2.234   2.283   2.354   2.436
  2.490   2.586   2.605   2.629   2.720   2.723   2.746   2.822
  2.859   2.885   3.045   3.175   3.235   3.314   3.428   3.455
  3.470   3.962   4.002   4.266   4.445   4.590
 --------------------------------------------------------------
 
          Ground-State Mulliken Net Atomic Charges

     Atom                 Charge (a.u.)    Spin (a.u.)
  --------------------------------------------------------
      1 S                    -0.043034       0.000000
      2 S                    -0.035026      -0.000000
      3 C                    -0.206470      -0.000000
      4 C                    -0.321960       0.000000
      5 C                    -0.308321       0.000000
      6 H                     0.153930      -0.000000
      7 H                     0.134644      -0.000000
      8 H                     0.144577      -0.000000
      9 H                     0.107886      -0.000000
     10 H                     0.109350      -0.000000
     11 H                     0.130849      -0.000000
     12 H                     0.056759       0.000000
     13 H                     0.076816       0.000000
  --------------------------------------------------------
  Sum of atomic charges =    -0.000000
  Sum of spin   charges =    -0.000000

 -----------------------------------------------------------------
                    Cartesian Multipole Moments
 -----------------------------------------------------------------
    Charge (ESU x 10^10)
                 0.0000
    Dipole Moment (Debye)
         X       1.6540      Y       1.3672      Z       1.0468
       Tot       2.3876
    Quadrupole Moments (Debye-Ang)
        XX     -52.8420     XY       2.7281     YY     -47.5908
        XZ      -0.4166     YZ      -2.2320     ZZ     -44.8517
    Octopole Moments (Debye-Ang^2)
       XXX      41.1331    XXY       8.5042    XYY       3.5994
       YYY      41.4378    XXZ      -1.4178    XYZ       0.3685
       YYZ       0.2585    XZZ      14.0494    YZZ       8.7899
       ZZZ      -3.6266
    Hexadecapole Moments (Debye-Ang^3)
      XXXX    -764.1061   XXXY      41.5925   XXYY    -180.1702
      XYYY      19.2339   YYYY    -368.4561   XXXZ      -5.9596
      XXYZ      -3.0123   XYYZ       0.6450   YYYZ      -0.8316
      XXZZ    -142.2101   XYZZ       2.7283   YYZZ     -72.2963
      XZZZ      -6.6877   YZZZ       5.4739   ZZZZ     -91.2663
 -----------------------------------------------------------------
 Calculating analytic gradient of the SCF energy
 Gradient of SCF Energy
            1           2           3           4           5           6
    1   0.0024944   0.0300499  -0.0052071  -0.0010998  -0.0029854   0.0016878
    2   0.0081982  -0.1070562  -0.0077333   0.0030139  -0.0059917   0.0049261
    3   0.0054564   0.0505466  -0.0087122   0.0003945   0.0038944  -0.0009256
            7           8           9          10          11          12
    1  -0.0015291   0.0008257   0.0004452   0.0003726   0.0013224  -0.0014399
    2  -0.0004822   0.0006322  -0.0007823   0.0007668   0.0006178  -0.0013031
    3   0.0005282   0.0003829  -0.0003589   0.0003770  -0.0012922  -0.0022228
           13
    1  -0.0249367
    2   0.1051939
    3  -0.0480684
 Max gradient component =       1.071E-01
 RMS gradient           =       2.741E-02
 Gradient time:  CPU 11.86 s  wall 1.05 s
 Geometry Optimization Parameters
   NAtoms,    NIC,     NZ,  NCons,   NDum,   NFix, NCnnct, MaxDiis
       13      82       0       1       0       0       0       0

 Cartesian Hessian Update
 Hessian Updated using BFGS Update


** CONSTRAINED OPTIMIZATION IN DELOCALIZED INTERNAL COORDINATES **
   Searching for a Minimum

   Optimization Cycle:   2

                       Coordinates (Angstroms)
     ATOM                X               Y               Z
      1  S         0.7011752471   -1.6874257279    0.1398935644
      2  S        -2.3041964200   -0.0384000257   -0.0922083080
      3  C         0.5245303316    0.0783244612   -0.3465573740
      4  C        -0.7000741384    0.7480424310    0.3002736441
      5  C         1.8039180525    0.8291866897    0.0361785644
      6  H         0.4151640274    0.0943014968   -1.4359003722
      7  H        -0.5857917339    0.7836275112    1.3892981297
      8  H        -0.7764072904    1.7825322536   -0.0507517275
      9  H         1.7440383594    1.8761565555   -0.2848961683
     10  H         1.9673775734    0.8255335506    1.1193569233
     11  H         2.6826509890    0.3889739275   -0.4456320858
     12  H         0.8202316710   -1.4601409377    1.4599001880
     13  H        -2.0529166687   -1.0957121858    0.4000450220
   Point Group: c1    Number of degrees of freedom:    33


   Energy is   -915.508944813

              Constraints and their Current Values
                                        Value     Constraint
   Distance(Angs):        2  13             1.193048     1.000000
 Hessian Updated using BFGS Update
**WARNING** Constraint Gradient Reduced for constraint   1

   Using Lagrange Multiplier Algorithm


 29 Hessian modes will be used to form the next step
  Hessian Eigenvalues:
    -0.809691    0.110369    0.110666    0.185994    0.187587    0.192654
     0.201140    0.205270    0.207026    0.231697    0.312950    0.355259
     0.393211    0.393693    0.435143    0.500883    0.540322    0.584442
     0.601613    0.646928    0.715452    0.727642    0.839098    0.839252
     0.839277    0.839496    0.840032    0.840843    1.237911

 Minimum Search - Taking P-RFO Step
 Searching for Lamda that Maximizes Along the Constraint modes Only
 Value Taken    Lamda =   0.04600157
 Searching for Lamda that Minimizes Along All other modes
 Value Taken    Lamda =  -0.04386911
 Calculated Step too Large.  Step scaled by  0.995903
 Step Taken.  Stepsize is  0.300000

                             Maximum     Tolerance    Cnvgd?
         Gradient            0.300000       0.000300      NO
         Displacement        0.285426       0.001200      NO
         Energy change      0.013064       0.000001      NO


 New Cartesian Coordinates Obtained by Inverse Iteration

 Displacement from previous Coordinates is:  0.349130
 ----------------------------------------------------------------
             Standard Nuclear Orientation (Angstroms)
    I     Atom           X                Y                Z
 ----------------------------------------------------------------
    1      S       0.7276092889    -1.7174138845     0.1445535462
    2      S      -2.3196673892    -0.0457174907    -0.0834307177
    3      C       0.5349665306     0.0598803643    -0.3291357000
    4      C      -0.6986910160     0.7206581889     0.3110157941
    5      C       1.8043103461     0.8442298700     0.0339565643
    6      H       0.4131287122     0.0572487922    -1.4162878450
    7      H      -0.5763982881     0.7648904527     1.3984386587
    8      H      -0.7797053811     1.7515747496    -0.0478562913
    9      H       1.7205443010     1.8878648852    -0.2951573670
   10      H       1.9737525888     0.8508065532     1.1156978747
   11      H       2.6851711266     0.4128201211    -0.4482065387
   12      H       0.8690745465    -1.4863474239     1.4655743763
   13      H      -2.1143953663    -0.9754951781     0.3398376454
 ----------------------------------------------------------------
 Nuclear Repulsion Energy =   288.7520014966 hartrees
 There are       29 alpha and       29 beta electrons

                       Distance Matrix (Angstroms)
             S (  1)   S (  2)   C (  3)   C (  4)   C (  5)   H (  6)
   S (  2)  3.483165
   C (  3)  1.849397  2.867134
   C (  4)  2.829530  1.835888  1.538939
   C (  5)  2.780924  4.220542  1.535667  2.521319
   H (  6)  2.384230  3.042250  1.093961  2.158665  2.158225
   H (  7)  3.071563  2.427346  2.171793  1.095171  2.745156  3.066367
   H (  8)  3.787202  2.367067  2.160859  1.094596  2.739910  2.483183
   H (  9)  3.765276  4.484070  2.179054  2.753637  1.097500  2.513449
   H ( 10)  3.015253  4.546990  2.187056  2.793995  1.094951  3.078349
   H ( 11)  2.953186  5.039020  2.182229  3.481624  1.092937  2.495153
   H ( 12)  1.348518  3.826605  2.392370  2.943088  2.890638  3.300864
   H ( 13)  2.943734  1.042007  2.922096  2.209522  4.331422  3.246369
             H (  7)   H (  8)   H (  9)   H ( 10)   H ( 11)   H ( 12)
   H (  8)  1.762569
   H (  9)  3.066804  2.516144
   H ( 10)  2.567215  3.121982  1.769214
   H ( 11)  3.764557  3.736029  1.769092  1.773061
   H ( 12)  2.676186  3.936126  3.900062  2.608643  3.250785
   H ( 13)  2.552452  3.060819  4.827920  4.544259  5.058090  3.229450

 
 Applying Cartesian multipole field
    Component          Value
    ---------          -----
     (2,0,0)        1.00000E-11
     (0,2,0)        2.00000E-11
     (0,0,2)       -3.00000E-10
 Nucleus-field energy     =    -0.0000000004 hartrees
 Requested basis set is 6-31G(d,p)
 There are 46 shells and 123 basis functions
 A cutoff of  1.0D-14 yielded   1030 shell pairs
 There are      7531 function pairs
 Smallest overlap matrix eigenvalue = 5.52E-03
 Guess from superposition of atomic densities
 Warning:  Energy on first SCF cycle will be non-variational
 SAD guess density has 58.000000 electrons

 -----------------------------------------------------------------------
  General SCF calculation program by
  Eric Jon Sundstrom, Paul Horn, Yuezhi Mao, Dmitri Zuev, Alec White,
  David Stuck, Shaama M.S., Shane Yost, Joonho Lee, David Small,
  Daniel Levine, Susi Lehtola, Hugh Burton, Evgeny Epifanovsky
 -----------------------------------------------------------------------
 Exchange:     0.2000 Hartree-Fock + 0.0800 Slater + 0.7200 B88
 Correlation:  0.1900 VWN1RPA + 0.8100 LYP
 Using SG-1 standard quadrature grid
 using 12 threads for integral computing
 -------------------------------------------------------
 OpenMP Integral computing Module                
 Release: version 1.0, May 2013, Q-Chem Inc. Pittsburgh 
 -------------------------------------------------------
 -------------------------------------------------------
 OpenMP BLAS3 based DFT computing Module                
 Release: version 1.0, May 2013, Q-Chem Inc. Pittsburgh 
 -------------------------------------------------------
 A unrestricted SCF calculation will be
 performed using DIIS
 SCF converges when DIIS error is below 1.0e-06
 Alpha HF Exchange    Energy =  -6.88073444691680
 Beta HF Exchange     Energy =  -6.88073444691680
 DFT Correlation      Energy =  -2.71874268924708
 DFT Exchange         Energy = -53.92713757591156
 One-Electron (alpha) Energy = -914.39827423284476
 One-Electron (beta)  Energy = -914.39827423284476
 Total Coulomb        Energy = 694.17963510225627
 ---------------------------------------
  Cycle       Energy         DIIS error
 ---------------------------------------
    1    -916.2722610263      3.02e-02  
 Alpha HF Exchange    Energy =  -6.88141085672128
 Beta HF Exchange     Energy =  -6.88141085672128
 DFT Correlation      Energy =  -2.74654132627116
 DFT Exchange         Energy = -54.58765438308473
 One-Electron (alpha) Energy = -918.59576496724094
 One-Electron (beta)  Energy = -918.59576496724060
 Total Coulomb        Energy = 704.15770378814955
    2    -915.3788420730      2.77e-03  
 Alpha HF Exchange    Energy =  -6.82567795406754
 Beta HF Exchange     Energy =  -6.82567795406754
 DFT Correlation      Energy =  -2.72125913848545
 DFT Exchange         Energy = -54.11809984227378
 One-Electron (alpha) Energy = -914.45564648646678
 One-Electron (beta)  Energy = -914.45564648646700
 Total Coulomb        Energy = 695.28137479625877
    3    -915.3686315694      3.04e-03  
 Alpha HF Exchange    Energy =  -6.85071744969208
 Beta HF Exchange     Energy =  -6.85071744969207
 DFT Correlation      Energy =  -2.73383433343200
 DFT Exchange         Energy = -54.32900608403869
 One-Electron (alpha) Energy = -916.49566257958986
 One-Electron (beta)  Energy = -916.49566257958963
 Total Coulomb        Energy = 699.56079771840666
    4    -915.4428012615      4.90e-04  
 Alpha HF Exchange    Energy =  -6.85208679403150
 Beta HF Exchange     Energy =  -6.85208679403148
 DFT Correlation      Energy =  -2.73378323067075
 DFT Exchange         Energy = -54.33848868044574
 One-Electron (alpha) Energy = -916.52722601458106
 One-Electron (beta)  Energy = -916.52722601458061
 Total Coulomb        Energy = 699.63412572962750
    5    -915.4447703025      1.41e-04  
 Alpha HF Exchange    Energy =  -6.85202128745422
 Beta HF Exchange     Energy =  -6.85202128745423
 DFT Correlation      Energy =  -2.73381248049573
 DFT Exchange         Energy = -54.33821541801554
 One-Electron (alpha) Energy = -916.53166649451452
 One-Electron (beta)  Energy = -916.53166649451543
 Total Coulomb        Energy = 699.64248869772427
    6    -915.4449132686      4.13e-05  
 Alpha HF Exchange    Energy =  -6.85185391143747
 Beta HF Exchange     Energy =  -6.85185391143746
 DFT Correlation      Energy =  -2.73375208253324
 DFT Exchange         Energy = -54.33680196614644
 One-Electron (alpha) Energy = -916.51443132409383
 One-Electron (beta)  Energy = -916.51443132409349
 Total Coulomb        Energy = 699.60619724085279
    7    -915.4449257827      7.34e-06  
 Alpha HF Exchange    Energy =  -6.85190081894842
 Beta HF Exchange     Energy =  -6.85190081894841
 DFT Correlation      Energy =  -2.73377060547998
 DFT Exchange         Energy = -54.33717185510352
 One-Electron (alpha) Energy = -916.52025699153648
 One-Electron (beta)  Energy = -916.52025699153569
 Total Coulomb        Energy = 699.61833036436201
    8    -915.4449262210      1.66e-06  
 Alpha HF Exchange    Energy =  -6.85189439110906
 Beta HF Exchange     Energy =  -6.85189439110905
 DFT Correlation      Energy =  -2.73376779735558
 DFT Exchange         Energy = -54.33711847960959
 One-Electron (alpha) Energy = -916.51935918428489
 One-Electron (beta)  Energy = -916.51935918428467
 Total Coulomb        Energy = 699.61646568730464
    9    -915.4449262443      3.52e-07  Convergence criterion met
 ---------------------------------------
 SCF time:   CPU 29.58s  wall 3.00s 
<S^2> =         -0.000000000
 Alpha HF Exchange    Energy =  -6.85189439110906
 Beta HF Exchange     Energy =  -6.85189439110905
 DFT Correlation      Energy =  -2.73376779735558
 DFT Exchange         Energy = -54.33711847960959
 One-Electron (alpha) Energy = -916.51935918428489
 One-Electron (beta)  Energy = -916.51935918428467
 Total Coulomb        Energy = 699.61646568730464
 Nuclear repulsion Energy = 288.75200149617342
 SCF   energy in the final basis set =     -915.4449262443
 Total energy in the final basis set =     -915.4449262443
 
 --------------------------------------------------------------
 
                    Orbital Energies (a.u.)
 --------------------------------------------------------------
 
 Alpha MOs
 -- Occupied --
-88.880 -88.849 -10.240 -10.230 -10.195  -7.943  -7.926  -5.907
 -5.904  -5.897  -5.890  -5.886  -5.879  -0.842  -0.784  -0.715
 -0.680  -0.592  -0.489  -0.453  -0.430  -0.425  -0.400  -0.389
 -0.363  -0.328  -0.325  -0.246  -0.241
 -- Virtual --
  0.014   0.040   0.064   0.094   0.118   0.132   0.147   0.160
  0.166   0.177   0.202   0.214   0.272   0.335   0.357   0.365
  0.374   0.392   0.397   0.448   0.494   0.516   0.534   0.562
  0.578   0.649   0.660   0.680   0.722   0.749   0.758   0.779
  0.802   0.818   0.837   0.846   0.872   0.884   0.887   0.927
  0.942   0.960   0.971   1.023   1.075   1.122   1.191   1.362
  1.374   1.399   1.548   1.568   1.616   1.714   1.769   1.812
  1.850   1.909   2.032   2.040   2.065   2.077   2.098   2.112
  2.116   2.160   2.236   2.256   2.275   2.286   2.362   2.437
  2.491   2.588   2.612   2.631   2.717   2.725   2.741   2.824
  2.860   2.885   3.176   3.228   3.307   3.314   3.428   3.454
  3.473   3.937   3.988   4.262   4.443   4.588
 
 Beta MOs
 -- Occupied --
-88.880 -88.849 -10.240 -10.230 -10.195  -7.943  -7.926  -5.907
 -5.904  -5.897  -5.890  -5.886  -5.879  -0.842  -0.784  -0.715
 -0.680  -0.592  -0.489  -0.453  -0.430  -0.425  -0.400  -0.389
 -0.363  -0.328  -0.325  -0.246  -0.241
 -- Virtual --
  0.014   0.040   0.064   0.094   0.118   0.132   0.147   0.160
  0.166   0.177   0.202   0.214   0.272   0.335   0.357   0.365
  0.374   0.392   0.397   0.448   0.494   0.516   0.534   0.562
  0.578   0.649   0.660   0.680   0.722   0.749   0.758   0.779
  0.802   0.818   0.837   0.846   0.872   0.884   0.887   0.927
  0.942   0.960   0.971   1.023   1.075   1.122   1.191   1.362
  1.374   1.399   1.548   1.568   1.616   1.714   1.769   1.812
  1.850   1.909   2.032   2.040   2.065   2.077   2.098   2.112
  2.116   2.160   2.236   2.256   2.275   2.286   2.362   2.437
  2.491   2.588   2.612   2.631   2.717   2.725   2.741   2.824
  2.860   2.885   3.176   3.228   3.307   3.314   3.428   3.454
  3.473   3.937   3.988   4.262   4.443   4.588
 --------------------------------------------------------------
 
          Ground-State Mulliken Net Atomic Charges

     Atom                 Charge (a.u.)    Spin (a.u.)
  --------------------------------------------------------
      1 S                    -0.043977       0.000000
      2 S                    -0.017589       0.000000
      3 C                    -0.208606       0.000000
      4 C                    -0.319821       0.000000
      5 C                    -0.308724       0.000000
      6 H                     0.153204      -0.000000
      7 H                     0.134114      -0.000000
      8 H                     0.144721      -0.000000
      9 H                     0.109903       0.000000
     10 H                     0.109981      -0.000000
     11 H                     0.131477      -0.000000
     12 H                     0.056147      -0.000000
     13 H                     0.059170       0.000000
  --------------------------------------------------------
  Sum of atomic charges =    -0.000000
  Sum of spin   charges =     0.000000

 -----------------------------------------------------------------
                    Cartesian Multipole Moments
 -----------------------------------------------------------------
    Charge (ESU x 10^10)
                 0.0000
    Dipole Moment (Debye)
         X       1.6415      Y       1.3475      Z       1.0491
       Tot       2.3687
    Quadrupole Moments (Debye-Ang)
        XX     -52.5672     XY       2.8967     YY     -47.5892
        XZ      -0.3650     YZ      -2.1264     ZZ     -44.7894
    Octopole Moments (Debye-Ang^2)
       XXX      39.3513    XXY       8.6323    XYY       3.3640
       YYY      43.0259    XXZ      -1.3141    XYZ       0.1134
       YYZ      -0.0894    XZZ      13.6688    YZZ       9.1945
       ZZZ      -4.2432
    Hexadecapole Moments (Debye-Ang^3)
      XXXX    -769.3142   XXXY      46.2317   XXYY    -182.2886
      XYYY      21.5969   YYYY    -374.5043   XXXZ      -6.7993
      XXYZ      -3.0543   XYYZ       1.0832   YYYZ      -0.6490
      XXZZ    -143.1044   XYZZ       3.4719   YYZZ     -73.0779
      XZZZ      -6.5958   YZZZ       5.6537   ZZZZ     -90.7504
 -----------------------------------------------------------------
 Calculating analytic gradient of the SCF energy
 Gradient of SCF Energy
            1           2           3           4           5           6
    1   0.0024100   0.0717118  -0.0026284  -0.0003575  -0.0002599   0.0008646
    2   0.0019541  -0.3263896  -0.0053144   0.0017362  -0.0030674   0.0035231
    3   0.0021232   0.1486690  -0.0051056   0.0007729   0.0029165   0.0000026
            7           8           9          10          11          12
    1   0.0001464  -0.0002705   0.0006031   0.0000825   0.0004036  -0.0010875
    2  -0.0000736   0.0000875   0.0002727   0.0004607   0.0006850   0.0000159
    3  -0.0000344  -0.0002581  -0.0002747  -0.0000527  -0.0006648  -0.0005534
           13
    1  -0.0716183
    2   0.3261099
    3  -0.1475406
 Max gradient component =       3.264E-01
 RMS gradient           =       8.276E-02
 Gradient time:  CPU 11.84 s  wall 1.05 s
 Geometry Optimization Parameters
   NAtoms,    NIC,     NZ,  NCons,   NDum,   NFix, NCnnct, MaxDiis
       13      82       0       1       0       0       0       0

 Cartesian Hessian Update
 Hessian Updated using BFGS Update


** CONSTRAINED OPTIMIZATION IN DELOCALIZED INTERNAL COORDINATES **
   Searching for a Minimum

   Optimization Cycle:   3

                       Coordinates (Angstroms)
     ATOM                X               Y               Z
      1  S         0.7276092889   -1.7174138845    0.1445535462
      2  S        -2.3196673892   -0.0457174907   -0.0834307177
      3  C         0.5349665306    0.0598803643   -0.3291357000
      4  C        -0.6986910160    0.7206581889    0.3110157941
      5  C         1.8043103461    0.8442298700    0.0339565643
      6  H         0.4131287122    0.0572487922   -1.4162878450
      7  H        -0.5763982881    0.7648904527    1.3984386587
      8  H        -0.7797053811    1.7515747496   -0.0478562913
      9  H         1.7205443010    1.8878648852   -0.2951573670
     10  H         1.9737525888    0.8508065532    1.1156978747
     11  H         2.6851711266    0.4128201211   -0.4482065387
     12  H         0.8690745465   -1.4863474239    1.4655743763
     13  H        -2.1143953663   -0.9754951781    0.3398376454
   Point Group: c1    Number of degrees of freedom:    33


   Energy is   -915.444926244

              Constraints and their Current Values
                                        Value     Constraint
   Distance(Angs):        2  13             1.042007     1.000000
 Hessian Updated using BFGS Update

   Using Lagrange Multiplier Algorithm


 31 Hessian modes will be used to form the next step
  Hessian Eigenvalues:
    -0.653533    0.110266    0.110661    0.110667    0.185724    0.187593
     0.192098    0.201128    0.205261    0.207028    0.231651    0.312950
     0.355174    0.393170    0.393469    0.393697    0.435035    0.500544
     0.540211    0.583996    0.601518    0.646843    0.715493    0.727636
     0.839096    0.839251    0.839276    0.839475    0.840039    0.840840
     1.533789

 Minimum Search - Taking P-RFO Step
 Searching for Lamda that Maximizes Along the Constraint modes Only
 Value Taken    Lamda =   0.02739933
 Searching for Lamda that Minimizes Along All other modes
 Value Taken    Lamda =  -0.00305206
 Step Taken.  Stepsize is  0.090266

                             Maximum     Tolerance    Cnvgd?
         Gradient            0.128628       0.000300      NO
         Displacement        0.189316       0.001200      NO
         Energy change      0.064019       0.000001      NO


 New Cartesian Coordinates Obtained by Inverse Iteration

 Displacement from previous Coordinates is:  0.109728
 ----------------------------------------------------------------
             Standard Nuclear Orientation (Angstroms)
    I     Atom           X                Y                Z
 ----------------------------------------------------------------
    1      S       0.7263693157    -1.7253055698     0.1481855317
    2      S      -2.3190353602    -0.0473780014    -0.0872974128
    3      C       0.5375284902     0.0569264589    -0.3191419808
    4      C      -0.6975341185     0.7149608876     0.3177108942
    5      C       1.8049618165     0.8503893925     0.0314271844
    6      H       0.4085433383     0.0430908692    -1.4053432907
    7      H      -0.5773652582     0.7609415626     1.4052620845
    8      H      -0.7785696552     1.7451980708    -0.0424745087
    9      H       1.7129178069     1.8914966768    -0.3029485257
   10      H       1.9789574137     0.8623664923     1.1123685423
   11      H       2.6841510281     0.4176090896    -0.4514570771
   12      H       0.8865576312    -1.4992997831     1.4691177977
   13      H      -2.1277824485    -0.9459961458     0.3135907608
 ----------------------------------------------------------------
 Nuclear Repulsion Energy =   288.8500089710 hartrees
 There are       29 alpha and       29 beta electrons

                       Distance Matrix (Angstroms)
             S (  1)   S (  2)   C (  3)   C (  4)   C (  5)   H (  6)
   S (  2)  3.485023
   C (  3)  1.852136  2.867854
   C (  4)  2.830396  1.836970  1.537521
   C (  5)  2.794852  4.222255  1.535861  2.522456
   H (  6)  2.375224  3.030695  1.093920  2.154932  2.160098
   H (  7)  3.075937  2.431980  2.170759  1.095136  2.751528  3.063793
   H (  8)  3.787557  2.363974  2.158453  1.094390  2.735101  2.482704
   H (  9)  3.775984  4.479106  2.178864  2.753132  1.097353  2.516599
   H ( 10)  3.032272  4.554072  2.185331  2.795857  1.094921  3.078358
   H ( 11)  2.963876  5.037926  2.180731  3.480780  1.092451  2.495707
   H ( 12)  1.349667  3.847900  2.396150  2.956017  2.903698  3.296967
   H ( 13)  2.963252  1.002399  2.917205  2.191895  4.332793  3.219624
             H (  7)   H (  8)   H (  9)   H ( 10)   H ( 11)   H ( 12)
   H (  8)  1.762154
   H (  9)  3.072708  2.509335
   H ( 10)  2.575045  3.117212  1.770031
   H ( 11)  3.768656  3.730978  1.771354  1.772190
   H ( 12)  2.693666  3.947699  3.914153  2.626419  3.254918
   H ( 13)  2.551309  3.031449  4.814817  4.557799  5.059587  3.275307

 
 Applying Cartesian multipole field
    Component          Value
    ---------          -----
     (2,0,0)        1.00000E-11
     (0,2,0)        2.00000E-11
     (0,0,2)       -3.00000E-10
 Nucleus-field energy     =    -0.0000000004 hartrees
 Requested basis set is 6-31G(d,p)
 There are 46 shells and 123 basis functions
 A cutoff of  1.0D-14 yielded   1029 shell pairs
 There are      7530 function pairs
 Smallest overlap matrix eigenvalue = 5.52E-03
 Guess from superposition of atomic densities
 Warning:  Energy on first SCF cycle will be non-variational
 SAD guess density has 58.000000 electrons

 -----------------------------------------------------------------------
  General SCF calculation program by
  Eric Jon Sundstrom, Paul Horn, Yuezhi Mao, Dmitri Zuev, Alec White,
  David Stuck, Shaama M.S., Shane Yost, Joonho Lee, David Small,
  Daniel Levine, Susi Lehtola, Hugh Burton, Evgeny Epifanovsky
 -----------------------------------------------------------------------
 Exchange:     0.2000 Hartree-Fock + 0.0800 Slater + 0.7200 B88
 Correlation:  0.1900 VWN1RPA + 0.8100 LYP
 Using SG-1 standard quadrature grid
 using 12 threads for integral computing
 -------------------------------------------------------
 OpenMP Integral computing Module                
 Release: version 1.0, May 2013, Q-Chem Inc. Pittsburgh 
 -------------------------------------------------------
 -------------------------------------------------------
 OpenMP BLAS3 based DFT computing Module                
 Release: version 1.0, May 2013, Q-Chem Inc. Pittsburgh 
 -------------------------------------------------------
 A unrestricted SCF calculation will be
 performed using DIIS
 SCF converges when DIIS error is below 1.0e-06
 Alpha HF Exchange    Energy =  -6.88318366945613
 Beta HF Exchange     Energy =  -6.88318366945613
 DFT Correlation      Energy =  -2.71909432172015
 DFT Exchange         Energy = -53.93377258037201
 One-Electron (alpha) Energy = -914.42913128008615
 One-Electron (beta)  Energy = -914.42913128008615
 Total Coulomb        Energy = 694.14525015751622
 ---------------------------------------
  Cycle       Energy         DIIS error
 ---------------------------------------
    1    -916.2822376731      3.06e-02  
 Alpha HF Exchange    Energy =  -6.88367520430637
 Beta HF Exchange     Energy =  -6.88367520430637
 DFT Correlation      Energy =  -2.74715249701331
 DFT Exchange         Energy = -54.60527536898425
 One-Electron (alpha) Energy = -918.67430557605087
 One-Electron (beta)  Energy = -918.67430557605144
 Total Coulomb        Energy = 704.27068204119234
    2    -915.3476984149      2.78e-03  
 Alpha HF Exchange    Energy =  -6.82734628598856
 Beta HF Exchange     Energy =  -6.82734628598856
 DFT Correlation      Energy =  -2.72179650850041
 DFT Exchange         Energy = -54.13124453176854
 One-Electron (alpha) Energy = -914.50610770735113
 One-Electron (beta)  Energy = -914.50610770735102
 Total Coulomb        Energy = 695.33064741012072
    3    -915.3392926462      3.02e-03  
 Alpha HF Exchange    Energy =  -6.85258273522888
 Beta HF Exchange     Energy =  -6.85258273522888
 DFT Correlation      Energy =  -2.73438675174735
 DFT Exchange         Energy = -54.34358464409560
 One-Electron (alpha) Energy = -916.55372658417184
 One-Electron (beta)  Energy = -916.55372658417195
 Total Coulomb        Energy = 699.62848309095943
    4    -915.4120979731      4.95e-04  
 Alpha HF Exchange    Energy =  -6.85391452345536
 Beta HF Exchange     Energy =  -6.85391452345537
 DFT Correlation      Energy =  -2.73430633967611
 DFT Exchange         Energy = -54.35272101713548
 One-Electron (alpha) Energy = -916.58251911935929
 One-Electron (beta)  Energy = -916.58251911935963
 Total Coulomb        Energy = 699.69578463247535
    5    -915.4141010394      1.42e-04  
 Alpha HF Exchange    Energy =  -6.85384492728488
 Beta HF Exchange     Energy =  -6.85384492728487
 DFT Correlation      Energy =  -2.73433655911113
 DFT Exchange         Energy = -54.35242266738159
 One-Electron (alpha) Energy = -916.58659043712612
 One-Electron (beta)  Energy = -916.58659043712544
 Total Coulomb        Energy = 699.70337323496392
    6    -915.4142477497      4.18e-05  
 Alpha HF Exchange    Energy =  -6.85368171557734
 Beta HF Exchange     Energy =  -6.85368171557734
 DFT Correlation      Energy =  -2.73427759986085
 DFT Exchange         Energy = -54.35104263142762
 One-Electron (alpha) Energy = -916.56963147047543
 One-Electron (beta)  Energy = -916.56963147047554
 Total Coulomb        Energy = 699.66767707493352
    7    -915.4142605579      7.40e-06  
 Alpha HF Exchange    Energy =  -6.85372705964064
 Beta HF Exchange     Energy =  -6.85372705964064
 DFT Correlation      Energy =  -2.73429557875145
 DFT Exchange         Energy = -54.35139989906359
 One-Electron (alpha) Energy = -916.57536083111836
 One-Electron (beta)  Energy = -916.57536083111825
 Total Coulomb        Energy = 699.67960128752020
    8    -915.4142610012      1.71e-06  
 Alpha HF Exchange    Energy =  -6.85372064814514
 Beta HF Exchange     Energy =  -6.85372064814514
 DFT Correlation      Energy =  -2.73429275162598
 DFT Exchange         Energy = -54.35134658710916
 One-Electron (alpha) Energy = -916.57445997558204
 One-Electron (beta)  Energy = -916.57445997558159
 Total Coulomb        Energy = 699.67773058991406
    9    -915.4142610257      3.76e-07  Convergence criterion met
 ---------------------------------------
 SCF time:   CPU 29.34s  wall 2.00s 
<S^2> =         -0.000000000
 Alpha HF Exchange    Energy =  -6.85372064814514
 Beta HF Exchange     Energy =  -6.85372064814514
 DFT Correlation      Energy =  -2.73429275162598
 DFT Exchange         Energy = -54.35134658710916
 One-Electron (alpha) Energy = -916.57445997558204
 One-Electron (beta)  Energy = -916.57445997558159
 Total Coulomb        Energy = 699.67773058991406
 Nuclear repulsion Energy = 288.85000897060598
 SCF   energy in the final basis set =     -915.4142610257
 Total energy in the final basis set =     -915.4142610257
 
 --------------------------------------------------------------
 
                    Orbital Energies (a.u.)
 --------------------------------------------------------------
 
 Alpha MOs
 -- Occupied --
-88.880 -88.846 -10.240 -10.230 -10.196  -7.943  -7.925  -5.908
 -5.904  -5.897  -5.890  -5.885  -5.878  -0.843  -0.788  -0.715
 -0.683  -0.592  -0.490  -0.454  -0.430  -0.425  -0.401  -0.389
 -0.362  -0.328  -0.325  -0.246  -0.242
 -- Virtual --
  0.014   0.039   0.064   0.093   0.118   0.133   0.148   0.162
  0.166   0.182   0.203   0.215   0.266   0.335   0.357   0.365
  0.375   0.392   0.395   0.449   0.494   0.516   0.534   0.563
  0.578   0.649   0.660   0.680   0.721   0.749   0.759   0.779
  0.802   0.818   0.837   0.844   0.873   0.885   0.886   0.927
  0.941   0.960   0.971   1.022   1.073   1.121   1.188   1.363
  1.375   1.400   1.568   1.588   1.646   1.713   1.769   1.813
  1.851   1.909   2.031   2.041   2.065   2.077   2.097   2.112
  2.115   2.159   2.237   2.276   2.293   2.294   2.367   2.438
  2.493   2.588   2.613   2.633   2.715   2.726   2.740   2.825
  2.860   2.886   3.177   3.231   3.312   3.345   3.428   3.453
  3.473   3.939   3.986   4.262   4.443   4.588
 
 Beta MOs
 -- Occupied --
-88.880 -88.846 -10.240 -10.230 -10.196  -7.943  -7.925  -5.908
 -5.904  -5.897  -5.890  -5.885  -5.878  -0.843  -0.788  -0.715
 -0.683  -0.592  -0.490  -0.454  -0.430  -0.425  -0.401  -0.389
 -0.362  -0.328  -0.325  -0.246  -0.242
 -- Virtual --
  0.014   0.039   0.064   0.093   0.118   0.133   0.148   0.162
  0.166   0.182   0.203   0.215   0.266   0.335   0.357   0.365
  0.375   0.392   0.395   0.449   0.494   0.516   0.534   0.563
  0.578   0.649   0.660   0.680   0.721   0.749   0.759   0.779
  0.802   0.818   0.837   0.844   0.873   0.885   0.886   0.927
  0.941   0.960   0.971   1.022   1.073   1.121   1.188   1.363
  1.375   1.400   1.568   1.588   1.646   1.713   1.769   1.813
  1.851   1.909   2.031   2.041   2.065   2.077   2.097   2.112
  2.115   2.159   2.237   2.276   2.293   2.294   2.367   2.438
  2.493   2.588   2.613   2.633   2.715   2.726   2.740   2.825
  2.860   2.886   3.177   3.231   3.312   3.345   3.428   3.453
  3.473   3.939   3.986   4.262   4.443   4.588
 --------------------------------------------------------------
 
          Ground-State Mulliken Net Atomic Charges

     Atom                 Charge (a.u.)    Spin (a.u.)
  --------------------------------------------------------
      1 S                    -0.044984       0.000000
      2 S                    -0.007806      -0.000000
      3 C                    -0.209351      -0.000000
      4 C                    -0.318647      -0.000000
      5 C                    -0.308715       0.000000
      6 H                     0.153179       0.000000
      7 H                     0.134188      -0.000000
      8 H                     0.144702       0.000000
      9 H                     0.110884      -0.000000
     10 H                     0.110204      -0.000000
     11 H                     0.131705       0.000000
     12 H                     0.056183       0.000000
     13 H                     0.048458       0.000000
  --------------------------------------------------------
  Sum of atomic charges =    -0.000000
  Sum of spin   charges =    -0.000000

 -----------------------------------------------------------------
                    Cartesian Multipole Moments
 -----------------------------------------------------------------
    Charge (ESU x 10^10)
                 0.0000
    Dipole Moment (Debye)
         X       1.6537      Y       1.3433      Z       1.0546
       Tot       2.3773
    Quadrupole Moments (Debye-Ang)
        XX     -52.4825     XY       2.9357     YY     -47.5580
        XZ      -0.3248     YZ      -2.0726     ZZ     -44.7916
    Octopole Moments (Debye-Ang^2)
       XXX      39.1006    XXY       8.6215    XYY       3.3447
       YYY      43.3661    XXZ      -1.2781    XYZ      -0.0671
       YYZ      -0.1549    XZZ      13.6074    YZZ       9.2873
       ZZZ      -4.3104
    Hexadecapole Moments (Debye-Ang^3)
      XXXX    -768.0908   XXXY      46.7107   XXYY    -182.4842
      XYYY      21.7514   YYYY    -376.3578   XXXZ      -7.3678
      XXYZ      -2.8497   XYYZ       1.1114   YYYZ      -0.5148
      XXZZ    -142.8968   XYZZ       3.4668   YYZZ     -73.3703
      XZZZ      -7.0967   YZZZ       5.8598   ZZZZ     -90.7965
 -----------------------------------------------------------------
 Calculating analytic gradient of the SCF energy
 Gradient of SCF Energy
            1           2           3           4           5           6
    1   0.0016444   0.0878994  -0.0017077   0.0001285   0.0003873   0.0005275
    2   0.0002820  -0.4170446  -0.0038103   0.0012447  -0.0015226   0.0026357
    3   0.0009117   0.1859179  -0.0032787   0.0006699   0.0021450   0.0002042
            7           8           9          10          11          12
    1   0.0005520  -0.0004225   0.0004907  -0.0000309   0.0000697  -0.0009261
    2   0.0001393  -0.0001403   0.0004267   0.0002522   0.0004966   0.0002606
    3  -0.0001404  -0.0003878  -0.0001853  -0.0001365  -0.0004141  -0.0000849
           13
    1  -0.0886122
    2   0.4167801
    3  -0.1852209
 Max gradient component =       4.170E-01
 RMS gradient           =       1.053E-01
 Gradient time:  CPU 11.80 s  wall 1.04 s
 Geometry Optimization Parameters
   NAtoms,    NIC,     NZ,  NCons,   NDum,   NFix, NCnnct, MaxDiis
       13      82       0       1       0       0       0       0

 Cartesian Hessian Update
 Hessian Updated using BFGS Update


** CONSTRAINED OPTIMIZATION IN DELOCALIZED INTERNAL COORDINATES **
   Searching for a Minimum

   Optimization Cycle:   4

                       Coordinates (Angstroms)
     ATOM                X               Y               Z
      1  S         0.7263693157   -1.7253055698    0.1481855317
      2  S        -2.3190353602   -0.0473780014   -0.0872974128
      3  C         0.5375284902    0.0569264589   -0.3191419808
      4  C        -0.6975341185    0.7149608876    0.3177108942
      5  C         1.8049618165    0.8503893925    0.0314271844
      6  H         0.4085433383    0.0430908692   -1.4053432907
      7  H        -0.5773652582    0.7609415626    1.4052620845
      8  H        -0.7785696552    1.7451980708   -0.0424745087
      9  H         1.7129178069    1.8914966768   -0.3029485257
     10  H         1.9789574137    0.8623664923    1.1123685423
     11  H         2.6841510281    0.4176090896   -0.4514570771
     12  H         0.8865576312   -1.4992997831    1.4691177977
     13  H        -2.1277824485   -0.9459961458    0.3135907608
   Point Group: c1    Number of degrees of freedom:    33


   Energy is   -915.414261026

              Constraints and their Current Values
                                        Value     Constraint
   Distance(Angs):        2  13             1.002399     1.000000
 Hessian Updated using BFGS Update

   Using Lagrange Multiplier Algorithm


 33 Hessian modes will be used to form the next step
  Hessian Eigenvalues:
    -0.525364    0.108799    0.110661    0.110661    0.110664    0.184070
     0.187591    0.189477    0.201092    0.205224    0.207028    0.231415
     0.312955    0.355206    0.393008    0.393241    0.393462    0.393543
     0.433706    0.500468    0.540265    0.583775    0.601626    0.646793
     0.714872    0.727678    0.839110    0.839253    0.839278    0.839459
     0.840007    0.840837    1.917261

 Minimum Search - Taking P-RFO Step
 Searching for Lamda that Maximizes Along the Constraint modes Only
 Value Taken    Lamda =   0.00090425
 Searching for Lamda that Minimizes Along All other modes
 Value Taken    Lamda =  -0.00065872
 Step Taken.  Stepsize is  0.029787

                             Maximum     Tolerance    Cnvgd?
         Gradient            0.038898       0.000300      NO
         Displacement        0.042756       0.001200      NO
         Energy change      0.030665       0.000001      NO


 New Cartesian Coordinates Obtained by Inverse Iteration

 Displacement from previous Coordinates is:  0.044413
 ----------------------------------------------------------------
             Standard Nuclear Orientation (Angstroms)
    I     Atom           X                Y                Z
 ----------------------------------------------------------------
    1      S       0.7217783977    -1.7259536661     0.1508737277
    2      S      -2.3168353827    -0.0454011267    -0.0929531273
    3      C       0.5373908015     0.0578086513    -0.3139569455
    4      C      -0.6975309495     0.7155061735     0.3213325438
    5      C       1.8053738668     0.8521276104     0.0297220853
    6      H       0.4048013132     0.0380171663    -1.3998250530
    7      H      -0.5813104511     0.7606341433     1.4093950702
    8      H      -0.7771017436     1.7461803035    -0.0378578153
    9      H       1.7110704646     1.8917381359    -0.3077163092
   10      H       1.9823028765     0.8669563654     1.1102446628
   11      H       2.6828269624     0.4165043635    -0.4536482485
   12      H       0.8951260404    -1.5046877626     1.4711324920
   13      H      -2.1281921963    -0.9444303577     0.3022569169
 ----------------------------------------------------------------
 Nuclear Repulsion Energy =   288.9301000446 hartrees
 There are       29 alpha and       29 beta electrons

                       Distance Matrix (Angstroms)
             S (  1)   S (  2)   C (  3)   C (  4)   C (  5)   H (  6)
   S (  2)  3.480931
   C (  3)  1.852532  2.864629
   C (  4)  2.829173  1.836507  1.536617
   C (  5)  2.799171  4.220571  1.535200  2.523536
   H (  6)  2.369965  3.020295  1.094112  2.153256  2.160552
   H (  7)  3.076530  2.432856  2.171497  1.095182  2.758284  3.063708
   H (  8)  3.786552  2.362960  2.157480  1.094367  2.733693  2.483882
   H (  9)  3.778452  4.474668  2.177352  2.753286  1.097063  2.517007
   H ( 10)  3.038502  4.556607  2.184226  2.797647  1.095013  3.078328
   H ( 11)  2.966696  5.033893  2.179696  3.480922  1.092400  2.495577
   H ( 12)  1.349849  3.859090  2.399149  2.964432  2.908744  3.295869
   H ( 13)  2.959059  1.000015  2.913681  2.191471  4.332994  3.205985
             H (  7)   H (  8)   H (  9)   H ( 10)   H ( 11)   H ( 12)
   H (  8)  1.761867
   H (  9)  3.079428  2.506993
   H ( 10)  2.583197  3.115363  1.770412
   H ( 11)  3.774116  3.729883  1.772547  1.771836
   H ( 12)  2.704692  3.954939  3.919921  2.633798  3.254479
   H ( 13)  2.554573  3.029936  4.812053  4.564004  5.056624  3.289470

 
 Applying Cartesian multipole field
    Component          Value
    ---------          -----
     (2,0,0)        1.00000E-11
     (0,2,0)        2.00000E-11
     (0,0,2)       -3.00000E-10
 Nucleus-field energy     =    -0.0000000004 hartrees
 Requested basis set is 6-31G(d,p)
 There are 46 shells and 123 basis functions
 A cutoff of  1.0D-14 yielded   1029 shell pairs
 There are      7530 function pairs
 Smallest overlap matrix eigenvalue = 5.51E-03
 Guess from superposition of atomic densities
 Warning:  Energy on first SCF cycle will be non-variational
 SAD guess density has 58.000000 electrons

 -----------------------------------------------------------------------
  General SCF calculation program by
  Eric Jon Sundstrom, Paul Horn, Yuezhi Mao, Dmitri Zuev, Alec White,
  David Stuck, Shaama M.S., Shane Yost, Joonho Lee, David Small,
  Daniel Levine, Susi Lehtola, Hugh Burton, Evgeny Epifanovsky
 -----------------------------------------------------------------------
 Exchange:     0.2000 Hartree-Fock + 0.0800 Slater + 0.7200 B88
 Correlation:  0.1900 VWN1RPA + 0.8100 LYP
 Using SG-1 standard quadrature grid
 using 12 threads for integral computing
 -------------------------------------------------------
 OpenMP Integral computing Module                
 Release: version 1.0, May 2013, Q-Chem Inc. Pittsburgh 
 -------------------------------------------------------
 -------------------------------------------------------
 OpenMP BLAS3 based DFT computing Module                
 Release: version 1.0, May 2013, Q-Chem Inc. Pittsburgh 
 -------------------------------------------------------
 A unrestricted SCF calculation will be
 performed using DIIS
 SCF converges when DIIS error is below 1.0e-06
 Alpha HF Exchange    Energy =  -6.88350437621014
 Beta HF Exchange     Energy =  -6.88350437621014
 DFT Correlation      Energy =  -2.71914846153776
 DFT Exchange         Energy = -53.93452678260773
 One-Electron (alpha) Energy = -914.50420242224914
 One-Electron (beta)  Energy = -914.50420242224914
 Total Coulomb        Energy = 694.21460262224491
 ---------------------------------------
  Cycle       Energy         DIIS error
 ---------------------------------------
    1    -916.2843861747      3.06e-02  
 Alpha HF Exchange    Energy =  -6.88388835063458
 Beta HF Exchange     Energy =  -6.88388835063459
 DFT Correlation      Energy =  -2.74723608135960
 DFT Exchange         Energy = -54.60690401089106
[...]
    2      S      -2.3224313820     0.0131448304    -0.1687317014
    3      C       0.5259066590     0.0526379688    -0.2813901532
    4      C      -0.7068670632     0.7131151300     0.3515200441
    5      C       1.7996792119     0.8515251131     0.0125148676
    6      H       0.3717114916    -0.0089176276    -1.3634225669
    7      H      -0.6353221595     0.6914376997     1.4438318657
    8      H      -0.7479090435     1.7646459901     0.0504970533
    9      H       1.7007055916     1.8762453377    -0.3634616814
   10      H       1.9913382551     0.9073892918     1.0897836073
   11      H       2.6686438123     0.3907643124    -0.4627152470
   12      H       1.0586679209    -1.4893411106     1.4889269790
   13      H      -2.1670219246    -0.9102158119     0.1823425086
 ----------------------------------------------------------------
 Nuclear Repulsion Energy =   288.6342492746 hartrees
 There are       29 alpha and       29 beta electrons

                       Distance Matrix (Angstroms)
             S (  1)   S (  2)   C (  3)   C (  4)   C (  5)   H (  6)
   S (  2)  3.510459
   C (  3)  1.854898  2.850839
   C (  4)  2.821894  1.835938  1.535101
   C (  5)  2.809507  4.210407  1.532024  2.533151
   H (  6)  2.352923  2.947232  1.094696  2.150742  2.161633
   H (  7)  3.027378  2.430387  2.175525  1.094867  2.829051  3.063542
   H (  8)  3.784679  2.365362  2.159566  1.094539  2.706555  2.529476
   H (  9)  3.782957  4.437870  2.170814  2.767757  1.095995  2.513958
   H ( 10)  3.062413  4.581718  2.181331  2.804120  1.095610  3.079128
   H ( 11)  2.967102  5.013966  2.176817  3.487257  1.092357  2.499383
   H ( 12)  1.349410  4.054273  2.407396  3.043291  2.865056  3.286253
   H ( 13)  2.983838  1.000000  2.897240  2.189949  4.343649  3.105945
             H (  7)   H (  8)   H (  9)   H ( 10)   H ( 11)   H ( 12)
   H (  8)  1.762338
   H (  9)  3.182311  2.485866
   H ( 10)  2.659197  3.052619  1.770613
   H ( 11)  3.826424  3.718033  1.775784  1.770846
   H ( 12)  2.761781  3.990142  3.894962  2.602596  3.152099
   H ( 13)  2.550050  3.030866  4.798081  4.628077  5.048991  3.528119

 
 Applying Cartesian multipole field
    Component          Value
    ---------          -----
     (2,0,0)        1.00000E-11
     (0,2,0)        2.00000E-11
     (0,0,2)       -3.00000E-10
 Nucleus-field energy     =    -0.0000000011 hartrees
 Requested basis set is 6-31G(d,p)
 There are 46 shells and 123 basis functions
 A cutoff of  1.0D-14 yielded   1030 shell pairs
 There are      7533 function pairs
 Smallest overlap matrix eigenvalue = 5.48E-03
 Guess from superposition of atomic densities
 Warning:  Energy on first SCF cycle will be non-variational
 SAD guess density has 58.000000 electrons

 -----------------------------------------------------------------------
  General SCF calculation program by
  Eric Jon Sundstrom, Paul Horn, Yuezhi Mao, Dmitri Zuev, Alec White,
  David Stuck, Shaama M.S., Shane Yost, Joonho Lee, David Small,
  Daniel Levine, Susi Lehtola, Hugh Burton, Evgeny Epifanovsky
 -----------------------------------------------------------------------
 Exchange:     0.2000 Hartree-Fock + 0.0800 Slater + 0.7200 B88
 Correlation:  0.1900 VWN1RPA + 0.8100 LYP
 Using SG-1 standard quadrature grid
 using 12 threads for integral computing
 -------------------------------------------------------
 OpenMP Integral computing Module                
 Release: version 1.0, May 2013, Q-Chem Inc. Pittsburgh 
 -------------------------------------------------------
 -------------------------------------------------------
 OpenMP BLAS3 based DFT computing Module                
 Release: version 1.0, May 2013, Q-Chem Inc. Pittsburgh 
 -------------------------------------------------------
 A unrestricted SCF calculation will be
 performed using DIIS
 SCF converges when DIIS error is below 1.0e-06
 Alpha HF Exchange    Energy =  -6.88380512938849
 Beta HF Exchange     Energy =  -6.88380512938849
 DFT Correlation      Energy =  -2.71912923201626
 DFT Exchange         Energy = -53.93516654890852
 One-Electron (alpha) Energy = -914.20673304804848
 One-Electron (beta)  Energy = -914.20673304804848
 Total Coulomb        Energy = 693.91382603855698
 ---------------------------------------
  Cycle       Energy         DIIS error
 ---------------------------------------
    1    -916.2872968238      3.06e-02  
 Alpha HF Exchange    Energy =  -6.88403461928635
 Beta HF Exchange     Energy =  -6.88403461928635
 DFT Correlation      Energy =  -2.74724419752147
 DFT Exchange         Energy = -54.60801048388051
 One-Electron (alpha) Energy = -918.46243377381677
 One-Electron (beta)  Energy = -918.46243377381631
 Total Coulomb        Energy = 704.06768927747362
    2    -915.3462529167      2.78e-03  
 Alpha HF Exchange    Energy =  -6.82759574539967
 Beta HF Exchange     Energy =  -6.82759574539966
 DFT Correlation      Energy =  -2.72184824011554
 DFT Exchange         Energy = -54.13309933756146
 One-Electron (alpha) Energy = -914.27839921809198
 One-Electron (beta)  Energy = -914.27839921809164
 Total Coulomb        Energy = 695.09479676608157
    3    -915.3378914651      3.01e-03  
 Alpha HF Exchange    Energy =  -6.85286131072801
 Beta HF Exchange     Energy =  -6.85286131072801
 DFT Correlation      Energy =  -2.73445567336364
 DFT Exchange         Energy = -54.34567986446130
 One-Electron (alpha) Energy = -916.33449669394236
 One-Electron (beta)  Energy = -916.33449669394201
 Total Coulomb        Energy = 699.41007907479172
    4    -915.4105231989      4.98e-04  
 Alpha HF Exchange    Energy =  -6.85420330678179
 Beta HF Exchange     Energy =  -6.85420330678178
 DFT Correlation      Energy =  -2.73437823588170
 DFT Exchange         Energy = -54.35489106601702
 One-Electron (alpha) Energy = -916.36306023928194
 One-Electron (beta)  Energy = -916.36306023928137
 Total Coulomb        Energy = 699.47699771094472
    5    -915.4125494096      1.42e-04  
 Alpha HF Exchange    Energy =  -6.85412836592244
 Beta HF Exchange     Energy =  -6.85412836592245
 DFT Correlation      Energy =  -2.73440417004080
 DFT Exchange         Energy = -54.35454571060814
 One-Electron (alpha) Energy = -916.36649651772689
 One-Electron (beta)  Energy = -916.36649651772768
 Total Coulomb        Energy = 699.48325416606906
    6    -915.4126962084      4.10e-05  
 Alpha HF Exchange    Energy =  -6.85396686656305
 Beta HF Exchange     Energy =  -6.85396686656304
 DFT Correlation      Energy =  -2.73434659081614
 DFT Exchange         Energy = -54.35318221857150
 One-Electron (alpha) Energy = -916.34977116725918
 One-Electron (beta)  Energy = -916.34977116725918
 Total Coulomb        Energy = 699.44804710923688
    7    -915.4127084943      7.40e-06  
 Alpha HF Exchange    Energy =  -6.85401221650919
 Beta HF Exchange     Energy =  -6.85401221650919
 DFT Correlation      Energy =  -2.73436450192576
 DFT Exchange         Energy = -54.35353914435279
 One-Electron (alpha) Energy = -916.35553119681970
 One-Electron (beta)  Energy = -916.35553119681924
 Total Coulomb        Energy = 699.46003226254300
    8    -915.4127089369      1.74e-06  
 Alpha HF Exchange    Energy =  -6.85400577200636
 Beta HF Exchange     Energy =  -6.85400577200636
 DFT Correlation      Energy =  -2.73436165799167
 DFT Exchange         Energy = -54.35348566937049
 One-Electron (alpha) Energy = -916.35461146701800
 One-Electron (beta)  Energy = -916.35461146701766
 Total Coulomb        Energy = 699.45812356944123
    9    -915.4127089625      3.68e-07  Convergence criterion met
 ---------------------------------------
 SCF time:   CPU 29.29s  wall 2.00s 
<S^2> =         -0.000000000
 Alpha HF Exchange    Energy =  -6.85400577200636
 Beta HF Exchange     Energy =  -6.85400577200636
 DFT Correlation      Energy =  -2.73436165799167
 DFT Exchange         Energy = -54.35348566937049
 One-Electron (alpha) Energy = -916.35461146701800
 One-Electron (beta)  Energy = -916.35461146701766
 Total Coulomb        Energy = 699.45812356944123
 Nuclear repulsion Energy = 288.63424927344846
 SCF   energy in the final basis set =     -915.4127089625
 Total energy in the final basis set =     -915.4127089625
 
 --------------------------------------------------------------
 
                    Orbital Energies (a.u.)
 --------------------------------------------------------------
 
 Alpha MOs
 -- Occupied --
-88.880 -88.846 -10.239 -10.229 -10.197  -7.942  -7.925  -5.907
 -5.904  -5.897  -5.890  -5.885  -5.878  -0.844  -0.789  -0.715
 -0.683  -0.593  -0.489  -0.455  -0.431  -0.428  -0.400  -0.389
 -0.361  -0.329  -0.324  -0.247  -0.242
 -- Virtual --
  0.015   0.038   0.063   0.094   0.119   0.132   0.149   0.161
  0.167   0.181   0.202   0.219   0.268   0.334   0.359   0.366
  0.374   0.392   0.394   0.446   0.494   0.514   0.529   0.568
  0.578   0.646   0.655   0.681   0.718   0.750   0.761   0.775
  0.799   0.818   0.836   0.843   0.873   0.884   0.887   0.928
  0.940   0.961   0.976   1.022   1.063   1.125   1.186   1.358
  1.372   1.405   1.568   1.597   1.646   1.714   1.770   1.818
  1.852   1.910   2.030   2.049   2.060   2.079   2.094   2.106
  2.122   2.153   2.241   2.274   2.293   2.299   2.364   2.434
  2.504   2.587   2.604   2.637   2.710   2.727   2.742   2.826
  2.862   2.889   3.179   3.233   3.307   3.345   3.429   3.452
  3.474   3.941   3.984   4.260   4.443   4.587
 
 Beta MOs
 -- Occupied --
-88.880 -88.846 -10.239 -10.229 -10.197  -7.942  -7.925  -5.907
 -5.904  -5.897  -5.890  -5.885  -5.878  -0.844  -0.789  -0.715
 -0.683  -0.593  -0.489  -0.455  -0.431  -0.428  -0.400  -0.389
 -0.361  -0.329  -0.324  -0.247  -0.242
 -- Virtual --
  0.015   0.038   0.063   0.094   0.119   0.132   0.149   0.161
  0.167   0.181   0.202   0.219   0.268   0.334   0.359   0.366
  0.374   0.392   0.394   0.446   0.494   0.514   0.529   0.568
  0.578   0.646   0.655   0.681   0.718   0.750   0.761   0.775
  0.799   0.818   0.836   0.843   0.873   0.884   0.887   0.928
  0.940   0.961   0.976   1.022   1.063   1.125   1.186   1.358
  1.372   1.405   1.568   1.597   1.646   1.714   1.770   1.818
  1.852   1.910   2.030   2.049   2.060   2.079   2.094   2.106
  2.122   2.153   2.241   2.274   2.293   2.299   2.364   2.434
  2.504   2.587   2.604   2.637   2.710   2.727   2.742   2.826
  2.862   2.889   3.179   3.233   3.307   3.345   3.429   3.452
  3.474   3.941   3.984   4.260   4.443   4.587
 --------------------------------------------------------------
 
          Ground-State Mulliken Net Atomic Charges

     Atom                 Charge (a.u.)    Spin (a.u.)
  --------------------------------------------------------
      1 S                    -0.048550      -0.000000
      2 S                    -0.011623       0.000000
      3 C                    -0.211291       0.000000
      4 C                    -0.313364      -0.000000
      5 C                    -0.311472      -0.000000
      6 H                     0.154991      -0.000000
      7 H                     0.136147      -0.000000
      8 H                     0.142637       0.000000
      9 H                     0.113755       0.000000
     10 H                     0.110263      -0.000000
     11 H                     0.132713       0.000000
     12 H                     0.056823       0.000000
     13 H                     0.048970      -0.000000
  --------------------------------------------------------
  Sum of atomic charges =    -0.000000
  Sum of spin   charges =     0.000000

 -----------------------------------------------------------------
                    Cartesian Multipole Moments
 -----------------------------------------------------------------
    Charge (ESU x 10^10)
                 0.0000
    Dipole Moment (Debye)
         X       1.7551      Y       1.2980      Z       1.0694
       Tot       2.4308
    Quadrupole Moments (Debye-Ang)
        XX     -51.9701     XY       3.0383     YY     -47.6408
        XZ       0.0112     YZ      -1.5834     ZZ     -45.0636
    Octopole Moments (Debye-Ang^2)
       XXX      40.8682    XXY       6.7357    XYY       4.1643
       YYY      41.9191    XXZ      -0.6732    XYZ      -1.4960
       YYZ      -0.6508    XZZ      14.3902    YZZ       8.7133
       ZZZ      -3.6387
    Hexadecapole Moments (Debye-Ang^3)
      XXXX    -765.5314   XXXY      52.1360   XXYY    -182.1392
      XYYY      26.3822   YYYY    -376.5886   XXXZ     -14.5339
      XXYZ      -0.6123   XYYZ      -0.1360   YYYZ       4.2963
      XXZZ    -142.8199   XYZZ       4.8545   YYZZ     -74.3483
      XZZZ     -15.8148   YZZZ       9.8818   ZZZZ     -94.9765
 -----------------------------------------------------------------
 Calculating analytic gradient of the SCF energy
 Gradient of SCF Energy
            1           2           3           4           5           6
    1  -0.0000156   0.0731733   0.0001444   0.0000563   0.0001045  -0.0000319
    2  -0.0000251  -0.4353470  -0.0000102   0.0000874   0.0000977   0.0000058
    3  -0.0000127   0.1654997  -0.0000843   0.0000957   0.0000359   0.0000066
            7           8           9          10          11          12
    1  -0.0000113  -0.0000636  -0.0000599   0.0000049  -0.0000041  -0.0000109
    2  -0.0000475   0.0000071  -0.0000511  -0.0000869  -0.0000085  -0.0000324
    3  -0.0000005  -0.0000048   0.0000482   0.0000005   0.0000082  -0.0000265
           13
    1  -0.0732860
    2   0.4354108
    3  -0.1655659
 Max gradient component =       4.354E-01
 RMS gradient           =       1.068E-01
 Gradient time:  CPU 11.77 s  wall 1.04 s
 Geometry Optimization Parameters
   NAtoms,    NIC,     NZ,  NCons,   NDum,   NFix, NCnnct, MaxDiis
       13      82       0       1       0       0       0       0

 Cartesian Hessian Update
 Hessian Updated using BFGS Update
**WARNING** Hereditary positive definiteness endangered


** CONSTRAINED OPTIMIZATION IN DELOCALIZED INTERNAL COORDINATES **
   Searching for a Minimum

   Optimization Cycle:  18

                       Coordinates (Angstroms)
     ATOM                X               Y               Z
      1  S         0.7025986304   -1.7274311238    0.2093044243
      2  S        -2.3224313820    0.0131448304   -0.1687317014
      3  C         0.5259066590    0.0526379688   -0.2813901532
      4  C        -0.7068670632    0.7131151300    0.3515200441
      5  C         1.7996792119    0.8515251131    0.0125148676
      6  H         0.3717114916   -0.0089176276   -1.3634225669
      7  H        -0.6353221595    0.6914376997    1.4438318657
      8  H        -0.7479090435    1.7646459901    0.0504970533
      9  H         1.7007055916    1.8762453377   -0.3634616814
     10  H         1.9913382551    0.9073892918    1.0897836073
     11  H         2.6686438123    0.3907643124   -0.4627152470
     12  H         1.0586679209   -1.4893411106    1.4889269790
     13  H        -2.1670219246   -0.9102158119    0.1823425086
   Point Group: c1    Number of degrees of freedom:    33


   Energy is   -915.412708963

              Constraints and their Current Values
                                        Value     Constraint
   Distance(Angs):        2  13             1.000000     1.000000
 Hessian Updated using BFGS Update

 32 Hessian modes will be used to form the next step
  Hessian Eigenvalues:
     0.004809    0.010040    0.055264    0.083974    0.110895    0.136734
     0.186715    0.188038    0.201140    0.205224    0.215411    0.279114
     0.321423    0.358951    0.382302    0.392786    0.393437    0.393594
     0.419149    0.496337    0.535687    0.580834    0.599637    0.646166
     0.708221    0.718758    0.829095    0.836259    0.839237    0.839365
     0.839558    0.840761

 Minimum Search - Taking Simple RFO Step
 Searching for Lamda that Minimizes Along All modes
 Value Taken    Lamda =   0.00000000
 Step Taken.  Stepsize is  0.002031

                             Maximum     Tolerance    Cnvgd?
         Gradient           0.000099      0.000300     YES
         Displacement       0.000736      0.001200     YES
         Energy change     -0.000001      0.000001     YES


                       Distance Matrix (Angstroms)
             S (  1)   S (  2)   C (  3)   C (  4)   C (  5)   H (  6)
   S (  2)  3.510459
   C (  3)  1.854898  2.850839
   C (  4)  2.821894  1.835938  1.535101
   C (  5)  2.809507  4.210407  1.532024  2.533151
   H (  6)  2.352923  2.947232  1.094696  2.150742  2.161633
   H (  7)  3.027378  2.430387  2.175525  1.094867  2.829051  3.063542
   H (  8)  3.784679  2.365362  2.159566  1.094539  2.706555  2.529476
   H (  9)  3.782957  4.437870  2.170814  2.767757  1.095995  2.513958
   H ( 10)  3.062413  4.581718  2.181331  2.804120  1.095610  3.079128
   H ( 11)  2.967102  5.013966  2.176817  3.487257  1.092357  2.499383
   H ( 12)  1.349410  4.054273  2.407396  3.043291  2.865056  3.286253
   H ( 13)  2.983838  1.000000  2.897240  2.189949  4.343649  3.105945
             H (  7)   H (  8)   H (  9)   H ( 10)   H ( 11)   H ( 12)
   H (  8)  1.762338
   H (  9)  3.182311  2.485866
   H ( 10)  2.659197  3.052619  1.770613
   H ( 11)  3.826424  3.718033  1.775784  1.770846
   H ( 12)  2.761781  3.990142  3.894962  2.602596  3.152099
   H ( 13)  2.550050  3.030866  4.798081  4.628077  5.048991  3.528119

 
 Final energy is   -915.412708962521     


 ******************************
 **  OPTIMIZATION CONVERGED  **
 ******************************

                       Coordinates (Angstroms)
     ATOM                X               Y               Z
      1  S         0.7025986304   -1.7274311238    0.2093044243
      2  S        -2.3224313820    0.0131448304   -0.1687317014
      3  C         0.5259066590    0.0526379688   -0.2813901532
      4  C        -0.7068670632    0.7131151300    0.3515200441
      5  C         1.7996792119    0.8515251131    0.0125148676
      6  H         0.3717114916   -0.0089176276   -1.3634225669
      7  H        -0.6353221595    0.6914376997    1.4438318657
      8  H        -0.7479090435    1.7646459901    0.0504970533
      9  H         1.7007055916    1.8762453377   -0.3634616814
     10  H         1.9913382551    0.9073892918    1.0897836073
     11  H         2.6686438123    0.3907643124   -0.4627152470
     12  H         1.0586679209   -1.4893411106    1.4889269790
     13  H        -2.1670219246   -0.9102158119    0.1823425086

Z-matrix Print:
$molecule
0 1
S 
H  1 1.349410
C  1 1.854898 2 96.123504
H  3 1.094696 1 102.763950 2 172.236374 0
C  3 1.532024 1 111.744797 2 54.763945 0
H  5 1.092357 3 110.976532 1 54.947920 0
H  5 1.095610 3 111.140941 1 -65.340124 0
H  5 1.095995 3 110.282828 1 175.186220 0
C  3 1.535101 1 112.353632 2 -71.252539 0
H  9 1.094539 3 109.272804 1 178.553236 0
H  9 1.094867 3 110.507805 1 60.816391 0
S  9 1.835938 3 115.200959 1 -63.832878 0
H  12 1.000000 9 96.649847 3 61.659280 0
$end

PES scan, value:    1.0000 energy: -915.4127089625
------- Summary of potential scan: ------ 
    1.0000      -915.4127089625
----------------------------------------- 
Archival summary:
1\1\hpc0250\JobtypUnspecified\ProcedureUnspecified\6-31G**\238\knomura\ThuMar1402:32:082019ThuMar1402:32:082019\0\\#,JobtypUnspecified,ProcedureUnspecified,6-31G**,\\0,1\S\H,1,1.34941\C,1,1.8549,2,96.1235\H,3,1.0947,1,102.764,2,172.236,0\C,3,1.53202,1,111.745,2,54.7639,0\H,5,1.09236,3,110.977,1,54.9479,0\H,5,1.09561,3,111.141,1,-65.3401,0\H,5,1.096,3,110.283,1,175.186,0\C,3,1.5351,1,112.354,2,-71.2525,0\H,9,1.09454,3,109.273,1,178.553,0\H,9,1.09487,3,110.508,1,60.8164,0\S,9,1.83594,3,115.201,1,-63.8329,0\H,12,1,9,96.6498,3,61.6593,0\\\@

 Total job time:  72.96s(wall), 839.68s(cpu) 
 Thu Mar 14 02:32:08 2019

        *************************************************************
        *                                                           *
        *  Thank you very much for using Q-Chem.  Have a nice day.  *
        *                                                           *
        *************************************************************


