
Running Job 1 of 1 thiol/03/S-H.xyz.data/inputs/bond_triplet_2.4.in
qchem thiol/03/S-H.xyz.data/inputs/bond_triplet_2.4.in_1691.0 /staging/scratch/2868767/qchem1691/ 1
/usr/usc/qchem/5.1.1/exe/qcprog.exe_s thiol/03/S-H.xyz.data/inputs/bond_triplet_2.4.in_1691.0 /staging/scratch/2868767/qchem1691/
Check license passed

                  Welcome to Q-Chem
     A Quantum Leap Into The Future Of Chemistry


 Q-Chem 5.1, Q-Chem, Inc., Pleasanton, CA (2018)

 Yihan Shao,  Zhengting Gan,  E. Epifanovsky,  A. T. B. Gilbert,  M. Wormit,  
 J. Kussmann,  A. W. Lange,  A. Behn,  Jia Deng,  Xintian Feng,  D. Ghosh,  
 M. Goldey,  P. R. Horn,  L. D. Jacobson,  I. Kaliman,  T. Kus,  A. Landau,  
 Jie Liu,  E. I. Proynov,  R. M. Richard,  R. P. Steele,  E. J. Sundstrom,  
 H. L. Woodcock III,  P. M. Zimmerman,  D. Zuev,  B. Albrecht,  E. Alguire,  
 S. A. Baeppler,  D. Barton,  Z. Benda,  Y. A. Bernard,  E. J. Berquist,  
 K. B. Bravaya,  H. Burton,  D. Casanova,  Chun-Min Chang,  Yunqing Chen,  
 A. Chien,  K. D. Closser,  M. P. Coons,  S. Coriani,  S. Dasgupta,  
 A. L. Dempwolff,  M. Diedenhofen,  Hainam Do,  R. G. Edgar,  Po-Tung Fang,  
 S. Faraji,  S. Fatehi,  Qingguo Feng,  K. D. Fenk,  J. Fosso-Tande,  
 Qinghui Ge,  A. Ghysels,  G. Gidofalvi,  J. Gomes,  J. Gonthier,  A. Gunina,  
 D. Hait,  M. W. D. Hanson-Heine,  P. H. P. Harbach,  A. W. Hauser,  
 J. E. Herr,  E. G. Hohenstein,  Z. C. Holden,  Kerwin Hui,  B. C. Huynh,  
 T.-C. Jagau,  Hyunjun Ji,  B. Kaduk,  K. Khistyaev,  Jaehoon Kim,  
 P. Klunzinger,  K. Koh,  D. Kosenkov,  L. Koulias,  T. Kowalczyk,  
 C. M. Krauter,  A. Kunitsa,  Ka Un Lao,  A. Laurent,  K. V. Lawler,  
 Joonho Lee,  D. Lefrancois,  S. Lehtola,  D. S. Levine,  Yi-Pei Li,  
 You-Sheng Lin,  Fenglai Liu,  E. Livshits,  A. Luenser,  P. Manohar,  
 E. Mansoor,  S. F. Manzer,  Shan-Ping Mao,  Yuezhi Mao,  N. Mardirossian,  
 A. V. Marenich,  T. Markovich,  L. A. Martinez-Martinez,  S. A. Maurer,  
 N. J. Mayhall,  S. C. McKenzie,  J.-M. Mewes,  A. F. Morrison,  
 J. W. Mullinax,  K. Nanda,  T. S. Nguyen-Beck,  R. Olivares-Amaya,  
 J. A. Parkhill,  T. M. Perrine,  F. Plasser,  P. Pokhilko,  S. Prager,  
 A. Prociuk,  E. Ramos,  D. R. Rehn,  F. Rob,  M. Schneider,  N. Sergueev,  
 S. M. Sharada,  S. Sharma,  D. W. Small,  T. Stauch,  T. Stein,  
 Yu-Chuan Su,  A. J. W. Thom,  A. Tkatchenko,  T. Tsuchimochi,  N. M. Tubman,  
 L. Vogt,  M. L. Vidal,  O. Vydrov,  M. A. Watson,  J. Wenzel,  
 M. de Wergifosse,  T. A. Wesolowski,  A. White,  J. Witte,  A. Yamada,  
 Jun Yang,  K. Yao,  S. Yeganeh,  S. R. Yost,  Zhi-Qiang You,  A. Zech,  
 Igor Ying Zhang,  Xing Zhang,  Yan Zhao,  Ying Zhu,  B. R. Brooks,  
 G. K. L. Chan,  C. J. Cramer,  M. S. Gordon,  W. J. Hehre,  A. Klamt,  
 M. W. Schmidt,  C. D. Sherrill,  D. G. Truhlar,  A. Aspuru-Guzik,  R. Baer,  
 A. T. Bell,  N. A. Besley,  Jeng-Da Chai,  A. E. DePrince, III,  
 R. A. DiStasio Jr.,  A. Dreuw,  B. D. Dunietz,  T. R. Furlani,  
 Chao-Ping Hsu,  Yousung Jung,  Jing Kong,  D. S. Lambrecht,  WanZhen Liang,  
 C. Ochsenfeld,  V. A. Rassolov,  L. V. Slipchenko,  J. E. Subotnik,  
 T. Van Voorhis,  J. M. Herbert,  A. I. Krylov,  P. M. W. Gill,  M. Head-Gordon

 Contributors to earlier versions of Q-Chem not listed above: 
 R. D. Adamson,  B. Austin,  J. Baker,  G. J. O. Beran,  K. Brandhorst,  
 S. T. Brown,  E. F. C. Byrd,  A. K. Chakraborty,  C.-L. Cheng,  
 Siu Hung Chien,  D. M. Chipman,  D. L. Crittenden,  H. Dachsel,  
 R. J. Doerksen,  A. D. Dutoi,  L. Fusti-Molnar,  W. A. Goddard III,  
 A. Golubeva-Zadorozhnaya,  S. R. Gwaltney,  G. Hawkins,  A. Heyden,  
 S. Hirata,  G. Kedziora,  F. J. Keil,  C. Kelley,  Jihan Kim,  R. A. King,  
 R. Z. Khaliullin,  P. P. Korambath,  W. Kurlancheek,  A. M. Lee,  M. S. Lee,  
 S. V. Levchenko,  Ching Yeh Lin,  D. Liotard,  R. C. Lochan,  I. Lotan,  
 P. E. Maslen,  N. Nair,  D. P. O'Neill,  D. Neuhauser,  E. Neuscamman,  
 C. M. Oana,  R. Olson,  B. Peters,  R. Peverati,  P. A. Pieniazek,  
 Y. M. Rhee,  J. Ritchie,  M. A. Rohrdanz,  E. Rosta,  N. J. Russ,  
 H. F. Schaefer III,  N. E. Schultz,  N. Shenvi,  A. C. Simmonett,  A. Sodt,  
 D. Stuck,  K. S. Thanthiriwatte,  V. Vanovschi,  Tao Wang,  A. Warshel,  
 C. F. Williams,  Q. Wu,  X. Xu,  W. Zhang

 Please cite Q-Chem as follows:
 Y. Shao et al., Mol. Phys. 113, 184-215 (2015)
 DOI: 10.1080/00268976.2014.952696

 Q-Chem 5.1.1 for Intel X86 EM64T Linux

 Parts of Q-Chem use Armadillo 8.300.2 (Tropical Shenanigans).
 http://arma.sourceforge.net/

 Q-Chem begins on Thu Mar 14 03:54:36 2019  

Host: 
0

     Scratch files written to /staging/scratch/2868767/qchem1691//
 Aug318 |scratch|qcdevops|jenkins|workspace|build_RNUM 6013   
Processing $rem in /usr/usc/qchem/5.1.1/config/preferences.
 MEM_TOTAL  2000 
Input Ideriv = 2
Curr. Ideriv = -1
Max.  Ideriv = 2

Checking the input file for inconsistencies... 	...done.

--------------------------------------------------------------
User input:
--------------------------------------------------------------

$comment
potential surface scanner
$end

$rem
JOBTYPE  PES_SCAN
UNRESTRICTED TRUE
SYM_IGNORE  TRUE
GEOM_OPT_MAX_CYCLES 400
SCF_MAX_CYCLES 400
METHOD   B3LYP
BASIS   6-31G**
PDB_PRINT 2
SCF_CONVERGENCE 6
THRESH 14
SCF_PRINT 1
$end
$molecule
0 3
S 0.549113 -1.522894 1.081561
S -2.147705 -0.097175 0.834078
C 0.465624 -0.037929 -0.037289
C -0.650370 0.884646 0.456020
C 1.811397 0.665185 -0.195613
H 0.148790 -0.482779 -0.986117
H -0.328823 1.427404 1.351706
H -0.909221 1.622080 -0.313631
H 1.720454 1.495825 -0.905179
H 2.162110 1.075543 0.757362
H 2.572542 -0.023372 -0.571203
H 0.895266 -0.849562 2.199798
H -2.049479 -1.031971 -1.482495
$end
$scan
stre 2 13 2.400000 2.401000 0.100000
$end
--------------------------------------------------------------
 ----------------------------------------------------------------
             Standard Nuclear Orientation (Angstroms)
    I     Atom           X                Y                Z
 ----------------------------------------------------------------
    1      S       0.5491130000    -1.5228940000     1.0815610000
    2      S      -2.1477050000    -0.0971750000     0.8340780000
    3      C       0.4656240000    -0.0379290000    -0.0372890000
    4      C      -0.6503700000     0.8846460000     0.4560200000
    5      C       1.8113970000     0.6651850000    -0.1956130000
    6      H       0.1487900000    -0.4827790000    -0.9861170000
    7      H      -0.3288230000     1.4274040000     1.3517060000
    8      H      -0.9092210000     1.6220800000    -0.3136310000
    9      H       1.7204540000     1.4958250000    -0.9051790000
   10      H       2.1621100000     1.0755430000     0.7573620000
   11      H       2.5725420000    -0.0233720000    -0.5712030000
   12      H       0.8952660000    -0.8495620000     2.1997980000
   13      H      -2.0494790000    -1.0319710000    -1.4824950000
 ----------------------------------------------------------------
 Nuclear Repulsion Energy =   289.3291677660 hartrees
 There are       30 alpha and       28 beta electrons
 Requested basis set is 6-31G(d,p)
 There are 46 shells and 123 basis functions

 Total QAlloc Memory Limit   2000 MB
 Mega-Array Size       188 MB
 MEM_STATIC part       192 MB
A total of 1 constraints
  
            1
    1   1.0100000
    2   2.0100000
    3  13.0100000
    4   2.4000000
    5   2.4010000
    6   0.1000000
    7   0.0000000
    8   0.0000000
    9   0.0000000
   10   0.0000000

                       Distance Matrix (Angstroms)
             S (  1)   S (  2)   C (  3)   C (  4)   C (  5)   H (  6)
   S (  2)  3.060515
   C (  3)  1.861160  2.755409
   C (  4)  2.761577  1.830003  1.529687
   C (  5)  2.830587  4.161243  1.526611  2.555990
   H (  6)  2.348913  2.955620  1.094783  2.142024  2.169558
   H (  7)  3.089985  2.429117  2.169713  1.095551  2.748766  3.056522
   H (  8)  3.736865  2.409754  2.173061  1.096894  2.886406  2.449909
   H (  9)  3.798926  4.530488  2.163385  2.801287  1.096229  2.528152
   H ( 10)  3.075506  4.467176  2.179301  2.835012  1.095242  3.085700
   H ( 11)  3.012384  4.925545  2.173564  3.502406  1.092941  2.501556
   H ( 12)  1.350427  3.419203  2.418243  2.904691  2.978548  3.292690
   H ( 13)  3.683486  2.500000  3.066347  3.064110  4.409395  2.319567
             H (  7)   H (  8)   H (  9)   H ( 10)   H ( 11)   H ( 12)
   H (  8)  1.774291
   H (  9)  3.049221  2.698344
   H ( 10)  2.584917  3.298303  1.770802
   H ( 11)  3.770975  3.859602  1.773571  1.772330
   H ( 12)  2.720704  3.960115  3.977770  2.718740  3.342797
   H ( 13)  4.128181  3.116154  4.575526  5.214984  4.817759  4.718483

 
 A cutoff of  1.0D-14 yielded   1026 shell pairs
 There are      7523 function pairs
 
 -------------------------------------------------------
 OpenMP Integral Computing Module                       
 Release: version 1.0, May 2013, Q-Chem Inc. Pittsburgh 
 -------------------------------------------------------
 Integral Job Info:
 Integral job number is                      11
 Integral operator is                         1
 short-range coefficients                     0
 long-range coefficients              100000000
 Omega coefficients                           0
 if combine SR and LR in K                    0
 Integral screening is                        0
 Integral computing path is                   2
 max size of driver memory is            800000
 size of driver memory is                593474
 size of scratch memory is             15267112
 max col of scratch BK array               1296
 max len of scratch array in speh3          155
 max len of scratch index in speh4           18
 max int batch size is                      520
 min int batch size is                       52
 fixed nKL is                                52
 max L of basis functions is                  2
 order of int derivative is                   0
 number of shells is                         46
 number of basis is                         123
 number of cartesian basis is               123
 number of contracted shell pairs          1026
 number of primitive shell pairs           3921
 maxK2 (contraction) of shell pair           36
 max number of K2 of shell pair               1
 max number of CS2 of shell pair             81
 max number of PS2 of shell pair            372
 mem total for path MDJ                  519084
 -------------------------------------------------------
 Smallest overlap matrix eigenvalue = 5.33E-03

 Scale SEOQF with 1.000000e-01/1.000000e-01/1.000000e-01

 Standard Electronic Orientation quadrupole field applied
 Nucleus-field energy     =     0.0000000037 hartrees
 Guess from superposition of atomic densities
 Warning:  Energy on first SCF cycle will be non-variational
 SAD guess density has 58.000000 electrons

 -----------------------------------------------------------------------
  General SCF calculation program by
  Eric Jon Sundstrom, Paul Horn, Yuezhi Mao, Dmitri Zuev, Alec White,
  David Stuck, Shaama M.S., Shane Yost, Joonho Lee, David Small,
  Daniel Levine, Susi Lehtola, Hugh Burton, Evgeny Epifanovsky
 -----------------------------------------------------------------------
 Exchange:     0.2000 Hartree-Fock + 0.0800 Slater + 0.7200 B88
 Correlation:  0.1900 VWN1RPA + 0.8100 LYP
 Using SG-1 standard quadrature grid
 using 12 threads for integral computing
 -------------------------------------------------------
 OpenMP Integral computing Module                
 Release: version 1.0, May 2013, Q-Chem Inc. Pittsburgh 
 -------------------------------------------------------
 -------------------------------------------------------
 OpenMP BLAS3 based DFT computing Module                
 Release: version 1.0, May 2013, Q-Chem Inc. Pittsburgh 
 -------------------------------------------------------
 A unrestricted SCF calculation will be
 performed using DIIS
 SCF converges when DIIS error is below 1.0e-06
 Alpha HF Exchange    Energy =  -6.84003795374090
 Beta HF Exchange     Energy =  -6.84003795374090
 DFT Correlation      Energy =  -2.70689203898033
 DFT Exchange         Energy = -53.82838070561296
 One-Electron (alpha) Energy = -915.34489547986175
 One-Electron (beta)  Energy = -915.34489547986175
 Total Coulomb        Energy = 695.65334421054990
 ---------------------------------------
  Cycle       Energy         DIIS error
 ---------------------------------------
    1    -915.9226276316      2.71e-02  
 Alpha HF Exchange    Energy =  -6.93880853852697
 Beta HF Exchange     Energy =  -6.74866719685591
 DFT Correlation      Energy =  -2.72084334268216
 DFT Exchange         Energy = -54.34113168052863
 One-Electron (alpha) Energy = -932.10023577448578
 One-Electron (beta)  Energy = -903.73236129461168
 Total Coulomb        Energy = 701.94977517231314
    2    -915.3031048857      2.86e-03  
 Alpha HF Exchange    Energy =  -6.90322771941800
 Beta HF Exchange     Energy =  -6.72412050568035
 DFT Correlation      Energy =  -2.69795230830675
 DFT Exchange         Energy = -54.04607776235650
 One-Electron (alpha) Energy = -929.56981147041677
 One-Electron (beta)  Energy = -901.88928675193688
 Total Coulomb        Energy = 697.22129319905639
    3    -915.2800155494      3.51e-03  
 Alpha HF Exchange    Energy =  -6.91962115668349
 Beta HF Exchange     Energy =  -6.73848057523522
 DFT Correlation      Energy =  -2.70747588766079
 DFT Exchange         Energy = -54.18411277676168
 One-Electron (alpha) Energy = -930.79322543172964
 One-Electron (beta)  Energy = -903.07955718714254
 Total Coulomb        Energy = 699.70987888747254
    4    -915.3834263581      5.18e-04  
 Alpha HF Exchange    Energy =  -6.92138855353527
 Beta HF Exchange     Energy =  -6.74063136149210
 DFT Correlation      Energy =  -2.70687115874477
 DFT Exchange         Energy = -54.19507463182570
 One-Electron (alpha) Energy = -930.76107238886220
 One-Electron (beta)  Energy = -903.11303315343810
 Total Coulomb        Energy = 699.72301078613725
    5    -915.3858926921      2.40e-04  
 Alpha HF Exchange    Energy =  -6.92159710331683
 Beta HF Exchange     Energy =  -6.74141465143696
 DFT Correlation      Energy =  -2.70649510689913
 DFT Exchange         Energy = -54.19762677266041
 One-Electron (alpha) Energy = -930.75599761336696
 One-Electron (beta)  Energy = -903.17487923072008
 Total Coulomb        Energy = 699.78232762628932
    6    -915.3865150825      6.70e-05  
 Alpha HF Exchange    Energy =  -6.92137044320784
 Beta HF Exchange     Energy =  -6.74194981129949
 DFT Correlation      Energy =  -2.70618428483345
 DFT Exchange         Energy = -54.19750732891600
 One-Electron (alpha) Energy = -930.71406775202547
 One-Electron (beta)  Energy = -903.18545131198584
 Total Coulomb        Energy = 699.75076467148790
    7    -915.3865984911      2.72e-05  
 Alpha HF Exchange    Energy =  -6.92146737485561
 Beta HF Exchange     Energy =  -6.74232879040148
 DFT Correlation      Energy =  -2.70613752469250
 DFT Exchange         Energy = -54.19905650473407
 One-Electron (alpha) Energy = -930.72098967812906
 One-Electron (beta)  Energy = -903.21562329766118
 Total Coulomb        Energy = 699.78982437156310
    8    -915.3866110293      9.05e-06  
 Alpha HF Exchange    Energy =  -6.92138947375446
 Beta HF Exchange     Energy =  -6.74240623185319
 DFT Correlation      Energy =  -2.70609641887412
 DFT Exchange         Energy = -54.19889981600998
 One-Electron (alpha) Energy = -930.71165408213039
 One-Electron (beta)  Energy = -903.21664840271876
 Total Coulomb        Energy = 699.78131416865961
    9    -915.3866124870      4.17e-06  
 Alpha HF Exchange    Energy =  -6.92138530055855
 Beta HF Exchange     Energy =  -6.74243161690895
 DFT Correlation      Energy =  -2.70608780229016
 DFT Exchange         Energy = -54.19896365983600
 One-Electron (alpha) Energy = -930.71041562689186
 One-Electron (beta)  Energy = -903.21892263620066
 Total Coulomb        Energy = 699.78242615904946
   10    -915.3866127140      1.51e-06  
 Alpha HF Exchange    Energy =  -6.92138687318221
 Beta HF Exchange     Energy =  -6.74244471532932
 DFT Correlation      Energy =  -2.70609051020434
 DFT Exchange         Energy = -54.19901610421604
 One-Electron (alpha) Energy = -930.71074313983422
 One-Electron (beta)  Energy = -903.22001909591256
 Total Coulomb        Energy = 699.78391992113848
   11    -915.3866127479      5.68e-07  Convergence criterion met
 ---------------------------------------
 SCF time:   CPU 36.50s  wall 3.00s 
<S^2> =          2.005424381
 Alpha HF Exchange    Energy =  -6.92138687318221
 Beta HF Exchange     Energy =  -6.74244471532932
 DFT Correlation      Energy =  -2.70609051020434
 DFT Exchange         Energy = -54.19901610421604
 One-Electron (alpha) Energy = -930.71074313983422
 One-Electron (beta)  Energy = -903.22001909591256
 Total Coulomb        Energy = 699.78391992113848
 Nuclear repulsion Energy = 289.32916776963242
 SCF   energy in the final basis set =     -915.3866127479
 Total energy in the final basis set =     -915.3866127479
 
 --------------------------------------------------------------
 
                    Orbital Energies (a.u.)
 --------------------------------------------------------------
 
 Alpha MOs
 -- Occupied --
-88.900 -88.892 -10.247 -10.233 -10.202  -7.962  -7.952  -5.927
 -5.923  -5.921  -5.919  -5.913  -5.907  -0.849  -0.759  -0.728
 -0.650  -0.593  -0.486  -0.455  -0.440  -0.423  -0.407  -0.368
 -0.357  -0.336  -0.295  -0.291  -0.248  -0.210
 -- Virtual --
  0.004   0.043   0.056   0.095   0.118   0.131   0.152   0.161
  0.168   0.196   0.211   0.299   0.327   0.346   0.351   0.386
  0.395   0.427   0.464   0.478   0.510   0.534   0.558   0.572
  0.620   0.653   0.666   0.709   0.735   0.752   0.781   0.787
  0.809   0.820   0.846   0.846   0.871   0.878   0.906   0.923
  0.927   0.940   0.975   1.033   1.079   1.109   1.178   1.353
  1.373   1.391   1.555   1.619   1.702   1.765   1.824   1.848
  1.918   2.011   2.012   2.025   2.048   2.060   2.074   2.088
  2.099   2.105   2.123   2.162   2.239   2.278   2.346   2.435
  2.471   2.569   2.584   2.627   2.703   2.720   2.733   2.814
  2.854   2.884   3.171   3.220   3.319   3.419   3.443   3.468
  3.907   3.976   4.244   4.437   4.585
 
 Beta MOs
 -- Occupied --
-88.899 -88.886 -10.247 -10.233 -10.202  -7.961  -7.946  -5.926
 -5.922  -5.916  -5.909  -5.904  -5.900  -0.845  -0.745  -0.725
 -0.629  -0.585  -0.482  -0.453  -0.435  -0.421  -0.405  -0.366
 -0.348  -0.330  -0.260  -0.237
 -- Virtual --
 -0.144  -0.054   0.008   0.049   0.063   0.098   0.119   0.134
  0.154   0.161   0.170   0.200   0.212   0.306   0.338   0.351
  0.355   0.394   0.413   0.442   0.474   0.485   0.512   0.540
  0.566   0.577   0.629   0.660   0.679   0.716   0.745   0.777
  0.804   0.814   0.831   0.833   0.857   0.868   0.879   0.884
  0.923   0.930   0.944   0.980   0.999   1.054   1.089   1.110
  1.184   1.354   1.375   1.392   1.556   1.621   1.703   1.767
  1.825   1.849   1.921   2.023   2.025   2.058   2.072   2.087
  2.091   2.108   2.141   2.157   2.181   2.243   2.255   2.289
  2.347   2.437   2.471   2.571   2.585   2.627   2.704   2.721
  2.733   2.815   2.854   2.884   3.171   3.221   3.320   3.420
  3.444   3.468   3.923   3.981   4.245   4.437   4.585
 --------------------------------------------------------------
 
          Ground-State Mulliken Net Atomic Charges

     Atom                 Charge (a.u.)    Spin (a.u.)
  --------------------------------------------------------
      1 S                     0.021196       0.132451
      2 S                     0.038295       0.988241
      3 C                    -0.218339       0.021403
      4 C                    -0.323733      -0.033263
      5 C                    -0.308409      -0.001338
      6 H                     0.162905      -0.002028
      7 H                     0.136439       0.002102
      8 H                     0.151263       0.014636
      9 H                     0.119312       0.000895
     10 H                     0.112291       0.000917
     11 H                     0.132761       0.000499
     12 H                     0.069750      -0.004333
     13 H                    -0.093733       0.879818
  --------------------------------------------------------
  Sum of atomic charges =    -0.000000
  Sum of spin   charges =     2.000000

 -----------------------------------------------------------------
                    Cartesian Multipole Moments
 -----------------------------------------------------------------
    Charge (ESU x 10^10)
                 0.0000
    Dipole Moment (Debye)
         X       2.6877      Y       2.2763      Z       0.3282
       Tot       3.5374
    Quadrupole Moments (Debye-Ang)
        XX     -52.1258     XY      -1.0287     YY     -48.7451
        XZ       1.0722     YZ      -0.5028     ZZ     -46.6616
    Octopole Moments (Debye-Ang^2)
       XXX      41.9007    XXY      16.4091    XYY       8.7149
       YYY      41.1415    XXZ     -26.1401    XYZ       2.6410
       YYZ     -25.6211    XZZ      21.0841    YZZ      10.7465
       ZZZ     -68.0364
    Hexadecapole Moments (Debye-Ang^3)
      XXXX    -678.2780   XXXY      -0.1862   XXYY    -169.3978
      XYYY       2.7111   YYYY    -329.0682   XXXZ      42.5099
      XXYZ      14.0933   XYYZ      12.1977   YYYZ      57.3909
      XXZZ    -167.8403   XYZZ      -3.2379   YYZZ     -94.3604
      XZZZ      57.8975   YZZZ      46.9937   ZZZZ    -257.2653
 -----------------------------------------------------------------
 Calculating analytic gradient of the SCF energy
 Gradient of SCF Energy
            1           2           3           4           5           6
    1  -0.0000147   0.0000222  -0.0001277   0.0000429  -0.0000751   0.0000694
    2   0.0000396   0.0002633  -0.0000754   0.0000012   0.0000236   0.0001055
    3   0.0000132   0.0006117   0.0000969  -0.0001526  -0.0000245  -0.0000453
            7           8           9          10          11          12
    1  -0.0000005   0.0000119  -0.0000191   0.0000173   0.0000160  -0.0000054
    2  -0.0001063   0.0000268  -0.0000051   0.0000252   0.0000131   0.0000080
    3   0.0000253   0.0000192   0.0000022   0.0000008   0.0000154   0.0000092
           13
    1   0.0000629
    2  -0.0003193
    3  -0.0005715
 Max gradient component =       6.117E-04
 RMS gradient           =       1.581E-04
 Gradient time:  CPU 11.84 s  wall 1.05 s
 Geometry Optimization Parameters
   NAtoms,    NIC,     NZ,  NCons,   NDum,   NFix, NCnnct, MaxDiis
       13      90       0       1       0       0       0       0


** CONSTRAINED OPTIMIZATION IN DELOCALIZED INTERNAL COORDINATES **
   Searching for a Minimum

   Optimization Cycle:   1

                       Coordinates (Angstroms)
     ATOM                X               Y               Z
      1  S         0.5491130000   -1.5228940000    1.0815610000
      2  S        -2.1477050000   -0.0971750000    0.8340780000
      3  C         0.4656240000   -0.0379290000   -0.0372890000
      4  C        -0.6503700000    0.8846460000    0.4560200000
      5  C         1.8113970000    0.6651850000   -0.1956130000
      6  H         0.1487900000   -0.4827790000   -0.9861170000
      7  H        -0.3288230000    1.4274040000    1.3517060000
      8  H        -0.9092210000    1.6220800000   -0.3136310000
      9  H         1.7204540000    1.4958250000   -0.9051790000
     10  H         2.1621100000    1.0755430000    0.7573620000
     11  H         2.5725420000   -0.0233720000   -0.5712030000
     12  H         0.8952660000   -0.8495620000    2.1997980000
     13  H        -2.0494790000   -1.0319710000   -1.4824950000
   Point Group: c1    Number of degrees of freedom:    33


   Energy is   -915.386612748

              Constraints and their Current Values
                                        Value     Constraint
   Distance(Angs):        2  13             2.500000     2.400000

 Attempting to Generate Delocalized Internal Coordinates

   Using Lagrange Multiplier Algorithm


 34 Hessian modes will be used to form the next step
  Hessian Eigenvalues:
    -0.987170    0.024714    0.045000    0.045000    0.045943    0.048855
     0.069325    0.074888    0.079724    0.082629    0.083674    0.085682
     0.109249    0.121158    0.124950    0.153681    0.160000    0.160000
     0.160000    0.160000    0.161086    0.188435    0.218357    0.233738
     0.256053    0.284651    0.297386    0.331023    0.340280    0.341026
     0.341789    0.342138    0.344750    1.012997

 Minimum Search - Taking P-RFO Step
 Searching for Lamda that Maximizes Along the Constraint modes Only
 Value Taken    Lamda =   0.01787363
 Searching for Lamda that Minimizes Along All other modes
 Value Taken    Lamda =  -0.01722752
 Step Taken.  Stepsize is  0.185727

                             Maximum     Tolerance    Cnvgd?
         Gradient            0.188974       0.000300      NO
         Displacement        0.185712       0.001200      NO
         Energy change     *********       0.000001      NO


 New Cartesian Coordinates Obtained by Inverse Iteration

 Displacement from previous Coordinates is:  0.148703
 ----------------------------------------------------------------
             Standard Nuclear Orientation (Angstroms)
    I     Atom           X                Y                Z
 ----------------------------------------------------------------
    1      S       0.5514186582    -1.5240154384     1.0747721730
    2      S      -2.1447938996    -0.1139113743     0.8031151601
    3      C       0.4686807106    -0.0371210209    -0.0416461261
    4      C      -0.6514979970     0.8803013135     0.4439588438
    5      C       1.8151128015     0.6665734466    -0.1921907802
    6      H       0.1505142454    -0.4790433083    -0.9851638415
    7      H      -0.3367016064     1.4226860044     1.3423073549
    8      H      -0.9107413954     1.6187363031    -0.3245964186
    9      H       1.7275645521     1.4986385855    -0.9005349141
   10      H       2.1609921992     1.0750486726     0.7633394233
   11      H       2.5781470556    -0.0211433629    -0.5654519643
   12      H       0.8941906623    -0.8521951913     2.1949567108
   13      H      -2.0631879866    -1.0095536295    -1.4238676212
 ----------------------------------------------------------------
 Nuclear Repulsion Energy =   289.7616331487 hartrees
 There are       30 alpha and       28 beta electrons

                       Distance Matrix (Angstroms)
             S (  1)   S (  2)   C (  3)   C (  4)   C (  5)   H (  6)
   S (  2)  3.054792
   C (  3)  1.861207  2.747684
   C (  4)  2.761462  1.829586  1.527179
   C (  5)  2.828568  4.157000  1.526673  2.556274
   H (  6)  2.344361  2.932525  1.089381  2.129186  2.170745
   H (  7)  3.089236  2.433322  2.166796  1.095586  2.748945  3.044844
   H (  8)  3.738052  2.407631  2.173644  1.096891  2.890402  2.441985
   H (  9)  3.797577  4.527461  2.163570  2.801775  1.096243  2.530904
   H ( 10)  3.072922  4.467102  2.179184  2.837258  1.095227  3.084556
   H ( 11)  3.009417  4.918105  2.173586  3.501731  1.092932  2.505839
   H ( 12)  1.350425  3.423115  2.418222  2.908039  2.975438  3.287167
   H ( 13)  3.652949  2.401726  3.044096  3.008853  4.400869  2.318271
             H (  7)   H (  8)   H (  9)   H ( 10)   H ( 11)   H ( 12)
   H (  8)  1.773845
   H (  9)  3.049148  2.703107
   H ( 10)  2.587379  3.303748  1.770809
   H ( 11)  3.771012  3.862585  1.773558  1.772383
   H ( 12)  2.723452  3.963765  3.975299  2.714513  3.338594
   H ( 13)  4.067956  3.073180  4.575446  5.193567  4.822429  4.676189

 
 Applying Cartesian multipole field
    Component          Value
    ---------          -----
     (2,0,0)        1.00000E-11
     (0,2,0)        2.00000E-11
     (0,0,2)       -3.00000E-11
 Nucleus-field energy     =     0.0000000038 hartrees
 Requested basis set is 6-31G(d,p)
 There are 46 shells and 123 basis functions
 A cutoff of  1.0D-14 yielded   1029 shell pairs
 There are      7538 function pairs
 Smallest overlap matrix eigenvalue = 5.30E-03
 Guess from superposition of atomic densities
 Warning:  Energy on first SCF cycle will be non-variational
 SAD guess density has 58.000000 electrons

 -----------------------------------------------------------------------
  General SCF calculation program by
  Eric Jon Sundstrom, Paul Horn, Yuezhi Mao, Dmitri Zuev, Alec White,
  David Stuck, Shaama M.S., Shane Yost, Joonho Lee, David Small,
  Daniel Levine, Susi Lehtola, Hugh Burton, Evgeny Epifanovsky
 -----------------------------------------------------------------------
 Exchange:     0.2000 Hartree-Fock + 0.0800 Slater + 0.7200 B88
 Correlation:  0.1900 VWN1RPA + 0.8100 LYP
 Using SG-1 standard quadrature grid
 using 12 threads for integral computing
 -------------------------------------------------------
 OpenMP Integral computing Module                
 Release: version 1.0, May 2013, Q-Chem Inc. Pittsburgh 
 -------------------------------------------------------
 -------------------------------------------------------
 OpenMP BLAS3 based DFT computing Module                
 Release: version 1.0, May 2013, Q-Chem Inc. Pittsburgh 
 -------------------------------------------------------
 A unrestricted SCF calculation will be
 performed using DIIS
 SCF converges when DIIS error is below 1.0e-06
 Alpha HF Exchange    Energy =  -6.84138836812103
 Beta HF Exchange     Energy =  -6.84138836812103
 DFT Correlation      Energy =  -2.70756619703018
 DFT Exchange         Energy = -53.83115572629616
 One-Electron (alpha) Energy = -915.77310108364259
 One-Electron (beta)  Energy = -915.77310108364259
 Total Coulomb        Energy = 696.07268787970418
 ---------------------------------------
  Cycle       Energy         DIIS error
 ---------------------------------------
    1    -915.9333797947      2.71e-02  
 Alpha HF Exchange    Energy =  -6.93977904735208
 Beta HF Exchange     Energy =  -6.74873888911828
 DFT Correlation      Energy =  -2.72167860613106
 DFT Exchange         Energy = -54.34452194610689
 One-Electron (alpha) Energy = -932.62707487121668
 One-Electron (beta)  Energy = -904.00384113861605
 Total Coulomb        Energy = 702.32123452352698
    2    -915.3027668225      2.87e-03  
 Alpha HF Exchange    Energy =  -6.90427662366782
 Beta HF Exchange     Energy =  -6.72429583880465
 DFT Correlation      Energy =  -2.69900420840013
 DFT Exchange         Energy = -54.05086333496173
 One-Electron (alpha) Energy = -930.12804326372998
 One-Electron (beta)  Energy = -902.19792748345333
 Total Coulomb        Energy = 697.66330734040514
    3    -915.2794702601      3.52e-03  
 Alpha HF Exchange    Energy =  -6.92053688725166
 Beta HF Exchange     Energy =  -6.73826499744515
 DFT Correlation      Energy =  -2.70857875377177
 DFT Exchange         Energy = -54.18706907104151
 One-Electron (alpha) Energy = -931.33965397289830
 One-Electron (beta)  Energy = -903.35702059701998
 Total Coulomb        Energy = 700.10607663257213
    4    -915.3834144944      5.20e-04  
 Alpha HF Exchange    Energy =  -6.92232891415651
 Beta HF Exchange     Energy =  -6.74029872354886
 DFT Correlation      Energy =  -2.70800394807769
 DFT Exchange         Energy = -54.19777121719560
 One-Electron (alpha) Energy = -931.30776793941277
 One-Electron (beta)  Energy = -903.38217836820547
 Total Coulomb        Energy = 700.11082416981776
    5    -915.3858917883      2.39e-04  
 Alpha HF Exchange    Energy =  -6.92256589009604
 Beta HF Exchange     Energy =  -6.74102511986007
 DFT Correlation      Energy =  -2.70766505138143
 DFT Exchange         Energy = -54.20031006146709
 One-Electron (alpha) Energy = -931.30601689301261
 One-Electron (beta)  Energy = -903.44237955307301
 Total Coulomb        Energy = 700.17182911952216
    6    -915.3865002969      6.70e-05  
 Alpha HF Exchange    Energy =  -6.92235191095963
 Beta HF Exchange     Energy =  -6.74154335716307
 DFT Correlation      Energy =  -2.70737329720602
 DFT Exchange         Energy = -54.20019904625591
 One-Electron (alpha) Energy = -931.26553286560272
 One-Electron (beta)  Energy = -903.45197215250153
 Total Coulomb        Energy = 700.14075769432850
    7    -915.3865817829      2.76e-05  
 Alpha HF Exchange    Energy =  -6.92244866902031
 Beta HF Exchange     Energy =  -6.74189267287931
 DFT Correlation      Energy =  -2.70732987889594
 DFT Exchange         Energy = -54.20165294614278
 One-Electron (alpha) Energy = -931.27199543757831
 One-Electron (beta)  Energy = -903.48045052594318
 Total Coulomb        Energy = 700.17754283197200
    8    -915.3865941460      9.17e-06  
 Alpha HF Exchange    Energy =  -6.92237883677352
 Beta HF Exchange     Energy =  -6.74197233552780
 DFT Correlation      Energy =  -2.70729436890356
 DFT Exchange         Energy = -54.20154024505082
 One-Electron (alpha) Energy = -931.26362542809625
 One-Electron (beta)  Energy = -903.48170521766906
 Total Coulomb        Energy = 700.17028771256400
    9    -915.3865955670      4.68e-06  
 Alpha HF Exchange    Energy =  -6.92237265748234
 Beta HF Exchange     Energy =  -6.74199236375855
 DFT Correlation      Energy =  -2.70728523483094
 DFT Exchange         Energy = -54.20157756361007
 One-Electron (alpha) Energy = -931.26209131387691
 One-Electron (beta)  Energy = -903.48352566111214
 Total Coulomb        Energy = 700.17061580082043
   10    -915.3865958414      1.46e-06  
 Alpha HF Exchange    Energy =  -6.92237525651183
 Beta HF Exchange     Energy =  -6.74200680432735
 DFT Correlation      Energy =  -2.70728815366314
 DFT Exchange         Energy = -54.20163929132899
 One-Electron (alpha) Energy = -931.26251790972958
 One-Electron (beta)  Energy = -903.48477224441126
 Total Coulomb        Energy = 700.17237063470691
   11    -915.3865958728      5.46e-07  Convergence criterion met
 ---------------------------------------
 SCF time:   CPU 35.96s  wall 3.00s 
<S^2> =          2.005643783
 Alpha HF Exchange    Energy =  -6.92237525651183
 Beta HF Exchange     Energy =  -6.74200680432735
 DFT Correlation      Energy =  -2.70728815366314
 DFT Exchange         Energy = -54.20163929132899
 One-Electron (alpha) Energy = -931.26251790972958
 One-Electron (beta)  Energy = -903.48477224441126
 Total Coulomb        Energy = 700.17237063470691
 Nuclear repulsion Energy = 289.76163315246794
 SCF   energy in the final basis set =     -915.3865958728
 Total energy in the final basis set =     -915.3865958728
 
 --------------------------------------------------------------
 
                    Orbital Energies (a.u.)
 --------------------------------------------------------------
 
 Alpha MOs
 -- Occupied --
-88.901 -88.894 -10.247 -10.233 -10.202  -7.963  -7.953  -5.927
 -5.924  -5.922  -5.920  -5.915  -5.908  -0.851  -0.760  -0.728
 -0.652  -0.594  -0.487  -0.456  -0.441  -0.423  -0.408  -0.368
 -0.359  -0.336  -0.297  -0.293  -0.249  -0.202
 -- Virtual --
  0.003   0.042   0.056   0.095   0.118   0.131   0.152   0.160
  0.168   0.196   0.210   0.299   0.326   0.345   0.351   0.386
  0.395   0.427   0.466   0.477   0.510   0.533   0.559   0.572
  0.620   0.652   0.667   0.708   0.734   0.753   0.778   0.786
  0.809   0.821   0.845   0.846   0.870   0.877   0.908   0.923
  0.929   0.940   0.974   1.036   1.079   1.109   1.180   1.351
  1.374   1.390   1.553   1.621   1.702   1.764   1.824   1.849
  1.920   2.015   2.018   2.026   2.052   2.061   2.075   2.088
  2.102   2.106   2.131   2.173   2.241   2.279   2.347   2.436
  2.471   2.569   2.587   2.630   2.703   2.721   2.735   2.816
  2.855   2.884   3.171   3.220   3.323   3.420   3.444   3.472
  3.908   3.976   4.245   4.437   4.585
 
 Beta MOs
 -- Occupied --
-88.900 -88.888 -10.247 -10.234 -10.203  -7.962  -7.947  -5.927
 -5.923  -5.917  -5.911  -5.905  -5.902  -0.847  -0.746  -0.725
 -0.630  -0.586  -0.483  -0.453  -0.436  -0.421  -0.405  -0.366
 -0.349  -0.331  -0.261  -0.240
 -- Virtual --
 -0.144  -0.048   0.007   0.048   0.062   0.098   0.119   0.133
  0.154   0.161   0.171   0.200   0.212   0.306   0.338   0.351
  0.354   0.394   0.413   0.443   0.476   0.484   0.511   0.539
  0.567   0.578   0.629   0.659   0.679   0.715   0.744   0.778
  0.803   0.814   0.832   0.833   0.857   0.867   0.878   0.884
  0.923   0.929   0.944   0.979   0.997   1.061   1.088   1.111
  1.185   1.352   1.376   1.392   1.554   1.623   1.703   1.766
  1.825   1.850   1.922   2.024   2.026   2.057   2.072   2.087
  2.091   2.107   2.141   2.161   2.183   2.244   2.266   2.297
  2.348   2.439   2.471   2.571   2.588   2.630   2.704   2.722
  2.736   2.817   2.855   2.885   3.172   3.221   3.323   3.420
  3.444   3.473   3.924   3.981   4.245   4.436   4.585
 --------------------------------------------------------------
 
          Ground-State Mulliken Net Atomic Charges

     Atom                 Charge (a.u.)    Spin (a.u.)
  --------------------------------------------------------
      1 S                     0.023242       0.135739
      2 S                     0.049586       1.001119
      3 C                    -0.219780       0.020720
      4 C                    -0.323306      -0.034186
      5 C                    -0.308635      -0.001313
      6 H                     0.165312      -0.001130
      7 H                     0.136435       0.002160
      8 H                     0.152014       0.014753
      9 H                     0.119544       0.000902
     10 H                     0.112227       0.000883
     11 H                     0.133094       0.000504
     12 H                     0.069832      -0.004399
     13 H                    -0.109565       0.864248
  --------------------------------------------------------
  Sum of atomic charges =    -0.000000
  Sum of spin   charges =     2.000000

 -----------------------------------------------------------------
                    Cartesian Multipole Moments
 -----------------------------------------------------------------
    Charge (ESU x 10^10)
                 0.0000
    Dipole Moment (Debye)
         X       2.7251      Y       2.3201      Z       0.4542
       Tot       3.6077
    Quadrupole Moments (Debye-Ang)
        XX     -52.1344     XY      -1.1560     YY     -48.7376
        XZ       0.8219     YZ      -0.6112     ZZ     -46.7258
    Octopole Moments (Debye-Ang^2)
       XXX      41.8034    XXY      16.8469    XYY       8.7466
       YYY      41.7956    XXZ     -25.1258    XYZ       2.7703
       YYZ     -24.9590    XZZ      21.1826    YZZ      11.1595
       ZZZ     -66.1543
    Hexadecapole Moments (Debye-Ang^3)
      XXXX    -678.6094   XXXY      -1.8944   XXYY    -169.5182
      XYYY       1.2907   YYYY    -328.8432   XXXZ      38.9850
      XXYZ      13.9538   XYYZ      11.0914   YYYZ      57.7039
      XXZZ    -167.2219   XYZZ      -4.2085   YYZZ     -93.2599
      XZZZ      54.3770   YZZZ      47.5449   ZZZZ    -250.2967
 -----------------------------------------------------------------
 Calculating analytic gradient of the SCF energy
 Gradient of SCF Energy
            1           2           3           4           5           6
    1   0.0002368   0.0004291  -0.0015213   0.0003638   0.0001714   0.0000979
    2  -0.0000066  -0.0002689  -0.0008032  -0.0006943  -0.0000209   0.0016931
    3  -0.0000728  -0.0011902  -0.0018412  -0.0008244   0.0003198   0.0033029
            7           8           9          10          11          12
    1   0.0006917  -0.0003054  -0.0000398   0.0000505   0.0000253   0.0000647
    2  -0.0000401   0.0001474  -0.0000032   0.0000337   0.0000113   0.0000267
    3  -0.0002922   0.0002450  -0.0000035  -0.0000072   0.0000119  -0.0000519
           13
    1  -0.0002646
    2  -0.0000750
    3   0.0004037
 Max gradient component =       3.303E-03
 RMS gradient           =       7.892E-04
 Gradient time:  CPU 11.89 s  wall 1.06 s
 Geometry Optimization Parameters
   NAtoms,    NIC,     NZ,  NCons,   NDum,   NFix, NCnnct, MaxDiis
       13      90       0       1       0       0       0       0

 Cartesian Hessian Update
 Hessian Updated using BFGS Update


** CONSTRAINED OPTIMIZATION IN DELOCALIZED INTERNAL COORDINATES **
   Searching for a Minimum

   Optimization Cycle:   2

                       Coordinates (Angstroms)
     ATOM                X               Y               Z
      1  S         0.5514186582   -1.5240154384    1.0747721730
      2  S        -2.1447938996   -0.1139113743    0.8031151601
      3  C         0.4686807106   -0.0371210209   -0.0416461261
      4  C        -0.6514979970    0.8803013135    0.4439588438
      5  C         1.8151128015    0.6665734466   -0.1921907802
      6  H         0.1505142454   -0.4790433083   -0.9851638415
      7  H        -0.3367016064    1.4226860044    1.3423073549
      8  H        -0.9107413954    1.6187363031   -0.3245964186
      9  H         1.7275645521    1.4986385855   -0.9005349141
     10  H         2.1609921992    1.0750486726    0.7633394233
     11  H         2.5781470556   -0.0211433629   -0.5654519643
     12  H         0.8941906623   -0.8521951913    2.1949567108
     13  H        -2.0631879866   -1.0095536295   -1.4238676212
   Point Group: c1    Number of degrees of freedom:    33


   Energy is   -915.386595873

              Constraints and their Current Values
                                        Value     Constraint
   Distance(Angs):        2  13             2.401726     2.400000
 Hessian Updated using BFGS Update

   Using Lagrange Multiplier Algorithm


 32 Hessian modes will be used to form the next step
  Hessian Eigenvalues:
    -0.995944    0.024807    0.045000    0.045030    0.045974    0.048854
     0.069325    0.074888    0.079744    0.082629    0.083674    0.085768
     0.109455    0.121776    0.125984    0.154093    0.159997    0.160005
     0.169431    0.189991    0.218364    0.233766    0.256054    0.289109
     0.297485    0.340280    0.341026    0.341787    0.342138    0.344749
     0.368675    1.004614

 Minimum Search - Taking P-RFO Step
 Searching for Lamda that Maximizes Along the Constraint modes Only
 Value Taken    Lamda =   0.00000000
 Searching for Lamda that Minimizes Along All other modes
 Value Taken    Lamda =  -0.00007805
 Step Taken.  Stepsize is  0.016476

                             Maximum     Tolerance    Cnvgd?
         Gradient            0.003261       0.000300      NO
         Displacement        0.009019       0.001200      NO
         Energy change      0.000017       0.000001      NO


 New Cartesian Coordinates Obtained by Inverse Iteration

 Displacement from previous Coordinates is:  0.020461
 ----------------------------------------------------------------
             Standard Nuclear Orientation (Angstroms)
    I     Atom           X                Y                Z
 ----------------------------------------------------------------
    1      S       0.5507131055    -1.5243208660     1.0748033782
    2      S      -2.1456782194    -0.1137123723     0.8050457840
    3      C       0.4700944088    -0.0374833053    -0.0421001460
    4      C      -0.6519648867     0.8802512357     0.4454291152
    5      C       1.8159144030     0.6667572796    -0.1933905918
    6      H       0.1526727023    -0.4814171797    -0.9894752593
    7      H      -0.3418386359     1.4236648056     1.3448735094
    8      H      -0.9096177996     1.6175763617    -0.3247219461
    9      H       1.7280409888     1.4986408206    -0.9019232313
   10      H       2.1614992776     1.0755387547     0.7620803310
   11      H       2.5791088315    -0.0207685783    -0.5666191513
   12      H       0.8912597661    -0.8528965945     2.1959532116
   13      H      -2.0605059420    -1.0068293620    -1.4209570035
 ----------------------------------------------------------------
 Nuclear Repulsion Energy =   289.6625842032 hartrees
 There are       30 alpha and       28 beta electrons

                       Distance Matrix (Angstroms)
             S (  1)   S (  2)   C (  3)   C (  4)   C (  5)   H (  6)
   S (  2)  3.055014
   C (  3)  1.861359  2.750588
   C (  4)  2.761252  1.829882  1.529359
   C (  5)  2.830172  4.159354  1.526458  2.558144
   H (  6)  2.346770  2.939035  1.093322  2.135540  2.172194
   H (  7)  3.091958  2.430798  2.172069  1.095663  2.755914  3.053369
   H (  8)  3.736677  2.408647  2.173178  1.096889  2.889607  2.444613
   H (  9)  3.798927  4.529804  2.163655  2.803960  1.096253  2.531814
   H ( 10)  3.074361  4.468550  2.178618  2.837955  1.095197  3.086656
   H ( 11)  3.011532  4.920743  2.173325  3.503700  1.092912  2.505713
   H ( 12)  1.350466  3.421112  2.418918  2.906833  2.978808  3.290967
   H ( 13)  3.648984  2.400000  3.040529  3.004739  4.397095  2.315253
             H (  7)   H (  8)   H (  9)   H ( 10)   H ( 11)   H ( 12)
   H (  8)  1.774126
   H (  9)  3.055834  2.702693
   H ( 10)  2.593750  3.302530  1.770822
   H ( 11)  3.777847  3.861852  1.773514  1.772493
   H ( 12)  2.725362  3.962348  3.978287  2.718154  3.342615
   H ( 13)  4.063365  3.068188  4.571637  5.189146  4.819568  4.671044

 
 Applying Cartesian multipole field
    Component          Value
    ---------          -----
     (2,0,0)        1.00000E-11
     (0,2,0)        2.00000E-11
     (0,0,2)       -3.00000E-11
 Nucleus-field energy     =     0.0000000038 hartrees
 Requested basis set is 6-31G(d,p)
 There are 46 shells and 123 basis functions
 A cutoff of  1.0D-14 yielded   1029 shell pairs
 There are      7538 function pairs
 Smallest overlap matrix eigenvalue = 5.32E-03
 Guess from superposition of atomic densities
 Warning:  Energy on first SCF cycle will be non-variational
 SAD guess density has 58.000000 electrons

 -----------------------------------------------------------------------
  General SCF calculation program by
  Eric Jon Sundstrom, Paul Horn, Yuezhi Mao, Dmitri Zuev, Alec White,
  David Stuck, Shaama M.S., Shane Yost, Joonho Lee, David Small,
  Daniel Levine, Susi Lehtola, Hugh Burton, Evgeny Epifanovsky
 -----------------------------------------------------------------------
 Exchange:     0.2000 Hartree-Fock + 0.0800 Slater + 0.7200 B88
 Correlation:  0.1900 VWN1RPA + 0.8100 LYP
 Using SG-1 standard quadrature grid
 using 12 threads for integral computing
 -------------------------------------------------------
 OpenMP Integral computing Module                
 Release: version 1.0, May 2013, Q-Chem Inc. Pittsburgh 
 -------------------------------------------------------
 -------------------------------------------------------
 OpenMP BLAS3 based DFT computing Module                
 Release: version 1.0, May 2013, Q-Chem Inc. Pittsburgh 
 -------------------------------------------------------
 A unrestricted SCF calculation will be
 performed using DIIS
 SCF converges when DIIS error is below 1.0e-06
 Alpha HF Exchange    Energy =  -6.84084298441032
 Beta HF Exchange     Energy =  -6.84084298441032
 DFT Correlation      Energy =  -2.70745156549398
 DFT Exchange         Energy = -53.83007653111098
 One-Electron (alpha) Energy = -915.67704379533484
 One-Electron (beta)  Energy = -915.67704379533484
 Total Coulomb        Energy = 695.98164140721360
 ---------------------------------------
  Cycle       Energy         DIIS error
 ---------------------------------------
    1    -915.9290760418      2.71e-02  
 Alpha HF Exchange    Energy =  -6.93949485120864
 Beta HF Exchange     Energy =  -6.74843050319972
 DFT Correlation      Energy =  -2.72155071656490
 DFT Exchange         Energy = -54.34238289667481
 One-Electron (alpha) Energy = -932.53088006766325
 One-Electron (beta)  Energy = -903.90056005201802
 Total Coulomb        Energy = 702.21769938425359
    2    -915.3030154960      2.87e-03  
 Alpha HF Exchange    Energy =  -6.90406669904873
 Beta HF Exchange     Energy =  -6.72406226024264
 DFT Correlation      Energy =  -2.69892057617737
 DFT Exchange         Energy = -54.04937387885860
 One-Electron (alpha) Energy = -930.04043110188388
 One-Electron (beta)  Energy = -902.10243000767900
 Total Coulomb        Energy = 697.57664448078117
    3    -915.2800558361      3.52e-03  
 Alpha HF Exchange    Energy =  -6.92029475992089
 Beta HF Exchange     Energy =  -6.73799224122388
 DFT Correlation      Energy =  -2.70847376167671
 DFT Exchange         Energy = -54.18527253666470
 One-Electron (alpha) Energy = -931.24654741920551
 One-Electron (beta)  Energy = -903.25569046206169
 Total Coulomb        Energy = 700.00823585764329
    4    -915.3834511161      5.20e-04  
 Alpha HF Exchange    Energy =  -6.92208048340115
 Beta HF Exchange     Energy =  -6.74001943458446
 DFT Correlation      Energy =  -2.70789427191003
 DFT Exchange         Energy = -54.19591032026692
 One-Electron (alpha) Energy = -931.21452188103717
 One-Electron (beta)  Energy = -903.28084643715749
 Total Coulomb        Energy = 700.01276397380263
    5    -915.3859246475      2.39e-04  
 Alpha HF Exchange    Energy =  -6.92232401692900
 Beta HF Exchange     Energy =  -6.74075279473607
 DFT Correlation      Energy =  -2.70755851789805
 DFT Exchange         Energy = -54.19850473720825
 One-Electron (alpha) Energy = -931.21320968567773
 One-Electron (beta)  Energy = -903.34152209729359
 Total Coulomb        Energy = 700.07475255873601
    6    -915.3865350840      6.69e-05  
 Alpha HF Exchange    Energy =  -6.92210701202939
 Beta HF Exchange     Energy =  -6.74126922247204
 DFT Correlation      Energy =  -2.70726447489502
 DFT Exchange         Energy = -54.19837076445830
 One-Electron (alpha) Energy = -931.17232831429112
 One-Electron (beta)  Energy = -903.35089899281206
 Total Coulomb        Energy = 700.04303780155294
    7    -915.3866167724      2.75e-05  
 Alpha HF Exchange    Energy =  -6.92220518088846
 Beta HF Exchange     Energy =  -6.74162099749633
 DFT Correlation      Energy =  -2.70722176920145
 DFT Exchange         Energy = -54.19983863977541
 One-Electron (alpha) Energy = -931.17894472530622
 One-Electron (beta)  Energy = -903.37954818476851
 Total Coulomb        Energy = 700.08016614384326
    8    -915.3866291466      9.14e-06  
 Alpha HF Exchange    Energy =  -6.92213465912571
 Beta HF Exchange     Energy =  -6.74169990609510
 DFT Correlation      Energy =  -2.70718577739709
 DFT Exchange         Energy = -54.19972042663221
 One-Electron (alpha) Energy = -931.17046665884152
 One-Electron (beta)  Energy = -903.38074645013171
 Total Coulomb        Energy = 700.07273910546587
    9    -915.3866305657      4.62e-06  
 Alpha HF Exchange    Energy =  -6.92212890330943
 Beta HF Exchange     Energy =  -6.74172022937159
 DFT Correlation      Energy =  -2.70717689307917
 DFT Exchange         Energy = -54.19976070870024
 One-Electron (alpha) Energy = -931.16898676678113
 One-Electron (beta)  Energy = -903.38260265578879
 Total Coulomb        Energy = 700.07316111715954
   10    -915.3866308328      1.47e-06  
 Alpha HF Exchange    Energy =  -6.92213139272782
 Beta HF Exchange     Energy =  -6.74173450509133
 DFT Correlation      Energy =  -2.70717980882611
 DFT Exchange         Energy = -54.19982139191683
 One-Electron (alpha) Energy = -931.16940473877946
 One-Electron (beta)  Energy = -903.38382938056179
 Total Coulomb        Energy = 700.07488614657291
   11    -915.3866308643      5.49e-07  Convergence criterion met
 ---------------------------------------
 SCF time:   CPU 35.85s  wall 3.00s 
<S^2> =          2.005653837
 Alpha HF Exchange    Energy =  -6.92213139272782
 Beta HF Exchange     Energy =  -6.74173450509133
 DFT Correlation      Energy =  -2.70717980882611
 DFT Exchange         Energy = -54.19982139191683
 One-Electron (alpha) Energy = -931.16940473877946
 One-Electron (beta)  Energy = -903.38382938056179
 Total Coulomb        Energy = 700.07488614657291
 Nuclear repulsion Energy = 289.66258420704065
 SCF   energy in the final basis set =     -915.3866308643
 Total energy in the final basis set =     -915.3866308643
 
 --------------------------------------------------------------
 
                    Orbital Energies (a.u.)
 --------------------------------------------------------------
 
 Alpha MOs
 -- Occupied --
-88.901 -88.894 -10.248 -10.234 -10.202  -7.963  -7.953  -5.927
 -5.924  -5.922  -5.920  -5.915  -5.908  -0.850  -0.760  -0.728
 -0.651  -0.593  -0.486  -0.456  -0.441  -0.424  -0.408  -0.368
 -0.358  -0.336  -0.297  -0.293  -0.249  -0.202
 -- Virtual --
  0.003   0.042   0.056   0.095   0.118   0.131   0.152   0.160
  0.168   0.195   0.210   0.299   0.326   0.345   0.350   0.386
  0.395   0.427   0.466   0.477   0.509   0.534   0.559   0.572
  0.620   0.652   0.667   0.708   0.734   0.753   0.778   0.786
  0.809   0.820   0.845   0.846   0.869   0.877   0.908   0.923
  0.928   0.940   0.974   1.036   1.078   1.109   1.179   1.352
  1.373   1.391   1.553   1.621   1.702   1.764   1.823   1.847
  1.919   2.013   2.018   2.026   2.052   2.061   2.075   2.087
  2.101   2.106   2.131   2.172   2.240   2.278   2.347   2.436
  2.471   2.568   2.585   2.627   2.703   2.720   2.733   2.815
  2.854   2.884   3.171   3.219   3.320   3.419   3.443   3.468
  3.908   3.976   4.244   4.437   4.584
 
 Beta MOs
 -- Occupied --
-88.900 -88.888 -10.247 -10.234 -10.203  -7.962  -7.947  -5.927
 -5.923  -5.917  -5.911  -5.905  -5.902  -0.846  -0.746  -0.725
 -0.630  -0.586  -0.483  -0.454  -0.436  -0.421  -0.405  -0.366
 -0.349  -0.331  -0.261  -0.240
 -- Virtual --
 -0.144  -0.048   0.007   0.048   0.062   0.098   0.119   0.133
  0.154   0.161   0.170   0.199   0.211   0.306   0.338   0.351
  0.354   0.394   0.413   0.443   0.476   0.485   0.511   0.539
  0.567   0.577   0.629   0.659   0.679   0.715   0.744   0.778
  0.803   0.814   0.831   0.832   0.856   0.867   0.878   0.884
  0.923   0.929   0.944   0.980   0.996   1.061   1.088   1.110
  1.185   1.353   1.375   1.392   1.554   1.623   1.702   1.766
  1.824   1.849   1.921   2.024   2.025   2.057   2.072   2.087
  2.091   2.107   2.141   2.162   2.183   2.244   2.265   2.297
  2.348   2.438   2.471   2.570   2.586   2.628   2.703   2.720
  2.733   2.816   2.854   2.884   3.171   3.221   3.321   3.420
  3.444   3.469   3.924   3.981   4.244   4.436   4.585
 --------------------------------------------------------------
 
          Ground-State Mulliken Net Atomic Charges

     Atom                 Charge (a.u.)    Spin (a.u.)
  --------------------------------------------------------
      1 S                     0.023196       0.135823
      2 S                     0.049635       1.001354
      3 C                    -0.219621       0.021025
      4 C                    -0.323561      -0.034306
      5 C                    -0.308399      -0.001349
      6 H                     0.164931      -0.001168
      7 H                     0.136820       0.002096
      8 H                     0.151968       0.014822
      9 H                     0.119641       0.000908
     10 H                     0.112255       0.000902
     11 H                     0.133089       0.000512
     12 H                     0.069864      -0.004407
     13 H                    -0.109819       0.863787
  --------------------------------------------------------
  Sum of atomic charges =     0.000000
  Sum of spin   charges =     2.000000

 -----------------------------------------------------------------
                    Cartesian Multipole Moments
 -----------------------------------------------------------------
    Charge (ESU x 10^10)
                 0.0000
    Dipole Moment (Debye)
         X       2.7260      Y       2.3216      Z       0.4554
       Tot       3.6095
    Quadrupole Moments (Debye-Ang)
        XX     -52.1442     XY      -1.1538     YY     -48.7414
        XZ       0.8040     YZ      -0.6013     ZZ     -46.7128
    Octopole Moments (Debye-Ang^2)
       XXX      41.8384    XXY      16.8546    XYY       8.7488
       YYY      41.8115    XXZ     -25.1724    XYZ       2.7648
       YYZ     -24.9785    XZZ      21.1698    YZZ      11.1588
       ZZZ     -66.2119
    Hexadecapole Moments (Debye-Ang^3)
      XXXX    -678.9320   XXXY      -1.8588   XXYY    -169.5949
      XYYY       1.3364   YYYY    -328.9309   XXXZ      39.3237
      XXYZ      13.9999   XYYZ      11.1769   YYYZ      57.7720
      XXZZ    -167.3459   XYZZ      -4.1788   YYZZ     -93.2770
      XZZZ      54.7264   YZZZ      47.5863   ZZZZ    -250.5660
 -----------------------------------------------------------------
 Calculating analytic gradient of the SCF energy
 Gradient of SCF Energy
            1           2           3           4           5           6
    1   0.0000671   0.0002884  -0.0001264   0.0000557   0.0001409  -0.0002592
    2   0.0000302  -0.0001974  -0.0002598  -0.0002367  -0.0000302   0.0005125
    3  -0.0000006  -0.0009628  -0.0005314  -0.0000433   0.0000969   0.0009545
            7           8           9          10          11          12
    1   0.0001461  -0.0001134   0.0000056  -0.0000236   0.0000089   0.0000539
    2   0.0001354   0.0000567   0.0000217   0.0000067   0.0000236   0.0000043
    3  -0.0000223   0.0001182  -0.0000100  -0.0000057   0.0000035  -0.0000102
           13
    1  -0.0002441
    2  -0.0000670
    3   0.0004132
 Max gradient component =       9.628E-04
 RMS gradient           =       2.802E-04
 Gradient time:  CPU 11.88 s  wall 1.08 s
 Geometry Optimization Parameters
   NAtoms,    NIC,     NZ,  NCons,   NDum,   NFix, NCnnct, MaxDiis
       13      90       0       1       0       0       0       0

 Cartesian Hessian Update
 Hessian Updated using BFGS Update


** CONSTRAINED OPTIMIZATION IN DELOCALIZED INTERNAL COORDINATES **
   Searching for a Minimum

   Optimization Cycle:   3

                       Coordinates (Angstroms)
     ATOM                X               Y               Z
      1  S         0.5507131055   -1.5243208660    1.0748033782
      2  S        -2.1456782194   -0.1137123723    0.8050457840
      3  C         0.4700944088   -0.0374833053   -0.0421001460
      4  C        -0.6519648867    0.8802512357    0.4454291152
      5  C         1.8159144030    0.6667572796   -0.1933905918
      6  H         0.1526727023   -0.4814171797   -0.9894752593
      7  H        -0.3418386359    1.4236648056    1.3448735094
      8  H        -0.9096177996    1.6175763617   -0.3247219461
      9  H         1.7280409888    1.4986408206   -0.9019232313
     10  H         2.1614992776    1.0755387547    0.7620803310
     11  H         2.5791088315   -0.0207685783   -0.5666191513
     12  H         0.8912597661   -0.8528965945    2.1959532116
     13  H        -2.0605059420   -1.0068293620   -1.4209570035
   Point Group: c1    Number of degrees of freedom:    33


   Energy is   -915.386630864

              Constraints and their Current Values
                                        Value     Constraint
   Distance(Angs):        2  13             2.400000     2.400000
 Hessian Updated using BFGS Update

 31 Hessian modes will be used to form the next step
  Hessian Eigenvalues:
     0.023879    0.044311    0.045000    0.045357    0.047982    0.069334
     0.074870    0.079404    0.082633    0.083675    0.086072    0.101210
     0.122122    0.129465    0.137155    0.156285    0.160001    0.160004
     0.160671    0.185141    0.218349    0.233241    0.256055    0.290232
     0.297129    0.338966    0.340339    0.341041    0.342132    0.344746
     0.359581

 Minimum Search - Taking Simple RFO Step
 Searching for Lamda that Minimizes Along All modes
 Value Taken    Lamda =  -0.00001738
 Step Taken.  Stepsize is  0.016359

                             Maximum     Tolerance    Cnvgd?
         Gradient           0.000712      0.000300      NO
         Displacement       0.008489      0.001200      NO
         Energy change     -0.000035      0.000001      NO


 New Cartesian Coordinates Obtained by Inverse Iteration

 Displacement from previous Coordinates is:  0.020949
 ----------------------------------------------------------------
             Standard Nuclear Orientation (Angstroms)
    I     Atom           X                Y                Z
 ----------------------------------------------------------------
    1      S       0.5499376034    -1.5249977903     1.0749055947
    2      S      -2.1461328797    -0.1134051186     0.8089672344
    3      C       0.4706071503    -0.0383526498    -0.0425006521
    4      C      -0.6521942453     0.8794430304     0.4457217913
    5      C       1.8154729991     0.6669896209    -0.1941919063
    6      H       0.1552657937    -0.4833022461    -0.9921026770
    7      H      -0.3429243875     1.4227504244     1.3452653910
    8      H      -0.9089780975     1.6159175701    -0.3255842453
    9      H       1.7264869281     1.4983379779    -0.9031706585
   10      H       2.1610194695     1.0766657559     0.7609336621
   11      H       2.5791376079    -0.0200862315    -0.5672952629
   12      H       0.8873655044    -0.8531111796     2.1967339287
   13      H      -2.0553654464    -1.0018481637    -1.4186841999
 ----------------------------------------------------------------
 Nuclear Repulsion Energy =   289.6278604365 hartrees
 There are       30 alpha and       28 beta electrons

                       Distance Matrix (Angstroms)
             S (  1)   S (  2)   C (  3)   C (  4)   C (  5)   H (  6)
   S (  2)  3.054851
   C (  3)  1.861452  2.752809
   C (  4)  2.760857  1.830177  1.530161
   C (  5)  2.831430  4.160489  1.526166  2.558126
   H (  6)  2.348067  2.945694  1.095064  2.139254  2.171663
   H (  7)  3.091847  2.428776  2.173143  1.095449  2.756770  3.056881
   H (  8)  3.735660  2.410045  2.172556  1.096926  2.887968  2.446137
   H (  9)  3.799686  4.530598  2.163193  2.803688  1.096225  2.530522
   H ( 10)  3.076169  4.468796  2.178593  2.837680  1.095218  3.087019
   H ( 11)  3.013177  4.922498  2.172934  3.503835  1.092915  2.504034
   H ( 12)  1.350477  3.416895  2.419027  2.904829  2.981378  3.292629
   H ( 13)  3.644075  2.400000  3.033602  2.997358  4.389509  2.310358
             H (  7)   H (  8)   H (  9)   H ( 10)   H ( 11)   H ( 12)
   H (  8)  1.774674
   H (  9)  3.056737  2.700575
   H ( 10)  2.594408  3.300939  1.770839
   H ( 11)  3.778639  3.860296  1.773538  1.772535
   H ( 12)  2.723630  3.960435  3.980307  2.721719  3.346025
   H ( 13)  4.055928  3.059701  4.562794  5.181588  4.813246  4.664015

 
 Applying Cartesian multipole field
    Component          Value
    ---------          -----
     (2,0,0)        1.00000E-11
     (0,2,0)        2.00000E-11
     (0,0,2)       -3.00000E-11
 Nucleus-field energy     =     0.0000000038 hartrees
 Requested basis set is 6-31G(d,p)
 There are 46 shells and 123 basis functions
 A cutoff of  1.0D-14 yielded   1029 shell pairs
 There are      7538 function pairs
 Smallest overlap matrix eigenvalue = 5.33E-03
 Guess from superposition of atomic densities
 Warning:  Energy on first SCF cycle will be non-variational
 SAD guess density has 58.000000 electrons

 -----------------------------------------------------------------------
  General SCF calculation program by
  Eric Jon Sundstrom, Paul Horn, Yuezhi Mao, Dmitri Zuev, Alec White,
  David Stuck, Shaama M.S., Shane Yost, Joonho Lee, David Small,
  Daniel Levine, Susi Lehtola, Hugh Burton, Evgeny Epifanovsky
 -----------------------------------------------------------------------
 Exchange:     0.2000 Hartree-Fock + 0.0800 Slater + 0.7200 B88
 Correlation:  0.1900 VWN1RPA + 0.8100 LYP
 Using SG-1 standard quadrature grid
 using 12 threads for integral computing
 -------------------------------------------------------
 OpenMP Integral computing Module                
 Release: version 1.0, May 2013, Q-Chem Inc. Pittsburgh 
 -------------------------------------------------------
 -------------------------------------------------------
 OpenMP BLAS3 based DFT computing Module                
 Release: version 1.0, May 2013, Q-Chem Inc. Pittsburgh 
 -------------------------------------------------------
 A unrestricted SCF calculation will be
 performed using DIIS
 SCF converges when DIIS error is below 1.0e-06
 Alpha HF Exchange    Energy =  -6.84064782115279
 Beta HF Exchange     Energy =  -6.84064782115279
 DFT Correlation      Energy =  -2.70742108471368
 DFT Exchange         Energy = -53.82967976173863
 One-Electron (alpha) Energy = -915.64344349665953
 One-Electron (beta)  Energy = -915.64344349665953
 Total Coulomb        Energy = 695.94990759336827
 ---------------------------------------
  Cycle       Energy         DIIS error
 ---------------------------------------
    1    -915.9275154485      2.71e-02  
 Alpha HF Exchange    Energy =  -6.93938446306610
 Beta HF Exchange     Energy =  -6.74831218238970
 DFT Correlation      Energy =  -2.72151871760316
 DFT Exchange         Energy = -54.34158041459921
 One-Electron (alpha) Energy = -932.50115833960012
 One-Electron (beta)  Energy = -903.86298721652997
 Total Coulomb        Energy = 702.18401156774007
    2    -915.3030693258      2.86e-03  
 Alpha HF Exchange    Energy =  -6.90397520200146
 Beta HF Exchange     Energy =  -6.72395271844614
 DFT Correlation      Energy =  -2.69889609259031
 DFT Exchange         Energy = -54.04869730609511
 One-Electron (alpha) Energy = -930.01232201331288
 One-Electron (beta)  Energy = -902.06524485423370
 Total Coulomb        Energy = 697.54513100651070
    3    -915.2800967399      3.52e-03  
 Alpha HF Exchange    Energy =  -6.92019797189344
 Beta HF Exchange     Energy =  -6.73786760079811
 DFT Correlation      Energy =  -2.70844809848100
 DFT Exchange         Energy = -54.18452258026252
 One-Electron (alpha) Energy = -931.21717151324538
 One-Electron (beta)  Energy = -903.21638637539877
 Total Coulomb        Energy = 699.97327151918705
    4    -915.3834621806      5.20e-04  
 Alpha HF Exchange    Energy =  -6.92198674305381
 Beta HF Exchange     Energy =  -6.73990136447042
 DFT Correlation      Energy =  -2.70786748498457
 DFT Exchange         Energy = -54.19518938717123
 One-Electron (alpha) Energy = -931.18552405916910
 One-Electron (beta)  Energy = -903.24228360979419
 Total Coulomb        Energy = 699.97895757458048
    5    -915.3859346338      2.39e-04  
 Alpha HF Exchange    Energy =  -6.92223197812864
 Beta HF Exchange     Energy =  -6.74063792251172
 DFT Correlation      Energy =  -2.70753184476480
 DFT Exchange         Energy = -54.19780039154965
 One-Electron (alpha) Energy = -931.18427430955535
 One-Electron (beta)  Energy = -903.30308427498710
 Total Coulomb        Energy = 700.04115381437634
    6    -915.3865464669      6.69e-05  
 Alpha HF Exchange    Energy =  -6.92201318160052
 Beta HF Exchange     Energy =  -6.74115398484526
 DFT Correlation      Energy =  -2.70723621739759
 DFT Exchange         Energy = -54.19765443183639
 One-Electron (alpha) Energy = -931.14316000015685
 One-Electron (beta)  Energy = -903.31235301281367
 Total Coulomb        Energy = 700.00908203100335
    7    -915.3866283574      2.75e-05  
 Alpha HF Exchange    Energy =  -6.92211236208921
 Beta HF Exchange     Energy =  -6.74150789302553
 DFT Correlation      Energy =  -2.70719359350511
 DFT Exchange         Energy = -54.19913315719278
 One-Electron (alpha) Energy = -931.14985193993959
 One-Electron (beta)  Energy = -903.34113417636058
 Total Coulomb        Energy = 700.04643190510865
    8    -915.3866407767      9.15e-06  
 Alpha HF Exchange    Energy =  -6.92204151792307
 Beta HF Exchange     Energy =  -6.74158671014482
 DFT Correlation      Energy =  -2.70715732904858
 DFT Exchange         Energy = -54.19901301704589
 One-Electron (alpha) Energy = -931.14132402608288
 One-Electron (beta)  Energy = -903.34232007104367
 Total Coulomb        Energy = 700.03894003272501
    9    -915.3866421983      4.61e-06  
 Alpha HF Exchange    Energy =  -6.92203586820804
 Beta HF Exchange     Energy =  -6.74160712814618
 DFT Correlation      Energy =  -2.70714849237563
 DFT Exchange         Energy = -54.19905410762279
 One-Electron (alpha) Energy = -931.13985689025628
 One-Electron (beta)  Energy = -903.34418518311850
 Total Coulomb        Energy = 700.03938476606231
   10    -915.3866424634      1.47e-06  
 Alpha HF Exchange    Energy =  -6.92203832421698
 Beta HF Exchange     Energy =  -6.74162137511444
 DFT Correlation      Energy =  -2.70715140642475
 DFT Exchange         Energy = -54.19911455112118
 One-Electron (alpha) Energy = -931.14027186302008
 One-Electron (beta)  Energy = -903.34540770474496
 Total Coulomb        Energy = 700.04110228968386
   11    -915.3866424947      5.48e-07  Convergence criterion met
 ---------------------------------------
 SCF time:   CPU 35.89s  wall 3.00s 
<S^2> =          2.005662650
 Alpha HF Exchange    Energy =  -6.92203832421698
 Beta HF Exchange     Energy =  -6.74162137511444
 DFT Correlation      Energy =  -2.70715140642475
 DFT Exchange         Energy = -54.19911455112118
 One-Electron (alpha) Energy = -931.14027186302008
 One-Electron (beta)  Energy = -903.34540770474496
 Total Coulomb        Energy = 700.04110228968386
 Nuclear repulsion Energy = 289.62786044025506
 SCF   energy in the final basis set =     -915.3866424947
 Total energy in the final basis set =     -915.3866424947
 
 --------------------------------------------------------------
 
                    Orbital Energies (a.u.)
 --------------------------------------------------------------
 
 Alpha MOs
 -- Occupied --
-88.901 -88.894 -10.248 -10.234 -10.202  -7.963  -7.953  -5.927
 -5.924  -5.922  -5.920  -5.915  -5.908  -0.850  -0.760  -0.729
 -0.651  -0.593  -0.486  -0.456  -0.441  -0.424  -0.408  -0.368
 -0.358  -0.336  -0.297  -0.293  -0.249  -0.202
 -- Virtual --
  0.003   0.042   0.056   0.095   0.118   0.131   0.152   0.160
  0.168   0.195   0.210   0.299   0.326   0.345   0.350   0.386
  0.395   0.427   0.466   0.477   0.509   0.534   0.559   0.572
  0.620   0.652   0.667   0.708   0.734   0.753   0.778   0.786
  0.808   0.820   0.845   0.845   0.869   0.877   0.908   0.923
  0.928   0.939   0.974   1.036   1.078   1.108   1.179   1.353
  1.372   1.391   1.554   1.621   1.702   1.764   1.823   1.847
  1.918   2.013   2.018   2.026   2.052   2.061   2.075   2.087
  2.101   2.106   2.131   2.172   2.240   2.278   2.347   2.435
  2.471   2.569   2.584   2.627   2.703   2.719   2.732   2.814
  2.854   2.884   3.171   3.220   3.318   3.419   3.443   3.467
  3.908   3.976   4.244   4.437   4.584
 
 Beta MOs
 -- Occupied --
-88.900 -88.888 -10.247 -10.234 -10.203  -7.962  -7.947  -5.927
 -5.923  -5.917  -5.911  -5.905  -5.902  -0.846  -0.746  -0.725
 -0.630  -0.586  -0.483  -0.454  -0.436  -0.421  -0.405  -0.366
 -0.349  -0.331  -0.261  -0.240
 -- Virtual --
 -0.144  -0.048   0.007   0.048   0.062   0.098   0.118   0.134
  0.154   0.161   0.170   0.199   0.211   0.306   0.338   0.351
  0.354   0.393   0.413   0.443   0.476   0.485   0.511   0.540
  0.567   0.577   0.629   0.659   0.679   0.715   0.744   0.778
  0.803   0.813   0.831   0.832   0.856   0.867   0.878   0.884
  0.923   0.929   0.944   0.980   0.996   1.061   1.088   1.110
  1.185   1.354   1.374   1.392   1.555   1.622   1.702   1.766
  1.825   1.848   1.921   2.023   2.024   2.057   2.072   2.086
  2.090   2.106   2.141   2.162   2.183   2.244   2.264   2.297
  2.348   2.437   2.471   2.570   2.585   2.627   2.703   2.720
  2.733   2.815   2.854   2.884   3.171   3.221   3.319   3.419
  3.444   3.467   3.924   3.981   4.244   4.436   4.584
 --------------------------------------------------------------
 
          Ground-State Mulliken Net Atomic Charges

     Atom                 Charge (a.u.)    Spin (a.u.)
  --------------------------------------------------------
      1 S                     0.023218       0.136123
      2 S                     0.049393       1.001308
      3 C                    -0.219379       0.021260
      4 C                    -0.323655      -0.034360
      5 C                    -0.308285      -0.001378
      6 H                     0.164631      -0.001179
      7 H                     0.136992       0.001974
      8 H                     0.151933       0.014845
      9 H                     0.119707       0.000912
     10 H                     0.112260       0.000924
     11 H                     0.133029       0.000515
     12 H                     0.069945      -0.004431
     13 H                    -0.109790       0.863487
  --------------------------------------------------------
  Sum of atomic charges =    -0.000000
  Sum of spin   charges =     2.000000

 -----------------------------------------------------------------
                    Cartesian Multipole Moments
 -----------------------------------------------------------------
    Charge (ESU x 10^10)
                 0.0000
    Dipole Moment (Debye)
         X       2.7252      Y       2.3180      Z       0.4525
       Tot       3.6062
    Quadrupole Moments (Debye-Ang)
        XX     -52.1496     XY      -1.1470     YY     -48.7418
        XZ       0.7967     YZ      -0.5941     ZZ     -46.7026
    Octopole Moments (Debye-Ang^2)
       XXX      41.8479    XXY      16.8558    XYY       8.7549
       YYY      41.8209    XXZ     -25.2471    XYZ       2.7607
       YYZ     -25.0387    XZZ      21.1522    YZZ      11.1463
       ZZZ     -66.3609
    Hexadecapole Moments (Debye-Ang^3)
      XXXX    -678.7198   XXXY      -1.7812   XXYY    -169.5673
      XYYY       1.4161   YYYY    -328.9711   XXXZ      39.7841
      XXYZ      14.0930   XYYZ      11.3388   YYYZ      57.8993
      XXZZ    -167.3877   XYZZ      -4.0975   YYZZ     -93.3318
      XZZZ      55.2306   YZZZ      47.6778   ZZZZ    -251.0588
 -----------------------------------------------------------------
 Calculating analytic gradient of the SCF energy
 Gradient of SCF Energy
            1           2           3           4           5           6
    1  -0.0000392   0.0001426   0.0004845  -0.0000350  -0.0000135  -0.0002542
    2   0.0000164  -0.0001403   0.0000772   0.0000357  -0.0000200   0.0000066
    3   0.0000382  -0.0006716   0.0000896   0.0003229  -0.0000691  -0.0001246
            7           8           9          10          11          12
    1  -0.0001129   0.0000345   0.0000008  -0.0000353  -0.0000115   0.0000299
    2   0.0000201   0.0000247   0.0000152   0.0000058   0.0000097   0.0000075
    3   0.0000292  -0.0000230   0.0000017   0.0000039   0.0000073   0.0000017
           13
    1  -0.0001905
    2  -0.0000585
    3   0.0003939
 Max gradient component =       6.716E-04
 RMS gradient           =       1.717E-04
 Gradient time:  CPU 11.93 s  wall 1.09 s
 Geometry Optimization Parameters
   NAtoms,    NIC,     NZ,  NCons,   NDum,   NFix, NCnnct, MaxDiis
       13      90       0       1       0       0       0       0

 Cartesian Hessian Update
 Hessian Updated using BFGS Update


** CONSTRAINED OPTIMIZATION IN DELOCALIZED INTERNAL COORDINATES **
   Searching for a Minimum

   Optimization Cycle:   4

                       Coordinates (Angstroms)
     ATOM                X               Y               Z
      1  S         0.5499376034   -1.5249977903    1.0749055947
      2  S        -2.1461328797   -0.1134051186    0.8089672344
      3  C         0.4706071503   -0.0383526498   -0.0425006521
      4  C        -0.6521942453    0.8794430304    0.4457217913
      5  C         1.8154729991    0.6669896209   -0.1941919063
      6  H         0.1552657937   -0.4833022461   -0.9921026770
      7  H        -0.3429243875    1.4227504244    1.3452653910
      8  H        -0.9089780975    1.6159175701   -0.3255842453
      9  H         1.7264869281    1.4983379779   -0.9031706585
     10  H         2.1610194695    1.0766657559    0.7609336621
     11  H         2.5791376079   -0.0200862315   -0.5672952629
     12  H         0.8873655044   -0.8531111796    2.1967339287
     13  H        -2.0553654464   -1.0018481637   -1.4186841999
   Point Group: c1    Number of degrees of freedom:    33


   Energy is   -915.386642495

              Constraints and their Current Values
                                        Value     Constraint
   Distance(Angs):        2  13             2.400000     2.400000
 Hessian Updated using BFGS Update

 32 Hessian modes will be used to form the next step
  Hessian Eigenvalues:
     0.017850    0.037262    0.045000    0.045174    0.046892    0.069351
     0.073880    0.075034    0.082604    0.083624    0.085246    0.089968
     0.122503    0.127896    0.144865    0.158685    0.160000    0.160002
     0.160150    0.162667    0.183837    0.218393    0.232936    0.256055
     0.292050    0.298395    0.340311    0.341034    0.342131    0.342530
     0.344745    0.432013

 Minimum Search - Taking Simple RFO Step
 Searching for Lamda that Minimizes Along All modes
 Value Taken    Lamda =  -0.00000891
 Step Taken.  Stepsize is  0.018875

                             Maximum     Tolerance    Cnvgd?
         Gradient           0.000322      0.000300      NO
         Displacement       0.008898      0.001200      NO
         Energy change     -0.000012      0.000001      NO


 New Cartesian Coordinates Obtained by Inverse Iteration

 Displacement from previous Coordinates is:  0.022788
 ----------------------------------------------------------------
             Standard Nuclear Orientation (Angstroms)
    I     Atom           X                Y                Z
 ----------------------------------------------------------------
    1      S       0.5496101930    -1.5257448542     1.0750515425
    2      S      -2.1462049861    -0.1135795969     0.8133319010
    3      C       0.4703787786    -0.0395094671    -0.0429326409
    4      C      -0.6526427990     0.8783725048     0.4452128222
    5      C       1.8146462368     0.6669739250    -0.1946283552
    6      H       0.1573351625    -0.4849766105    -0.9935902465
    7      H      -0.3422757293     1.4219322784     1.3441319462
    8      H      -0.9099689308     1.6139938977    -0.3266512447
    9      H       1.7247086822     1.4977612441    -0.9041315053
   10      H       2.1600854139     1.0776258913     0.7601349116
   11      H       2.5789936301    -0.0195120934    -0.5674710551
   12      H       0.8841922444    -0.8531417511     2.1973063011
   13      H      -2.0491598964    -0.9951943683    -1.4167663769
 ----------------------------------------------------------------
 Nuclear Repulsion Energy =   289.6248501171 hartrees
 There are       30 alpha and       28 beta electrons

                       Distance Matrix (Angstroms)
             S (  1)   S (  2)   C (  3)   C (  4)   C (  5)   H (  6)
   S (  2)  3.054526
   C (  3)  1.861468  2.754122
   C (  4)  2.760777  1.830358  1.530350
   C (  5)  2.832034  4.160960  1.526167  2.557655
   H (  6)  2.348693  2.951135  1.095531  2.141247  2.170717
   H (  7)  3.091386  2.427696  2.172595  1.095372  2.755006  3.057917
   H (  8)  3.735385  2.410882  2.172540  1.096873  2.887526  2.447371
   H (  9)  3.799949  4.531012  2.162917  2.802886  1.096217  2.529014
   H ( 10)  3.077392  4.468326  2.178995  2.837308  1.095233  3.086792
   H ( 11)  3.014136  4.923715  2.172970  3.503598  1.092933  2.502532
   H ( 12)  1.350480  3.412572  2.419072  2.903418  2.982926  3.293279
   H ( 13)  3.639265  2.400000  3.024703  2.987889  4.380117  2.303914
             H (  7)   H (  8)   H (  9)   H ( 10)   H ( 11)   H ( 12)
   H (  8)  1.775015
   H (  9)  3.054974  2.699726
   H ( 10)  2.592568  3.300610  1.770833
   H ( 11)  3.777010  3.859948  1.773488  1.772494
   H ( 12)  2.721781  3.959310  3.981473  2.724193  3.348326
   H ( 13)  4.047038  3.048601  4.551890  5.172352  4.805524  4.656850

 
 Applying Cartesian multipole field
    Component          Value
    ---------          -----
     (2,0,0)        1.00000E-11
     (0,2,0)        2.00000E-11
     (0,0,2)       -3.00000E-11
 Nucleus-field energy     =     0.0000000038 hartrees
 Requested basis set is 6-31G(d,p)
 There are 46 shells and 123 basis functions
 A cutoff of  1.0D-14 yielded   1029 shell pairs
 There are      7538 function pairs
 Smallest overlap matrix eigenvalue = 5.33E-03
 Guess from superposition of atomic densities
 Warning:  Energy on first SCF cycle will be non-variational
 SAD guess density has 58.000000 electrons
[...]
 ----------------------------------------------------------------
 Nuclear Repulsion Energy =   289.7715575491 hartrees
 There are       30 alpha and       28 beta electrons

                       Distance Matrix (Angstroms)
             S (  1)   S (  2)   C (  3)   C (  4)   C (  5)   H (  6)
   S (  2)  3.046129
   C (  3)  1.861527  2.751586
   C (  4)  2.762350  1.830538  1.530029
   C (  5)  2.831419  4.158403  1.526283  2.557364
   H (  6)  2.347821  2.953055  1.094854  2.140216  2.170362
   H (  7)  3.099058  2.429419  2.172070  1.095409  2.750050  3.056369
   H (  8)  3.734347  2.410663  2.171475  1.096584  2.892106  2.441156
   H (  9)  3.799476  4.531273  2.162863  2.801260  1.096226  2.529446
   H ( 10)  3.076150  4.463338  2.179128  2.838238  1.095206  3.086298
   H ( 11)  3.014037  4.920949  2.173205  3.503369  1.092962  2.501658
   H ( 12)  1.350470  3.398643  2.419865  2.904826  2.984547  3.292947
   H ( 13)  3.688414  2.400000  3.016707  2.944028  4.359827  2.301341
             H (  7)   H (  8)   H (  9)   H ( 10)   H ( 11)   H ( 12)
   H (  8)  1.776127
   H (  9)  3.045021  2.704316
   H ( 10)  2.589253  3.309674  1.770829
   H ( 11)  3.773906  3.862145  1.773403  1.772599
   H ( 12)  2.730567  3.962293  3.982517  2.725368  3.351444
   H ( 13)  4.009127  2.956676  4.506960  5.152996  4.802419  4.686435

 
 Applying Cartesian multipole field
    Component          Value
    ---------          -----
     (2,0,0)        1.00000E-11
     (0,2,0)        2.00000E-11
     (0,0,2)       -3.00000E-11
 Nucleus-field energy     =     0.0000000036 hartrees
 Requested basis set is 6-31G(d,p)
 There are 46 shells and 123 basis functions
 A cutoff of  1.0D-14 yielded   1030 shell pairs
 There are      7539 function pairs
 Smallest overlap matrix eigenvalue = 5.32E-03
 Guess from superposition of atomic densities
 Warning:  Energy on first SCF cycle will be non-variational
 SAD guess density has 58.000000 electrons

 -----------------------------------------------------------------------
  General SCF calculation program by
  Eric Jon Sundstrom, Paul Horn, Yuezhi Mao, Dmitri Zuev, Alec White,
  David Stuck, Shaama M.S., Shane Yost, Joonho Lee, David Small,
  Daniel Levine, Susi Lehtola, Hugh Burton, Evgeny Epifanovsky
 -----------------------------------------------------------------------
 Exchange:     0.2000 Hartree-Fock + 0.0800 Slater + 0.7200 B88
 Correlation:  0.1900 VWN1RPA + 0.8100 LYP
 Using SG-1 standard quadrature grid
 using 12 threads for integral computing
 -------------------------------------------------------
 OpenMP Integral computing Module                
 Release: version 1.0, May 2013, Q-Chem Inc. Pittsburgh 
 -------------------------------------------------------
 -------------------------------------------------------
 OpenMP BLAS3 based DFT computing Module                
 Release: version 1.0, May 2013, Q-Chem Inc. Pittsburgh 
 -------------------------------------------------------
 A unrestricted SCF calculation will be
 performed using DIIS
 SCF converges when DIIS error is below 1.0e-06
 Alpha HF Exchange    Energy =  -6.84076759160061
 Beta HF Exchange     Energy =  -6.84076759160061
 DFT Correlation      Energy =  -2.70751979379761
 DFT Exchange         Energy = -53.82986576872133
 One-Electron (alpha) Energy = -915.78693694272692
 One-Electron (beta)  Energy = -915.78693694272692
 Total Coulomb        Energy = 696.09294950750007
 ---------------------------------------
  Cycle       Energy         DIIS error
 ---------------------------------------
    1    -915.9282875710      2.71e-02  
 Alpha HF Exchange    Energy =  -6.93937073720708
 Beta HF Exchange     Energy =  -6.74839891686306
 DFT Correlation      Energy =  -2.72163998811721
 DFT Exchange         Energy = -54.34183451424595
 One-Electron (alpha) Energy = -932.65792919143155
 One-Electron (beta)  Energy = -903.99769218458778
 Total Coulomb        Energy = 702.33246938097864
    2    -915.3028385988      2.87e-03  
 Alpha HF Exchange    Energy =  -6.90393044569103
 Beta HF Exchange     Energy =  -6.72392916444156
 DFT Correlation      Energy =  -2.69897480375688
 DFT Exchange         Energy = -54.04845091095788
 One-Electron (alpha) Energy = -930.16715267958330
 One-Electron (beta)  Energy = -902.19561110577899
 Total Coulomb        Energy = 697.68787718522708
    3    -915.2786143723      3.54e-03  
 Alpha HF Exchange    Energy =  -6.92017245791206
 Beta HF Exchange     Energy =  -6.73774011030556
 DFT Correlation      Energy =  -2.70857278501731
 DFT Exchange         Energy = -54.18408720378869
 One-Electron (alpha) Energy = -931.37230847296860
 One-Electron (beta)  Energy = -903.33906520446271
 Total Coulomb        Energy = 700.10688281471471
    4    -915.3835058670      5.19e-04  
 Alpha HF Exchange    Energy =  -6.92200975868724
 Beta HF Exchange     Energy =  -6.73983486945775
 DFT Correlation      Energy =  -2.70800190711933
 DFT Exchange         Energy = -54.19519999808963
 One-Electron (alpha) Energy = -931.34364019502709
 One-Electron (beta)  Energy = -903.36960236112452
 Total Coulomb        Energy = 700.12077209444135
    5    -915.3859594424      2.40e-04  
 Alpha HF Exchange    Energy =  -6.92226152094210
 Beta HF Exchange     Energy =  -6.74057027199471
 DFT Correlation      Energy =  -2.70766913841207
 DFT Exchange         Energy = -54.19783218021624
 One-Electron (alpha) Energy = -931.34323572810365
 One-Electron (beta)  Energy = -903.43055851740928
 Total Coulomb        Energy = 700.18399633304375
    6    -915.3865734713      6.68e-05  
 Alpha HF Exchange    Energy =  -6.92203558807955
 Beta HF Exchange     Energy =  -6.74106742084548
 DFT Correlation      Energy =  -2.70736951430011
 DFT Exchange         Energy = -54.19759309996162
 One-Electron (alpha) Energy = -931.30130982991921
 One-Electron (beta)  Energy = -903.43872083427391
 Total Coulomb        Energy = 700.14988363437203
    7    -915.3866551003      2.74e-05  
 Alpha HF Exchange    Energy =  -6.92214063400150
 Beta HF Exchange     Energy =  -6.74142906746143
 DFT Correlation      Energy =  -2.70732810800189
 DFT Exchange         Energy = -54.19912193126577
 One-Electron (alpha) Energy = -931.30848408608153
 One-Electron (beta)  Energy = -903.46806776392941
 Total Coulomb        Energy = 700.18834655127432
    8    -915.3866674868      9.15e-06  
 Alpha HF Exchange    Energy =  -6.92206895628617
 Beta HF Exchange     Energy =  -6.74150520630918
 DFT Correlation      Energy =  -2.70729072588167
 DFT Exchange         Energy = -54.19898939275944
 One-Electron (alpha) Energy = -931.29973256279732
 One-Electron (beta)  Energy = -903.46904542476511
 Total Coulomb        Energy = 700.18040581279388
    9    -915.3866689033      4.48e-06  
 Alpha HF Exchange    Energy =  -6.92206432277636
 Beta HF Exchange     Energy =  -6.74152598164961
 DFT Correlation      Energy =  -2.70728240547733
 DFT Exchange         Energy = -54.19903668917695
 One-Electron (alpha) Energy = -931.29840034880385
 One-Electron (beta)  Energy = -903.47098780283375
 Total Coulomb        Energy = 700.18107084647977
   10    -915.3866691515      1.47e-06  
 Alpha HF Exchange    Energy =  -6.92206644533841
 Beta HF Exchange     Energy =  -6.74153972411735
 DFT Correlation      Energy =  -2.70728522484212
 DFT Exchange         Energy = -54.19909395855610
 One-Electron (alpha) Energy = -931.29878240052983
 One-Electron (beta)  Energy = -903.47215355638889
 Total Coulomb        Energy = 700.18269457512633
   11    -915.3866691819      5.43e-07  Convergence criterion met
 ---------------------------------------
 SCF time:   CPU 35.56s  wall 3.00s 
<S^2> =          2.005699165
 Alpha HF Exchange    Energy =  -6.92206644533841
 Beta HF Exchange     Energy =  -6.74153972411735
 DFT Correlation      Energy =  -2.70728522484212
 DFT Exchange         Energy = -54.19909395855610
 One-Electron (alpha) Energy = -931.29878240052983
 One-Electron (beta)  Energy = -903.47215355638889
 Total Coulomb        Energy = 700.18269457512633
 Nuclear repulsion Energy = 289.77155755269735
 SCF   energy in the final basis set =     -915.3866691819
 Total energy in the final basis set =     -915.3866691819
 
 --------------------------------------------------------------
 
                    Orbital Energies (a.u.)
 --------------------------------------------------------------
 
 Alpha MOs
 -- Occupied --
-88.902 -88.894 -10.248 -10.233 -10.202  -7.964  -7.953  -5.928
 -5.924  -5.922  -5.920  -5.915  -5.908  -0.850  -0.760  -0.729
 -0.651  -0.593  -0.486  -0.456  -0.441  -0.424  -0.408  -0.368
 -0.358  -0.336  -0.298  -0.292  -0.249  -0.202
 -- Virtual --
  0.003   0.042   0.056   0.095   0.117   0.132   0.152   0.160
  0.168   0.195   0.210   0.299   0.326   0.345   0.350   0.386
  0.396   0.427   0.466   0.477   0.510   0.534   0.559   0.572
  0.620   0.652   0.666   0.708   0.733   0.754   0.778   0.785
  0.809   0.820   0.846   0.846   0.869   0.878   0.908   0.923
  0.929   0.938   0.974   1.036   1.079   1.108   1.179   1.352
  1.372   1.391   1.554   1.621   1.702   1.764   1.824   1.848
  1.918   2.012   2.015   2.026   2.052   2.061   2.075   2.087
  2.102   2.105   2.132   2.171   2.242   2.279   2.347   2.436
  2.470   2.568   2.584   2.627   2.703   2.720   2.732   2.814
  2.854   2.884   3.171   3.221   3.319   3.419   3.443   3.467
  3.909   3.975   4.243   4.437   4.584
 
 Beta MOs
 -- Occupied --
-88.901 -88.887 -10.247 -10.234 -10.203  -7.963  -7.947  -5.927
 -5.924  -5.917  -5.911  -5.905  -5.901  -0.846  -0.746  -0.725
 -0.630  -0.586  -0.483  -0.454  -0.436  -0.421  -0.405  -0.366
 -0.349  -0.331  -0.261  -0.240
 -- Virtual --
 -0.144  -0.049   0.007   0.048   0.063   0.098   0.118   0.134
  0.154   0.161   0.170   0.199   0.211   0.306   0.337   0.351
  0.354   0.394   0.415   0.444   0.476   0.484   0.512   0.539
  0.568   0.576   0.629   0.659   0.678   0.715   0.744   0.777
  0.804   0.814   0.831   0.833   0.856   0.867   0.878   0.885
  0.923   0.930   0.943   0.980   0.996   1.061   1.088   1.110
  1.185   1.353   1.374   1.392   1.555   1.622   1.702   1.766
  1.825   1.849   1.921   2.022   2.024   2.056   2.072   2.085
  2.090   2.106   2.141   2.163   2.184   2.246   2.261   2.297
  2.349   2.438   2.470   2.570   2.585   2.628   2.704   2.720
  2.733   2.815   2.854   2.884   3.171   3.222   3.320   3.419
  3.444   3.467   3.924   3.981   4.244   4.436   4.585
 --------------------------------------------------------------
 
          Ground-State Mulliken Net Atomic Charges

     Atom                 Charge (a.u.)    Spin (a.u.)
  --------------------------------------------------------
      1 S                     0.023567       0.138807
      2 S                     0.047716       1.000041
      3 C                    -0.219513       0.021826
      4 C                    -0.322890      -0.034317
      5 C                    -0.308292      -0.001308
      6 H                     0.164404      -0.001081
      7 H                     0.136435       0.000939
      8 H                     0.152369       0.014843
      9 H                     0.119962       0.000937
     10 H                     0.112378       0.000910
     11 H                     0.132813       0.000548
     12 H                     0.070867      -0.004377
     13 H                    -0.109818       0.862231
  --------------------------------------------------------
  Sum of atomic charges =     0.000000
  Sum of spin   charges =     2.000000

 -----------------------------------------------------------------
                    Cartesian Multipole Moments
 -----------------------------------------------------------------
    Charge (ESU x 10^10)
                 0.0000
    Dipole Moment (Debye)
         X       2.7264      Y       2.2728      Z       0.4440
       Tot       3.5772
    Quadrupole Moments (Debye-Ang)
        XX     -52.1475     XY      -1.1056     YY     -48.6712
        XZ       0.7698     YZ      -0.4706     ZZ     -46.7644
    Octopole Moments (Debye-Ang^2)
       XXX      40.9897    XXY      17.2372    XYY       8.3298
       YYY      42.6240    XXZ     -25.5549    XYZ       2.6059
       YYZ     -25.6374    XZZ      21.0117    YZZ      11.4876
       ZZZ     -67.6376
    Hexadecapole Moments (Debye-Ang^3)
      XXXX    -676.4573   XXXY      -2.1274   XXYY    -168.5533
      XYYY       1.4435   YYYY    -327.2156   XXXZ      39.5465
      XXYZ      15.4233   XYYZ      11.5992   YYYZ      60.7711
      XXZZ    -167.9236   XYZZ      -4.1252   YYZZ     -93.8337
      XZZZ      55.9523   YZZZ      50.1660   ZZZZ    -256.8469
 -----------------------------------------------------------------
 Calculating analytic gradient of the SCF energy
 Gradient of SCF Energy
            1           2           3           4           5           6
    1  -0.0000251   0.0000065   0.0000765  -0.0000247  -0.0000337   0.0000158
    2   0.0000177  -0.0001026  -0.0000332   0.0000936   0.0000009  -0.0000083
    3  -0.0000022  -0.0001704   0.0000912  -0.0000378  -0.0000144  -0.0000492
            7           8           9          10          11          12
    1  -0.0000265   0.0000047  -0.0000137   0.0000002   0.0000030   0.0000267
    2  -0.0000272  -0.0000356   0.0000061   0.0000208   0.0000158   0.0000115
    3   0.0000088  -0.0000181  -0.0000062  -0.0000075  -0.0000088   0.0000042
           13
    1  -0.0000096
    2   0.0000405
    3   0.0002105
 Max gradient component =       2.105E-04
 RMS gradient           =       5.589E-05
 Gradient time:  CPU 11.98 s  wall 1.06 s
 Geometry Optimization Parameters
   NAtoms,    NIC,     NZ,  NCons,   NDum,   NFix, NCnnct, MaxDiis
       13      90       0       1       0       0       0       0

 Cartesian Hessian Update
 Hessian Updated using BFGS Update


** CONSTRAINED OPTIMIZATION IN DELOCALIZED INTERNAL COORDINATES **
   Searching for a Minimum

   Optimization Cycle:  15

                       Coordinates (Angstroms)
     ATOM                X               Y               Z
      1  S         0.5626744220   -1.5264884738    1.0893922905
      2  S        -2.1360438218   -0.1375051326    0.8314243635
      3  C         0.4729203895   -0.0481922657   -0.0383781861
      4  C        -0.6558500550    0.8664328198    0.4415473294
      5  C         1.8129609345    0.6655417816   -0.1946328076
      6  H         0.1633301461   -0.5024213157   -0.9852338555
      7  H        -0.3453824977    1.4267540597    1.3301252321
      8  H        -0.9249432903    1.5856838566   -0.3412444943
      9  H         1.7174927044    1.4917760518   -0.9087298685
     10  H         2.1563606356    1.0836408232    0.7575996865
     11  H         2.5813172669   -0.0182330649   -0.5642903966
     12  H         0.8896474257   -0.8446915440    2.2083248253
     13  H        -2.0547862599   -0.9172965957   -1.4369061186
   Point Group: c1    Number of degrees of freedom:    33


   Energy is   -915.386669182

              Constraints and their Current Values
                                        Value     Constraint
   Distance(Angs):        2  13             2.400000     2.400000
 Hessian Updated using BFGS Update

 32 Hessian modes will be used to form the next step
  Hessian Eigenvalues:
     0.001220    0.004894    0.025117    0.043595    0.045001    0.059603
     0.069040    0.073286    0.078673    0.082578    0.083689    0.086849
     0.119584    0.127886    0.144338    0.155540    0.159962    0.160001
     0.160105    0.161572    0.182063    0.219742    0.231224    0.256054
     0.285401    0.296600    0.339621    0.341033    0.342112    0.342452
     0.344733    0.388151

 Minimum Search - Taking Simple RFO Step
 Searching for Lamda that Minimizes Along All modes
 Value Taken    Lamda =   0.00000000
 Step Taken.  Stepsize is  0.001923

                             Maximum     Tolerance    Cnvgd?
         Gradient           0.000046      0.000300     YES
         Displacement       0.000802      0.001200     YES
         Energy change     -0.000000      0.000001     YES


                       Distance Matrix (Angstroms)
             S (  1)   S (  2)   C (  3)   C (  4)   C (  5)   H (  6)
   S (  2)  3.046129
   C (  3)  1.861527  2.751586
   C (  4)  2.762350  1.830538  1.530029
   C (  5)  2.831419  4.158403  1.526283  2.557364
   H (  6)  2.347821  2.953055  1.094854  2.140216  2.170362
   H (  7)  3.099058  2.429419  2.172070  1.095409  2.750050  3.056369
   H (  8)  3.734347  2.410663  2.171475  1.096584  2.892106  2.441156
   H (  9)  3.799476  4.531273  2.162863  2.801260  1.096226  2.529446
   H ( 10)  3.076150  4.463338  2.179128  2.838238  1.095206  3.086298
   H ( 11)  3.014037  4.920949  2.173205  3.503369  1.092962  2.501658
   H ( 12)  1.350470  3.398643  2.419865  2.904826  2.984547  3.292947
   H ( 13)  3.688414  2.400000  3.016707  2.944028  4.359827  2.301341
             H (  7)   H (  8)   H (  9)   H ( 10)   H ( 11)   H ( 12)
   H (  8)  1.776127
   H (  9)  3.045021  2.704316
   H ( 10)  2.589253  3.309674  1.770829
   H ( 11)  3.773906  3.862145  1.773403  1.772599
   H ( 12)  2.730567  3.962293  3.982517  2.725368  3.351444
   H ( 13)  4.009127  2.956676  4.506960  5.152996  4.802419  4.686435

 
 Final energy is   -915.386669181949     


 ******************************
 **  OPTIMIZATION CONVERGED  **
 ******************************

                       Coordinates (Angstroms)
     ATOM                X               Y               Z
      1  S         0.5626744220   -1.5264884738    1.0893922905
      2  S        -2.1360438218   -0.1375051326    0.8314243635
      3  C         0.4729203895   -0.0481922657   -0.0383781861
      4  C        -0.6558500550    0.8664328198    0.4415473294
      5  C         1.8129609345    0.6655417816   -0.1946328076
      6  H         0.1633301461   -0.5024213157   -0.9852338555
      7  H        -0.3453824977    1.4267540597    1.3301252321
      8  H        -0.9249432903    1.5856838566   -0.3412444943
      9  H         1.7174927044    1.4917760518   -0.9087298685
     10  H         2.1563606356    1.0836408232    0.7575996865
     11  H         2.5813172669   -0.0182330649   -0.5642903966
     12  H         0.8896474257   -0.8446915440    2.2083248253
     13  H        -2.0547862599   -0.9172965957   -1.4369061186

Z-matrix Print:
$molecule
0 3
S 
H  1 1.350470
C  1 1.861527 2 96.471622
H  3 1.094854 1 102.011291 2 -177.586457 0
C  3 1.526283 1 113.019800 2 63.509634 0
H  5 1.092962 3 111.056571 1 57.117863 0
H  5 1.095206 3 111.394997 1 -63.575877 0
H  5 1.096226 3 110.040442 1 176.906695 0
C  3 1.530029 1 108.678460 2 -63.557113 0
H  9 1.095409 3 110.556147 1 76.215868 0
H  9 1.096584 3 110.439047 1 -164.007731 0
S  9 1.830538 3 109.603453 1 -44.819053 0
H  4 2.301341 3 121.135851 1 84.145861 0
$end

PES scan, value:    2.4000 energy: -915.3866691819
------- Summary of potential scan: ------ 
    2.4000      -915.3866691819
----------------------------------------- 
Archival summary:
1\1\hpc0250\JobtypUnspecified\ProcedureUnspecified\6-31G**\238(3)\knomura\ThuMar1403:55:502019ThuMar1403:55:502019\0\\#,JobtypUnspecified,ProcedureUnspecified,6-31G**,\\0,3\S\H,1,1.35047\C,1,1.86153,2,96.4716\H,3,1.09485,1,102.011,2,-177.586,0\C,3,1.52628,1,113.02,2,63.5096,0\H,5,1.09296,3,111.057,1,57.1179,0\H,5,1.09521,3,111.395,1,-63.5759,0\H,5,1.09623,3,110.04,1,176.907,0\C,3,1.53003,1,108.678,2,-63.5571,0\H,9,1.09541,3,110.556,1,76.2159,0\H,9,1.09658,3,110.439,1,-164.008,0\S,9,1.83054,3,109.603,1,-44.8191,0\H,4,2.30134,3,121.136,1,84.1459,0\\\@

 Total job time:  73.93s(wall), 798.60s(cpu) 
 Thu Mar 14 03:55:50 2019

        *************************************************************
        *                                                           *
        *  Thank you very much for using Q-Chem.  Have a nice day.  *
        *                                                           *
        *************************************************************


