
Running Job 1 of 1 thiol/03/S-H.xyz.data/inputs/bond_singlet_0.7.in
qchem thiol/03/S-H.xyz.data/inputs/bond_singlet_0.7.in_31504.0 /staging/scratch/2868767/qchem31504/ 1
/usr/usc/qchem/5.1.1/exe/qcprog.exe_s thiol/03/S-H.xyz.data/inputs/bond_singlet_0.7.in_31504.0 /staging/scratch/2868767/qchem31504/
Check license passed

                  Welcome to Q-Chem
     A Quantum Leap Into The Future Of Chemistry


 Q-Chem 5.1, Q-Chem, Inc., Pleasanton, CA (2018)

 Yihan Shao,  Zhengting Gan,  E. Epifanovsky,  A. T. B. Gilbert,  M. Wormit,  
 J. Kussmann,  A. W. Lange,  A. Behn,  Jia Deng,  Xintian Feng,  D. Ghosh,  
 M. Goldey,  P. R. Horn,  L. D. Jacobson,  I. Kaliman,  T. Kus,  A. Landau,  
 Jie Liu,  E. I. Proynov,  R. M. Richard,  R. P. Steele,  E. J. Sundstrom,  
 H. L. Woodcock III,  P. M. Zimmerman,  D. Zuev,  B. Albrecht,  E. Alguire,  
 S. A. Baeppler,  D. Barton,  Z. Benda,  Y. A. Bernard,  E. J. Berquist,  
 K. B. Bravaya,  H. Burton,  D. Casanova,  Chun-Min Chang,  Yunqing Chen,  
 A. Chien,  K. D. Closser,  M. P. Coons,  S. Coriani,  S. Dasgupta,  
 A. L. Dempwolff,  M. Diedenhofen,  Hainam Do,  R. G. Edgar,  Po-Tung Fang,  
 S. Faraji,  S. Fatehi,  Qingguo Feng,  K. D. Fenk,  J. Fosso-Tande,  
 Qinghui Ge,  A. Ghysels,  G. Gidofalvi,  J. Gomes,  J. Gonthier,  A. Gunina,  
 D. Hait,  M. W. D. Hanson-Heine,  P. H. P. Harbach,  A. W. Hauser,  
 J. E. Herr,  E. G. Hohenstein,  Z. C. Holden,  Kerwin Hui,  B. C. Huynh,  
 T.-C. Jagau,  Hyunjun Ji,  B. Kaduk,  K. Khistyaev,  Jaehoon Kim,  
 P. Klunzinger,  K. Koh,  D. Kosenkov,  L. Koulias,  T. Kowalczyk,  
 C. M. Krauter,  A. Kunitsa,  Ka Un Lao,  A. Laurent,  K. V. Lawler,  
 Joonho Lee,  D. Lefrancois,  S. Lehtola,  D. S. Levine,  Yi-Pei Li,  
 You-Sheng Lin,  Fenglai Liu,  E. Livshits,  A. Luenser,  P. Manohar,  
 E. Mansoor,  S. F. Manzer,  Shan-Ping Mao,  Yuezhi Mao,  N. Mardirossian,  
 A. V. Marenich,  T. Markovich,  L. A. Martinez-Martinez,  S. A. Maurer,  
 N. J. Mayhall,  S. C. McKenzie,  J.-M. Mewes,  A. F. Morrison,  
 J. W. Mullinax,  K. Nanda,  T. S. Nguyen-Beck,  R. Olivares-Amaya,  
 J. A. Parkhill,  T. M. Perrine,  F. Plasser,  P. Pokhilko,  S. Prager,  
 A. Prociuk,  E. Ramos,  D. R. Rehn,  F. Rob,  M. Schneider,  N. Sergueev,  
 S. M. Sharada,  S. Sharma,  D. W. Small,  T. Stauch,  T. Stein,  
 Yu-Chuan Su,  A. J. W. Thom,  A. Tkatchenko,  T. Tsuchimochi,  N. M. Tubman,  
 L. Vogt,  M. L. Vidal,  O. Vydrov,  M. A. Watson,  J. Wenzel,  
 M. de Wergifosse,  T. A. Wesolowski,  A. White,  J. Witte,  A. Yamada,  
 Jun Yang,  K. Yao,  S. Yeganeh,  S. R. Yost,  Zhi-Qiang You,  A. Zech,  
 Igor Ying Zhang,  Xing Zhang,  Yan Zhao,  Ying Zhu,  B. R. Brooks,  
 G. K. L. Chan,  C. J. Cramer,  M. S. Gordon,  W. J. Hehre,  A. Klamt,  
 M. W. Schmidt,  C. D. Sherrill,  D. G. Truhlar,  A. Aspuru-Guzik,  R. Baer,  
 A. T. Bell,  N. A. Besley,  Jeng-Da Chai,  A. E. DePrince, III,  
 R. A. DiStasio Jr.,  A. Dreuw,  B. D. Dunietz,  T. R. Furlani,  
 Chao-Ping Hsu,  Yousung Jung,  Jing Kong,  D. S. Lambrecht,  WanZhen Liang,  
 C. Ochsenfeld,  V. A. Rassolov,  L. V. Slipchenko,  J. E. Subotnik,  
 T. Van Voorhis,  J. M. Herbert,  A. I. Krylov,  P. M. W. Gill,  M. Head-Gordon

 Contributors to earlier versions of Q-Chem not listed above: 
 R. D. Adamson,  B. Austin,  J. Baker,  G. J. O. Beran,  K. Brandhorst,  
 S. T. Brown,  E. F. C. Byrd,  A. K. Chakraborty,  C.-L. Cheng,  
 Siu Hung Chien,  D. M. Chipman,  D. L. Crittenden,  H. Dachsel,  
 R. J. Doerksen,  A. D. Dutoi,  L. Fusti-Molnar,  W. A. Goddard III,  
 A. Golubeva-Zadorozhnaya,  S. R. Gwaltney,  G. Hawkins,  A. Heyden,  
 S. Hirata,  G. Kedziora,  F. J. Keil,  C. Kelley,  Jihan Kim,  R. A. King,  
 R. Z. Khaliullin,  P. P. Korambath,  W. Kurlancheek,  A. M. Lee,  M. S. Lee,  
 S. V. Levchenko,  Ching Yeh Lin,  D. Liotard,  R. C. Lochan,  I. Lotan,  
 P. E. Maslen,  N. Nair,  D. P. O'Neill,  D. Neuhauser,  E. Neuscamman,  
 C. M. Oana,  R. Olson,  B. Peters,  R. Peverati,  P. A. Pieniazek,  
 Y. M. Rhee,  J. Ritchie,  M. A. Rohrdanz,  E. Rosta,  N. J. Russ,  
 H. F. Schaefer III,  N. E. Schultz,  N. Shenvi,  A. C. Simmonett,  A. Sodt,  
 D. Stuck,  K. S. Thanthiriwatte,  V. Vanovschi,  Tao Wang,  A. Warshel,  
 C. F. Williams,  Q. Wu,  X. Xu,  W. Zhang

 Please cite Q-Chem as follows:
 Y. Shao et al., Mol. Phys. 113, 184-215 (2015)
 DOI: 10.1080/00268976.2014.952696

 Q-Chem 5.1.1 for Intel X86 EM64T Linux

 Parts of Q-Chem use Armadillo 8.300.2 (Tropical Shenanigans).
 http://arma.sourceforge.net/

 Q-Chem begins on Thu Mar 14 02:34:30 2019  

Host: 
0

     Scratch files written to /staging/scratch/2868767/qchem31504//
 Aug318 |scratch|qcdevops|jenkins|workspace|build_RNUM 6013   
Processing $rem in /usr/usc/qchem/5.1.1/config/preferences.
 MEM_TOTAL  2000 
Input Ideriv = 2
Curr. Ideriv = -1
Max.  Ideriv = 2

Checking the input file for inconsistencies... 	...done.

--------------------------------------------------------------
User input:
--------------------------------------------------------------

$comment
potential surface scanner
$end

$rem
JOBTYPE  PES_SCAN
UNRESTRICTED TRUE
SYM_IGNORE  TRUE
GEOM_OPT_MAX_CYCLES 400
SCF_MAX_CYCLES 400
METHOD   B3LYP
BASIS   6-31G**
PDB_PRINT 2
SCF_CONVERGENCE 6
THRESH 14
SCF_PRINT 1
$end
$molecule
0 1
S 0.653000 -1.655100 0.136100
S -2.273700 -0.042700 -0.103500
C 0.513800 0.101500 -0.361300
C -0.697000 0.778900 0.292500
C 1.803900 0.817400 0.036300
H 0.414100 0.130900 -1.452400
H -0.592400 0.804400 1.383200
H -0.770600 1.816900 -0.049700
H 1.768400 1.866200 -0.278900
H 1.962400 0.805000 1.120700
H 2.677400 0.363600 -0.445400
H 0.755100 -1.437500 1.455700
H -1.974700 -1.224500 0.455700
$end
$scan
stre 2 13 0.700000 0.701000 0.100000
$end
--------------------------------------------------------------
 ----------------------------------------------------------------
             Standard Nuclear Orientation (Angstroms)
    I     Atom           X                Y                Z
 ----------------------------------------------------------------
    1      S       0.6530000000    -1.6551000000     0.1361000000
    2      S      -2.2737000000    -0.0427000000    -0.1035000000
    3      C       0.5138000000     0.1015000000    -0.3613000000
    4      C      -0.6970000000     0.7789000000     0.2925000000
    5      C       1.8039000000     0.8174000000     0.0363000000
    6      H       0.4141000000     0.1309000000    -1.4524000000
    7      H      -0.5924000000     0.8044000000     1.3832000000
    8      H      -0.7706000000     1.8169000000    -0.0497000000
    9      H       1.7684000000     1.8662000000    -0.2789000000
   10      H       1.9624000000     0.8050000000     1.1207000000
   11      H       2.6774000000     0.3636000000    -0.4454000000
   12      H       0.7551000000    -1.4375000000     1.4557000000
   13      H      -1.9747000000    -1.2245000000     0.4557000000
 ----------------------------------------------------------------
 Nuclear Repulsion Energy =   290.8061723522 hartrees
 There are       29 alpha and       29 beta electrons
 Requested basis set is 6-31G(d,p)
 There are 46 shells and 123 basis functions

 Total QAlloc Memory Limit   2000 MB
 Mega-Array Size       188 MB
 MEM_STATIC part       192 MB
A total of 1 constraints
  
            1
    1   1.0100000
    2   2.0100000
    3  13.0100000
    4   0.7000000
    5   0.7010000
    6   0.1000000
    7   0.0000000
    8   0.0000000
    9   0.0000000
   10   0.0000000

                       Distance Matrix (Angstroms)
             S (  1)   S (  2)   C (  3)   C (  4)   C (  5)   H (  6)
   S (  2)  3.350047
   C (  3)  1.830963  2.803107
   C (  4)  2.787708  1.821490  1.533741
   C (  5)  2.729063  4.169669  1.528056  2.514283
   H (  6)  2.402124  3.012298  1.096040  2.167746  2.149198
   H (  7)  3.025792  2.398880  2.181978  1.096001  2.748920  3.083386
   H (  8)  3.757119  2.391718  2.165496  1.095428  2.763050  2.492725
   H (  9)  3.716974  4.473616  2.166790  2.754436  1.095716  2.494493
   H ( 10)  2.955682  4.490190  2.188533  2.785499  1.095992  3.077741
   H ( 11)  2.917445  4.979495  2.181040  3.479015  1.095888  2.488117
   H ( 12)  1.341312  3.681060  2.393373  2.893796  2.863434  3.321627
   H ( 13)  2.681859  1.341177  2.935711  2.381756  4.315446  3.344297
             H (  7)   H (  8)   H (  9)   H ( 10)   H ( 11)   H ( 12)
   H (  8)  1.763552
   H (  9)  3.076259  2.549801
   H ( 10)  2.568250  3.140552  1.767105
   H ( 11)  3.772224  3.762627  1.764032  1.777281
   H ( 12)  2.616702  3.896808  3.866529  2.568775  3.248597
   H ( 13)  2.624394  3.309894  4.909466  4.479046  4.997607  2.914992

 
 A cutoff of  1.0D-14 yielded   1033 shell pairs
 There are      7542 function pairs
 
 -------------------------------------------------------
 OpenMP Integral Computing Module                       
 Release: version 1.0, May 2013, Q-Chem Inc. Pittsburgh 
 -------------------------------------------------------
 Integral Job Info:
 Integral job number is                      11
 Integral operator is                         1
 short-range coefficients                     0
 long-range coefficients              100000000
 Omega coefficients                           0
 if combine SR and LR in K                    0
 Integral screening is                        0
 Integral computing path is                   2
 max size of driver memory is            800000
 size of driver memory is                593474
 size of scratch memory is             15267112
 max col of scratch BK array               1296
 max len of scratch array in speh3          155
 max len of scratch index in speh4           18
 max int batch size is                      520
 min int batch size is                       52
 fixed nKL is                                52
 max L of basis functions is                  2
 order of int derivative is                   0
 number of shells is                         46
 number of basis is                         123
 number of cartesian basis is               123
 number of contracted shell pairs          1033
 number of primitive shell pairs           3974
 maxK2 (contraction) of shell pair           36
 max number of K2 of shell pair               1
 max number of CS2 of shell pair             80
 max number of PS2 of shell pair            354
 mem total for path MDJ                  519084
 -------------------------------------------------------
 Smallest overlap matrix eigenvalue = 5.32E-03

 Scale SEOQF with 1.000000e-01/1.000000e-01/1.000000e+00

 Standard Electronic Orientation quadrupole field applied
 Nucleus-field energy     =    -0.0000000011 hartrees
 Guess from superposition of atomic densities
 Warning:  Energy on first SCF cycle will be non-variational
 SAD guess density has 58.000000 electrons

 -----------------------------------------------------------------------
  General SCF calculation program by
  Eric Jon Sundstrom, Paul Horn, Yuezhi Mao, Dmitri Zuev, Alec White,
  David Stuck, Shaama M.S., Shane Yost, Joonho Lee, David Small,
  Daniel Levine, Susi Lehtola, Hugh Burton, Evgeny Epifanovsky
 -----------------------------------------------------------------------
 Exchange:     0.2000 Hartree-Fock + 0.0800 Slater + 0.7200 B88
 Correlation:  0.1900 VWN1RPA + 0.8100 LYP
 Using SG-1 standard quadrature grid
 using 12 threads for integral computing
 -------------------------------------------------------
 OpenMP Integral computing Module                
 Release: version 1.0, May 2013, Q-Chem Inc. Pittsburgh 
 -------------------------------------------------------
 -------------------------------------------------------
 OpenMP BLAS3 based DFT computing Module                
 Release: version 1.0, May 2013, Q-Chem Inc. Pittsburgh 
 -------------------------------------------------------
 A unrestricted SCF calculation will be
 performed using DIIS
 SCF converges when DIIS error is below 1.0e-06
 Alpha HF Exchange    Energy =  -6.86860418470643
 Beta HF Exchange     Energy =  -6.86860418470643
 DFT Correlation      Energy =  -2.71728058875326
 DFT Exchange         Energy = -53.89352891367010
 One-Electron (alpha) Energy = -916.70586215165179
 One-Electron (beta)  Energy = -916.70586215165179
 Total Coulomb        Energy = 696.76699239042875
 ---------------------------------------
  Cycle       Energy         DIIS error
 ---------------------------------------
    1    -916.1865774336      2.85e-02  
 Alpha HF Exchange    Energy =  -6.86971263644538
 Beta HF Exchange     Energy =  -6.86971263644538
 DFT Correlation      Energy =  -2.74409399772525
 DFT Exchange         Energy = -54.50147737483250
 One-Electron (alpha) Energy = -920.72960993610036
 One-Electron (beta)  Energy = -920.72960993610059
 Total Coulomb        Energy = 706.18405706375552
    2    -915.4539871028      2.83e-03  
 Alpha HF Exchange    Energy =  -6.81529932414627
 Beta HF Exchange     Energy =  -6.81529932414627
 DFT Correlation      Energy =  -2.71846496072072
 DFT Exchange         Energy = -54.04165878911407
 One-Electron (alpha) Energy = -916.56372188784871
 One-Electron (beta)  Energy = -916.56372188784883
 Total Coulomb        Energy = 697.27720351538903
    3    -915.4347903073      3.25e-03  
 Alpha HF Exchange    Energy =  -6.84069511450834
 Beta HF Exchange     Energy =  -6.84069511450833
 DFT Correlation      Energy =  -2.73152250796605
 DFT Exchange         Energy = -54.25571982027957
 One-Electron (alpha) Energy = -918.69056560103195
 One-Electron (beta)  Energy = -918.69056560103149
 Total Coulomb        Energy = 701.72362510795335
    4    -915.5199663003      4.83e-04  
 Alpha HF Exchange    Energy =  -6.84200958650548
 Beta HF Exchange     Energy =  -6.84200958650548
 DFT Correlation      Energy =  -2.73151262195696
 DFT Exchange         Energy = -54.26493451546446
 One-Electron (alpha) Energy = -918.71756739542832
 One-Electron (beta)  Energy = -918.71756739542911
 Total Coulomb        Energy = 701.78756719936166
    5    -915.5218615508      1.38e-04  
 Alpha HF Exchange    Energy =  -6.84189437479299
 Beta HF Exchange     Energy =  -6.84189437479299
 DFT Correlation      Energy =  -2.73151319638994
 DFT Exchange         Energy = -54.26421812721279
 One-Electron (alpha) Energy = -918.71807144472291
 One-Electron (beta)  Energy = -918.71807144472314
 Total Coulomb        Energy = 701.78749265404849
    6    -915.5219979575      3.74e-05  
 Alpha HF Exchange    Energy =  -6.84173127652599
 Beta HF Exchange     Energy =  -6.84173127652598
 DFT Correlation      Energy =  -2.73145508456732
 DFT Exchange         Energy = -54.26284056248271
 One-Electron (alpha) Energy = -918.70135627841546
 One-Electron (beta)  Energy = -918.70135627841489
 Total Coulomb        Energy = 701.75229023259749
    7    -915.5220081732      7.61e-06  
 Alpha HF Exchange    Energy =  -6.84178894557165
 Beta HF Exchange     Energy =  -6.84178894557165
 DFT Correlation      Energy =  -2.73147746417039
 DFT Exchange         Energy = -54.26329699897543
 One-Electron (alpha) Energy = -918.70806105303018
 One-Electron (beta)  Energy = -918.70806105303006
 Total Coulomb        Energy = 701.76629345010008
    8    -915.5220086591      1.51e-06  
 Alpha HF Exchange    Energy =  -6.84178235010642
 Beta HF Exchange     Energy =  -6.84178235010642
 DFT Correlation      Energy =  -2.73147461643586
 DFT Exchange         Energy = -54.26324233705522
 One-Electron (alpha) Energy = -918.70716644607910
 One-Electron (beta)  Energy = -918.70716644607899
 Total Coulomb        Energy = 701.76443351557634
    9    -915.5220086792      2.35e-07  Convergence criterion met
 ---------------------------------------
 SCF time:   CPU 30.18s  wall 3.00s 
<S^2> =         -0.000000000
 Alpha HF Exchange    Energy =  -6.84178235010642
 Beta HF Exchange     Energy =  -6.84178235010642
 DFT Correlation      Energy =  -2.73147461643586
 DFT Exchange         Energy = -54.26324233705522
 One-Electron (alpha) Energy = -918.70716644607910
 One-Electron (beta)  Energy = -918.70716644607899
 Total Coulomb        Energy = 701.76443351557634
 Nuclear repulsion Energy = 290.80617235111839
 SCF   energy in the final basis set =     -915.5220086792
 Total energy in the final basis set =     -915.5220086792
 
 --------------------------------------------------------------
 
                    Orbital Energies (a.u.)
 --------------------------------------------------------------
 
 Alpha MOs
 -- Occupied --
-88.879 -88.869 -10.239 -10.229 -10.194  -7.942  -7.932  -5.907
 -5.903  -5.897  -5.897  -5.893  -5.886  -0.843  -0.761  -0.715
 -0.656  -0.591  -0.484  -0.453  -0.430  -0.424  -0.400  -0.383
 -0.366  -0.324  -0.321  -0.245  -0.235
 -- Virtual --
  0.018   0.040   0.065   0.079   0.096   0.119   0.135   0.154
  0.166   0.171   0.202   0.212   0.328   0.337   0.358   0.367
  0.376   0.396   0.405   0.442   0.494   0.518   0.536   0.563
  0.579   0.647   0.660   0.685   0.726   0.748   0.756   0.783
  0.811   0.820   0.836   0.853   0.870   0.883   0.888   0.928
  0.945   0.962   0.980   1.033   1.089   1.129   1.166   1.210
  1.363   1.376   1.399   1.566   1.609   1.721   1.771   1.821
  1.853   1.924   2.032   2.035   2.062   2.075   2.094   2.095
  2.116   2.123   2.162   2.202   2.235   2.280   2.352   2.438
  2.490   2.586   2.599   2.628   2.721   2.723   2.751   2.774
  2.825   2.859   2.886   3.175   3.232   3.314   3.428   3.457
  3.468   3.970   4.011   4.271   4.446   4.591
 
 Beta MOs
 -- Occupied --
-88.879 -88.869 -10.239 -10.229 -10.194  -7.942  -7.932  -5.907
 -5.903  -5.897  -5.897  -5.893  -5.886  -0.843  -0.761  -0.715
 -0.656  -0.591  -0.484  -0.453  -0.430  -0.424  -0.400  -0.383
 -0.366  -0.324  -0.321  -0.245  -0.235
 -- Virtual --
  0.018   0.040   0.065   0.079   0.096   0.119   0.135   0.154
  0.166   0.171   0.202   0.212   0.328   0.337   0.358   0.367
  0.376   0.396   0.405   0.442   0.494   0.518   0.536   0.563
  0.579   0.647   0.660   0.685   0.726   0.748   0.756   0.783
  0.811   0.820   0.836   0.853   0.870   0.883   0.888   0.928
  0.945   0.962   0.980   1.033   1.089   1.129   1.166   1.210
  1.363   1.376   1.399   1.566   1.609   1.721   1.771   1.821
  1.853   1.924   2.032   2.035   2.062   2.075   2.094   2.095
  2.116   2.123   2.162   2.202   2.235   2.280   2.352   2.438
  2.490   2.586   2.599   2.628   2.721   2.723   2.751   2.774
  2.825   2.859   2.886   3.175   3.232   3.314   3.428   3.457
  3.468   3.970   4.011   4.271   4.446   4.591
 --------------------------------------------------------------
 
          Ground-State Mulliken Net Atomic Charges

     Atom                 Charge (a.u.)    Spin (a.u.)
  --------------------------------------------------------
      1 S                    -0.042247       0.000000
      2 S                    -0.043972       0.000000
      3 C                    -0.204044      -0.000000
      4 C                    -0.322612       0.000000
      5 C                    -0.307845      -0.000000
      6 H                     0.155117       0.000000
      7 H                     0.135624      -0.000000
      8 H                     0.145126      -0.000000
      9 H                     0.106579       0.000000
     10 H                     0.108876       0.000000
     11 H                     0.130155       0.000000
     12 H                     0.058227      -0.000000
     13 H                     0.081015      -0.000000
  --------------------------------------------------------
  Sum of atomic charges =    -0.000000
  Sum of spin   charges =     0.000000

 -----------------------------------------------------------------
                    Cartesian Multipole Moments
 -----------------------------------------------------------------
    Charge (ESU x 10^10)
                -0.0000
    Dipole Moment (Debye)
         X       1.7224      Y       1.3979      Z       1.0471
       Tot       2.4530
    Quadrupole Moments (Debye-Ang)
        XX     -53.2230     XY       2.5303     YY     -47.4794
        XZ      -0.4609     YZ      -2.3302     ZZ     -44.8941
    Octopole Moments (Debye-Ang^2)
       XXX      43.4654    XXY       8.6172    XYY       3.8472
       YYY      39.9574    XXZ      -1.6154    XYZ       0.5731
       YYZ       0.6838    XZZ      14.4077    YZZ       8.4765
       ZZZ      -2.9942
    Hexadecapole Moments (Debye-Ang^3)
      XXXX    -751.3241   XXXY      33.6731   XXYY    -176.8919
      XYYY      14.7589   YYYY    -362.3460   XXXZ      -4.9527
      XXYZ      -2.6142   XYYZ       0.0567   YYYZ      -1.0543
      XXZZ    -139.8968   XYZZ       1.1698   YYZZ     -71.5973
      XZZZ      -6.7603   YZZZ       5.4019   ZZZZ     -91.9179
 -----------------------------------------------------------------
 Calculating analytic gradient of the SCF energy
 Gradient of SCF Energy
            1           2           3           4           5           6
    1   0.0002227   0.0141548  -0.0084846  -0.0006409  -0.0059392   0.0024780
    2   0.0147686  -0.0076285  -0.0094234   0.0047502  -0.0073493   0.0058484
    3   0.0084502   0.0045173  -0.0116582  -0.0005776   0.0044183  -0.0018788
            7           8           9          10          11          12
    1  -0.0032202   0.0024903   0.0002295   0.0005791   0.0018568  -0.0018755
    2  -0.0010194   0.0011742  -0.0018446   0.0009799   0.0003233  -0.0026893
    3   0.0010187   0.0011999  -0.0003271   0.0008242  -0.0018397  -0.0037968
           13
    1  -0.0018506
    2   0.0021097
    3  -0.0003504
 Max gradient component =       1.477E-02
 RMS gradient           =       5.331E-03
 Gradient time:  CPU 13.88 s  wall 1.33 s
 Geometry Optimization Parameters
   NAtoms,    NIC,     NZ,  NCons,   NDum,   NFix, NCnnct, MaxDiis
       13      82       0       1       0       0       0       0


** CONSTRAINED OPTIMIZATION IN DELOCALIZED INTERNAL COORDINATES **
   Searching for a Minimum

   Optimization Cycle:   1

                       Coordinates (Angstroms)
     ATOM                X               Y               Z
      1  S         0.6530000000   -1.6551000000    0.1361000000
      2  S        -2.2737000000   -0.0427000000   -0.1035000000
      3  C         0.5138000000    0.1015000000   -0.3613000000
      4  C        -0.6970000000    0.7789000000    0.2925000000
      5  C         1.8039000000    0.8174000000    0.0363000000
      6  H         0.4141000000    0.1309000000   -1.4524000000
      7  H        -0.5924000000    0.8044000000    1.3832000000
      8  H        -0.7706000000    1.8169000000   -0.0497000000
      9  H         1.7684000000    1.8662000000   -0.2789000000
     10  H         1.9624000000    0.8050000000    1.1207000000
     11  H         2.6774000000    0.3636000000   -0.4454000000
     12  H         0.7551000000   -1.4375000000    1.4557000000
     13  H        -1.9747000000   -1.2245000000    0.4557000000
   Point Group: c1    Number of degrees of freedom:    33


   Energy is   -915.522008679

              Constraints and their Current Values
                                        Value     Constraint
   Distance(Angs):        2  13             1.341177     0.700000

 Attempting to Generate Delocalized Internal Coordinates
**WARNING** Constraint Gradient Reduced for constraint   1

   Using Lagrange Multiplier Algorithm


 34 Hessian modes will be used to form the next step
  Hessian Eigenvalues:
    -0.876986    0.045000    0.045000    0.045000    0.045000    0.075919
     0.076295    0.078850    0.081805    0.083482    0.084194    0.094223
     0.127259    0.144645    0.160000    0.160000    0.160000    0.160000
     0.160000    0.176672    0.204035    0.220629    0.238218    0.244944
     0.263175    0.290806    0.296036    0.341239    0.341283    0.341292
     0.341409    0.341604    0.341929    1.140269

 Minimum Search - Taking P-RFO Step
 Searching for Lamda that Maximizes Along the Constraint modes Only
 Value Taken    Lamda =   0.05533056


 ********************************************
 ** ERROR IN DETERMINING Lamda IN CONFormD **
 ********************************************


 ** Scaling Hessian by  2.459136 **


 34 Hessian modes will be used to form the next step
  Hessian Eigenvalues:
    -0.727370    0.110661    0.110661    0.110661    0.110661    0.186696
     0.187621    0.193903    0.201171    0.205293    0.207044    0.231708
     0.312946    0.355702    0.393462    0.393462    0.393462    0.393462
     0.393462    0.434460    0.501749    0.542556    0.585811    0.602349
     0.647184    0.715132    0.727994    0.839152    0.839260    0.839284
     0.839572    0.840050    0.840849    1.374817

 Minimum Search - Taking P-RFO Step
 Searching for Lamda that Maximizes Along the Constraint modes Only
 Value Taken    Lamda =   0.07427560
 Searching for Lamda that Minimizes Along All other modes
 Value Taken    Lamda =  -0.02442983
 Step Taken.  Stepsize is  0.294831

                             Maximum     Tolerance    Cnvgd?
         Gradient            0.300000       0.000300      NO
         Displacement        0.279924       0.001200      NO
         Energy change     *********       0.000001      NO


 New Cartesian Coordinates Obtained by Inverse Iteration

 Displacement from previous Coordinates is:  0.388431
 ----------------------------------------------------------------
             Standard Nuclear Orientation (Angstroms)
    I     Atom           X                Y                Z
 ----------------------------------------------------------------
    1      S       0.7011752471    -1.6874257279     0.1398935644
    2      S      -2.3041964200    -0.0384000257    -0.0922083080
    3      C       0.5245303316     0.0783244612    -0.3465573740
    4      C      -0.7000741384     0.7480424310     0.3002736441
    5      C       1.8039180525     0.8291866897     0.0361785644
    6      H       0.4151640274     0.0943014968    -1.4359003722
    7      H      -0.5857917339     0.7836275112     1.3892981297
    8      H      -0.7764072904     1.7825322536    -0.0507517275
    9      H       1.7440383594     1.8761565555    -0.2848961683
   10      H       1.9673775734     0.8255335506     1.1193569233
   11      H       2.6826509890     0.3889739275    -0.4456320858
   12      H       0.8202316710    -1.4601409377     1.4599001880
   13      H      -2.0529166687    -1.0957121858     0.4000450220
 ----------------------------------------------------------------
 Nuclear Repulsion Energy =   289.2802944380 hartrees
 There are       29 alpha and       29 beta electrons

                       Distance Matrix (Angstroms)
             S (  1)   S (  2)   C (  3)   C (  4)   C (  5)   H (  6)
   S (  2)  3.435901
   C (  3)  1.840030  2.842536
   C (  4)  2.814379  1.829137  1.538366
   C (  5)  2.749570  4.200690  1.532029  2.519188
   H (  6)  2.395721  3.036122  1.094936  2.164586  2.153070
   H (  7)  3.053424  2.413194  2.177949  1.095583  2.746584  3.075521
   H (  8)  3.776269  2.377320  2.164316  1.095087  2.752182  2.487690
   H (  9)  3.737262  4.482283  2.173293  2.754769  1.096732  2.503143
   H ( 10)  2.979527  4.523341  2.188386  2.791451  1.095449  3.077890
   H ( 11)  2.929253  5.017589  2.182614  3.482547  1.094578  2.491779
   H ( 12)  1.344712  3.767285  2.391151  2.920982  2.869781  3.311500
   H ( 13)  2.828927  1.193048  2.928995  2.289010  4.325830  3.298219
             H (  7)   H (  8)   H (  9)   H ( 10)   H ( 11)   H ( 12)
   H (  8)  1.762920
   H (  9)  3.069960  2.533029
   H ( 10)  2.567742  3.132628  1.767941
   H ( 11)  3.769010  3.750069  1.765939  1.775216
   H ( 12)  2.648846  3.917430  3.876676  2.579965  3.243283
   H ( 13)  2.581278  3.180721  4.870115  4.513464  5.034388  3.084004

 
 Applying Cartesian multipole field
    Component          Value
    ---------          -----
     (2,0,0)        1.00000E-11
     (0,2,0)        2.00000E-11
     (0,0,2)       -3.00000E-10
 Nucleus-field energy     =    -0.0000000007 hartrees
 Requested basis set is 6-31G(d,p)
 There are 46 shells and 123 basis functions
 A cutoff of  1.0D-14 yielded   1031 shell pairs
 There are      7534 function pairs
 Smallest overlap matrix eigenvalue = 5.44E-03
 Guess from superposition of atomic densities
 Warning:  Energy on first SCF cycle will be non-variational
 SAD guess density has 58.000000 electrons

 -----------------------------------------------------------------------
  General SCF calculation program by
  Eric Jon Sundstrom, Paul Horn, Yuezhi Mao, Dmitri Zuev, Alec White,
  David Stuck, Shaama M.S., Shane Yost, Joonho Lee, David Small,
  Daniel Levine, Susi Lehtola, Hugh Burton, Evgeny Epifanovsky
 -----------------------------------------------------------------------
 Exchange:     0.2000 Hartree-Fock + 0.0800 Slater + 0.7200 B88
 Correlation:  0.1900 VWN1RPA + 0.8100 LYP
 Using SG-1 standard quadrature grid
 using 12 threads for integral computing
 -------------------------------------------------------
 OpenMP Integral computing Module                
 Release: version 1.0, May 2013, Q-Chem Inc. Pittsburgh 
 -------------------------------------------------------
 -------------------------------------------------------
 OpenMP BLAS3 based DFT computing Module                
 Release: version 1.0, May 2013, Q-Chem Inc. Pittsburgh 
 -------------------------------------------------------
 A unrestricted SCF calculation will be
 performed using DIIS
 SCF converges when DIIS error is below 1.0e-06
 Alpha HF Exchange    Energy =  -6.87340968567666
 Beta HF Exchange     Energy =  -6.87340968567666
 DFT Correlation      Energy =  -2.71777148890869
 DFT Exchange         Energy = -53.90710064897178
 One-Electron (alpha) Energy = -915.09621843035870
 One-Electron (beta)  Energy = -915.09621843035870
 Total Coulomb        Energy = 695.05633212483508
 ---------------------------------------
  Cycle       Energy         DIIS error
 ---------------------------------------
    1    -916.2275018079      2.91e-02  
 Alpha HF Exchange    Energy =  -6.87449466311655
 Beta HF Exchange     Energy =  -6.87449466311655
 DFT Correlation      Energy =  -2.74489729591804
 DFT Exchange         Energy = -54.53543312274830
 One-Electron (alpha) Energy = -919.17317415078674
 One-Electron (beta)  Energy = -919.17317415078639
 Total Coulomb        Energy = 704.65260568068561
    2    -915.4427679285      2.79e-03  
 Alpha HF Exchange    Energy =  -6.82001946310525
 Beta HF Exchange     Energy =  -6.82001946310525
 DFT Correlation      Energy =  -2.71961220228375
 DFT Exchange         Energy = -54.07516303966284
 One-Electron (alpha) Energy = -915.06394375841285
 One-Electron (beta)  Energy = -915.06394375841285
 Total Coulomb        Energy = 695.85516563332783
    3    -915.4272416144      3.15e-03  
 Alpha HF Exchange    Energy =  -6.84489362852678
 Beta HF Exchange     Energy =  -6.84489362852678
 DFT Correlation      Energy =  -2.73231734830869
 DFT Exchange         Energy = -54.28509048040222
 One-Electron (alpha) Energy = -917.12059536430502
 One-Electron (beta)  Energy = -917.12059536430513
 Total Coulomb        Energy = 700.16119938095937
    4    -915.5068919962      4.83e-04  
 Alpha HF Exchange    Energy =  -6.84629429164745
 Beta HF Exchange     Energy =  -6.84629429164745
 DFT Correlation      Energy =  -2.73231824416454
 DFT Exchange         Energy = -54.29494420826003
 One-Electron (alpha) Energy = -917.15434167166495
 One-Electron (beta)  Energy = -917.15434167166484
 Total Coulomb        Energy = 700.23944258627353
    5    -915.5087973555      1.38e-04  
 Alpha HF Exchange    Energy =  -6.84621634295655
 Beta HF Exchange     Energy =  -6.84621634295655
 DFT Correlation      Energy =  -2.73233627160088
 DFT Exchange         Energy = -54.29454546446503
 One-Electron (alpha) Energy = -917.15791972606053
 One-Electron (beta)  Energy = -917.15791972606053
 Total Coulomb        Energy = 700.24592640326625
    6    -915.5089330336      3.93e-05  
 Alpha HF Exchange    Energy =  -6.84604398318051
 Beta HF Exchange     Energy =  -6.84604398318051
 DFT Correlation      Energy =  -2.73227446063680
 DFT Exchange         Energy = -54.29309276821852
 One-Electron (alpha) Energy = -917.14041482398056
 One-Electron (beta)  Energy = -917.14041482398045
 Total Coulomb        Energy = 700.20904606146132
    7    -915.5089443445      7.35e-06  
 Alpha HF Exchange    Energy =  -6.84609676883032
 Beta HF Exchange     Energy =  -6.84609676883032
 DFT Correlation      Energy =  -2.73229506496768
 DFT Exchange         Energy = -54.29351018524207
 One-Electron (alpha) Energy = -917.14667465925129
 One-Electron (beta)  Energy = -917.14667465925083
 Total Coulomb        Energy = 700.22210887591871
    8    -915.5089447932      1.53e-06  
 Alpha HF Exchange    Energy =  -6.84609032863978
 Beta HF Exchange     Energy =  -6.84609032863979
 DFT Correlation      Energy =  -2.73229229220704
 DFT Exchange         Energy = -54.29345680499206
 One-Electron (alpha) Energy = -917.14578811150989
 One-Electron (beta)  Energy = -917.14578811151091
 Total Coulomb        Energy = 700.22026672678419
    9    -915.5089448135      2.83e-07  Convergence criterion met
 ---------------------------------------
 SCF time:   CPU 29.46s  wall 2.00s 
<S^2> =         -0.000000000
 Alpha HF Exchange    Energy =  -6.84609032863978
 Beta HF Exchange     Energy =  -6.84609032863979
 DFT Correlation      Energy =  -2.73229229220704
 DFT Exchange         Energy = -54.29345680499206
 One-Electron (alpha) Energy = -917.14578811150989
 One-Electron (beta)  Energy = -917.14578811151091
 Total Coulomb        Energy = 700.22026672678419
 Nuclear repulsion Energy = 289.28029443724046
 SCF   energy in the final basis set =     -915.5089448135
 Total energy in the final basis set =     -915.5089448135
 
 --------------------------------------------------------------
 
                    Orbital Energies (a.u.)
 --------------------------------------------------------------
 
 Alpha MOs
 -- Occupied --
-88.879 -88.861 -10.239 -10.230 -10.194  -7.942  -7.929  -5.907
 -5.903  -5.897  -5.893  -5.890  -5.883  -0.841  -0.770  -0.714
 -0.667  -0.591  -0.487  -0.453  -0.429  -0.425  -0.400  -0.387
 -0.365  -0.326  -0.324  -0.245  -0.238
 -- Virtual --
  0.016   0.042   0.065   0.094   0.111   0.122   0.138   0.154
  0.166   0.172   0.202   0.212   0.302   0.335   0.357   0.367
  0.373   0.393   0.401   0.444   0.495   0.518   0.535   0.563
  0.578   0.648   0.659   0.682   0.724   0.751   0.753   0.783
  0.804   0.818   0.837   0.850   0.872   0.883   0.887   0.927
  0.944   0.961   0.974   1.028   1.082   1.126   1.200   1.321
  1.369   1.375   1.398   1.567   1.607   1.717   1.770   1.816
  1.851   1.915   2.032   2.038   2.065   2.078   2.098   2.107
  2.119   2.160   2.170   2.221   2.234   2.283   2.354   2.436
  2.490   2.586   2.605   2.629   2.720   2.723   2.746   2.822
  2.859   2.885   3.045   3.175   3.235   3.314   3.428   3.455
  3.470   3.962   4.002   4.266   4.445   4.590
 
 Beta MOs
 -- Occupied --
-88.879 -88.861 -10.239 -10.230 -10.194  -7.942  -7.929  -5.907
 -5.903  -5.897  -5.893  -5.890  -5.883  -0.841  -0.770  -0.714
 -0.667  -0.591  -0.487  -0.453  -0.429  -0.425  -0.400  -0.387
 -0.365  -0.326  -0.324  -0.245  -0.238
 -- Virtual --
  0.016   0.042   0.065   0.094   0.111   0.122   0.138   0.154
  0.166   0.172   0.202   0.212   0.302   0.335   0.357   0.367
  0.373   0.393   0.401   0.444   0.495   0.518   0.535   0.563
  0.578   0.648   0.659   0.682   0.724   0.751   0.753   0.783
  0.804   0.818   0.837   0.850   0.872   0.883   0.887   0.927
  0.944   0.961   0.974   1.028   1.082   1.126   1.200   1.321
  1.369   1.375   1.398   1.567   1.607   1.717   1.770   1.816
  1.851   1.915   2.032   2.038   2.065   2.078   2.098   2.107
  2.119   2.160   2.170   2.221   2.234   2.283   2.354   2.436
  2.490   2.586   2.605   2.629   2.720   2.723   2.746   2.822
  2.859   2.885   3.045   3.175   3.235   3.314   3.428   3.455
  3.470   3.962   4.002   4.266   4.445   4.590
 --------------------------------------------------------------
 
          Ground-State Mulliken Net Atomic Charges

     Atom                 Charge (a.u.)    Spin (a.u.)
  --------------------------------------------------------
      1 S                    -0.043034      -0.000000
      2 S                    -0.035026       0.000000
      3 C                    -0.206470      -0.000000
      4 C                    -0.321960      -0.000000
      5 C                    -0.308321       0.000000
      6 H                     0.153930       0.000000
      7 H                     0.134644       0.000000
      8 H                     0.144577       0.000000
      9 H                     0.107886      -0.000000
     10 H                     0.109350      -0.000000
     11 H                     0.130849      -0.000000
     12 H                     0.056759       0.000000
     13 H                     0.076816      -0.000000
  --------------------------------------------------------
  Sum of atomic charges =    -0.000000
  Sum of spin   charges =     0.000000

 -----------------------------------------------------------------
                    Cartesian Multipole Moments
 -----------------------------------------------------------------
    Charge (ESU x 10^10)
                 0.0000
    Dipole Moment (Debye)
         X       1.6540      Y       1.3672      Z       1.0468
       Tot       2.3876
    Quadrupole Moments (Debye-Ang)
        XX     -52.8420     XY       2.7281     YY     -47.5908
        XZ      -0.4166     YZ      -2.2320     ZZ     -44.8517
    Octopole Moments (Debye-Ang^2)
       XXX      41.1331    XXY       8.5042    XYY       3.5994
       YYY      41.4378    XXZ      -1.4178    XYZ       0.3685
       YYZ       0.2585    XZZ      14.0494    YZZ       8.7899
       ZZZ      -3.6266
    Hexadecapole Moments (Debye-Ang^3)
      XXXX    -764.1061   XXXY      41.5925   XXYY    -180.1702
      XYYY      19.2339   YYYY    -368.4561   XXXZ      -5.9596
      XXYZ      -3.0123   XYYZ       0.6450   YYYZ      -0.8316
      XXZZ    -142.2101   XYZZ       2.7283   YYZZ     -72.2963
      XZZZ      -6.6877   YZZZ       5.4739   ZZZZ     -91.2663
 -----------------------------------------------------------------
 Calculating analytic gradient of the SCF energy
 Gradient of SCF Energy
            1           2           3           4           5           6
    1   0.0024944   0.0300499  -0.0052071  -0.0010998  -0.0029854   0.0016878
    2   0.0081982  -0.1070562  -0.0077333   0.0030139  -0.0059917   0.0049261
    3   0.0054564   0.0505466  -0.0087122   0.0003945   0.0038944  -0.0009256
            7           8           9          10          11          12
    1  -0.0015291   0.0008257   0.0004452   0.0003726   0.0013224  -0.0014399
    2  -0.0004822   0.0006322  -0.0007823   0.0007668   0.0006178  -0.0013031
    3   0.0005282   0.0003829  -0.0003589   0.0003770  -0.0012922  -0.0022228
           13
    1  -0.0249367
    2   0.1051939
    3  -0.0480684
 Max gradient component =       1.071E-01
 RMS gradient           =       2.741E-02
 Gradient time:  CPU 11.83 s  wall 1.05 s
 Geometry Optimization Parameters
   NAtoms,    NIC,     NZ,  NCons,   NDum,   NFix, NCnnct, MaxDiis
       13      82       0       1       0       0       0       0

 Cartesian Hessian Update
 Hessian Updated using BFGS Update


** CONSTRAINED OPTIMIZATION IN DELOCALIZED INTERNAL COORDINATES **
   Searching for a Minimum

   Optimization Cycle:   2

                       Coordinates (Angstroms)
     ATOM                X               Y               Z
      1  S         0.7011752471   -1.6874257279    0.1398935644
      2  S        -2.3041964200   -0.0384000257   -0.0922083080
      3  C         0.5245303316    0.0783244612   -0.3465573740
      4  C        -0.7000741384    0.7480424310    0.3002736441
      5  C         1.8039180525    0.8291866897    0.0361785644
      6  H         0.4151640274    0.0943014968   -1.4359003722
      7  H        -0.5857917339    0.7836275112    1.3892981297
      8  H        -0.7764072904    1.7825322536   -0.0507517275
      9  H         1.7440383594    1.8761565555   -0.2848961683
     10  H         1.9673775734    0.8255335506    1.1193569233
     11  H         2.6826509890    0.3889739275   -0.4456320858
     12  H         0.8202316710   -1.4601409377    1.4599001880
     13  H        -2.0529166687   -1.0957121858    0.4000450220
   Point Group: c1    Number of degrees of freedom:    33


   Energy is   -915.508944813

              Constraints and their Current Values
                                        Value     Constraint
   Distance(Angs):        2  13             1.193048     0.700000
 Hessian Updated using BFGS Update
**WARNING** Constraint Gradient Reduced for constraint   1

   Using Lagrange Multiplier Algorithm


 29 Hessian modes will be used to form the next step
  Hessian Eigenvalues:
    -0.809691    0.110369    0.110666    0.185994    0.187587    0.192654
     0.201140    0.205270    0.207026    0.231697    0.312950    0.355259
     0.393211    0.393693    0.435143    0.500883    0.540322    0.584442
     0.601613    0.646928    0.715452    0.727642    0.839098    0.839252
     0.839277    0.839496    0.840032    0.840843    1.237911

 Minimum Search - Taking P-RFO Step
 Searching for Lamda that Maximizes Along the Constraint modes Only
 Value Taken    Lamda =   0.04600157
 Searching for Lamda that Minimizes Along All other modes
 Value Taken    Lamda =  -0.04386911
 Calculated Step too Large.  Step scaled by  0.995903
 Step Taken.  Stepsize is  0.300000

                             Maximum     Tolerance    Cnvgd?
         Gradient            0.300000       0.000300      NO
         Displacement        0.285426       0.001200      NO
         Energy change      0.013064       0.000001      NO


 New Cartesian Coordinates Obtained by Inverse Iteration

 Displacement from previous Coordinates is:  0.349130
 ----------------------------------------------------------------
             Standard Nuclear Orientation (Angstroms)
    I     Atom           X                Y                Z
 ----------------------------------------------------------------
    1      S       0.7276092889    -1.7174138845     0.1445535462
    2      S      -2.3196673892    -0.0457174907    -0.0834307177
    3      C       0.5349665306     0.0598803643    -0.3291357000
    4      C      -0.6986910160     0.7206581889     0.3110157941
    5      C       1.8043103461     0.8442298700     0.0339565643
    6      H       0.4131287122     0.0572487922    -1.4162878450
    7      H      -0.5763982881     0.7648904527     1.3984386587
    8      H      -0.7797053811     1.7515747496    -0.0478562913
    9      H       1.7205443010     1.8878648852    -0.2951573670
   10      H       1.9737525888     0.8508065532     1.1156978747
   11      H       2.6851711266     0.4128201211    -0.4482065387
   12      H       0.8690745465    -1.4863474239     1.4655743763
   13      H      -2.1143953663    -0.9754951781     0.3398376454
 ----------------------------------------------------------------
 Nuclear Repulsion Energy =   288.7520014967 hartrees
 There are       29 alpha and       29 beta electrons

                       Distance Matrix (Angstroms)
             S (  1)   S (  2)   C (  3)   C (  4)   C (  5)   H (  6)
   S (  2)  3.483165
   C (  3)  1.849397  2.867134
   C (  4)  2.829530  1.835888  1.538939
   C (  5)  2.780924  4.220542  1.535667  2.521319
   H (  6)  2.384230  3.042250  1.093961  2.158665  2.158225
   H (  7)  3.071563  2.427346  2.171793  1.095171  2.745156  3.066367
   H (  8)  3.787202  2.367067  2.160859  1.094596  2.739910  2.483183
   H (  9)  3.765276  4.484070  2.179054  2.753637  1.097500  2.513449
   H ( 10)  3.015253  4.546990  2.187056  2.793995  1.094951  3.078349
   H ( 11)  2.953186  5.039020  2.182229  3.481624  1.092937  2.495153
   H ( 12)  1.348518  3.826605  2.392370  2.943088  2.890638  3.300864
   H ( 13)  2.943734  1.042007  2.922096  2.209522  4.331422  3.246369
             H (  7)   H (  8)   H (  9)   H ( 10)   H ( 11)   H ( 12)
   H (  8)  1.762569
   H (  9)  3.066804  2.516144
   H ( 10)  2.567215  3.121982  1.769214
   H ( 11)  3.764557  3.736029  1.769092  1.773061
   H ( 12)  2.676186  3.936126  3.900062  2.608643  3.250785
   H ( 13)  2.552452  3.060819  4.827920  4.544259  5.058090  3.229450

 
 Applying Cartesian multipole field
    Component          Value
    ---------          -----
     (2,0,0)        1.00000E-11
     (0,2,0)        2.00000E-11
     (0,0,2)       -3.00000E-10
 Nucleus-field energy     =    -0.0000000004 hartrees
 Requested basis set is 6-31G(d,p)
 There are 46 shells and 123 basis functions
 A cutoff of  1.0D-14 yielded   1030 shell pairs
 There are      7531 function pairs
 Smallest overlap matrix eigenvalue = 5.52E-03
 Guess from superposition of atomic densities
 Warning:  Energy on first SCF cycle will be non-variational
 SAD guess density has 58.000000 electrons

 -----------------------------------------------------------------------
  General SCF calculation program by
  Eric Jon Sundstrom, Paul Horn, Yuezhi Mao, Dmitri Zuev, Alec White,
  David Stuck, Shaama M.S., Shane Yost, Joonho Lee, David Small,
  Daniel Levine, Susi Lehtola, Hugh Burton, Evgeny Epifanovsky
 -----------------------------------------------------------------------
 Exchange:     0.2000 Hartree-Fock + 0.0800 Slater + 0.7200 B88
 Correlation:  0.1900 VWN1RPA + 0.8100 LYP
 Using SG-1 standard quadrature grid
 using 12 threads for integral computing
 -------------------------------------------------------
 OpenMP Integral computing Module                
 Release: version 1.0, May 2013, Q-Chem Inc. Pittsburgh 
 -------------------------------------------------------
 -------------------------------------------------------
 OpenMP BLAS3 based DFT computing Module                
 Release: version 1.0, May 2013, Q-Chem Inc. Pittsburgh 
 -------------------------------------------------------
 A unrestricted SCF calculation will be
 performed using DIIS
 SCF converges when DIIS error is below 1.0e-06
 Alpha HF Exchange    Energy =  -6.88073444691687
 Beta HF Exchange     Energy =  -6.88073444691687
 DFT Correlation      Energy =  -2.71874268924710
 DFT Exchange         Energy = -53.92713757591170
 One-Electron (alpha) Energy = -914.39827423288216
 One-Electron (beta)  Energy = -914.39827423288216
 Total Coulomb        Energy = 694.17963510229299
 ---------------------------------------
  Cycle       Energy         DIIS error
 ---------------------------------------
    1    -916.2722610263      3.02e-02  
 Alpha HF Exchange    Energy =  -6.88141085672130
 Beta HF Exchange     Energy =  -6.88141085672131
 DFT Correlation      Energy =  -2.74654132627118
 DFT Exchange         Energy = -54.58765438308493
 One-Electron (alpha) Energy = -918.59576496727811
 One-Electron (beta)  Energy = -918.59576496727823
 Total Coulomb        Energy = 704.15770378818900
    2    -915.3788420730      2.77e-03  
 Alpha HF Exchange    Energy =  -6.82567795406756
 Beta HF Exchange     Energy =  -6.82567795406756
 DFT Correlation      Energy =  -2.72125913848547
 DFT Exchange         Energy = -54.11809984227391
 One-Electron (alpha) Energy = -914.45564648650350
 One-Electron (beta)  Energy = -914.45564648650361
 Total Coulomb        Energy = 695.28137479629584
    3    -915.3686315694      3.04e-03  
 Alpha HF Exchange    Energy =  -6.85071744969209
 Beta HF Exchange     Energy =  -6.85071744969208
 DFT Correlation      Energy =  -2.73383433343202
 DFT Exchange         Energy = -54.32900608403887
 One-Electron (alpha) Energy = -916.49566257962738
 One-Electron (beta)  Energy = -916.49566257962681
 Total Coulomb        Energy = 699.56079771844452
    4    -915.4428012615      4.90e-04  
 Alpha HF Exchange    Energy =  -6.85208679403152
 Beta HF Exchange     Energy =  -6.85208679403151
 DFT Correlation      Energy =  -2.73378323067077
 DFT Exchange         Energy = -54.33848868044592
 One-Electron (alpha) Energy = -916.52722601461812
 One-Electron (beta)  Energy = -916.52722601461812
 Total Coulomb        Energy = 699.63412572966513
    5    -915.4447703025      1.41e-04  
 Alpha HF Exchange    Energy =  -6.85202128745425
 Beta HF Exchange     Energy =  -6.85202128745426
 DFT Correlation      Energy =  -2.73381248049575
 DFT Exchange         Energy = -54.33821541801576
 One-Electron (alpha) Energy = -916.53166649455227
 One-Electron (beta)  Energy = -916.53166649455295
 Total Coulomb        Energy = 699.64248869776372
    6    -915.4449132685      4.13e-05  
 Alpha HF Exchange    Energy =  -6.85185391143748
 Beta HF Exchange     Energy =  -6.85185391143747
 DFT Correlation      Energy =  -2.73375208253326
 DFT Exchange         Energy = -54.33680196614654
 One-Electron (alpha) Energy = -916.51443132413044
 One-Electron (beta)  Energy = -916.51443132413021
 Total Coulomb        Energy = 699.60619724089031
    7    -915.4449257827      7.34e-06  
 Alpha HF Exchange    Energy =  -6.85190081894845
 Beta HF Exchange     Energy =  -6.85190081894844
 DFT Correlation      Energy =  -2.73377060548001
 DFT Exchange         Energy = -54.33717185510373
 One-Electron (alpha) Energy = -916.52025699157377
 One-Electron (beta)  Energy = -916.52025699157355
 Total Coulomb        Energy = 699.61833036440089
    8    -915.4449262210      1.66e-06  
 Alpha HF Exchange    Energy =  -6.85189439110908
 Beta HF Exchange     Energy =  -6.85189439110907
 DFT Correlation      Energy =  -2.73376779735561
 DFT Exchange         Energy = -54.33711847960975
 One-Electron (alpha) Energy = -916.51935918432230
 One-Electron (beta)  Energy = -916.51935918432196
 Total Coulomb        Energy = 699.61646568734091
    9    -915.4449262443      3.52e-07  Convergence criterion met
 ---------------------------------------
 SCF time:   CPU 29.46s  wall 2.00s 
<S^2> =         -0.000000000
 Alpha HF Exchange    Energy =  -6.85189439110908
 Beta HF Exchange     Energy =  -6.85189439110907
 DFT Correlation      Energy =  -2.73376779735561
 DFT Exchange         Energy = -54.33711847960975
 One-Electron (alpha) Energy = -916.51935918432230
 One-Electron (beta)  Energy = -916.51935918432196
 Total Coulomb        Energy = 699.61646568734091
 Nuclear repulsion Energy = 288.75200149621151
 SCF   energy in the final basis set =     -915.4449262443
 Total energy in the final basis set =     -915.4449262443
 
 --------------------------------------------------------------
 
                    Orbital Energies (a.u.)
 --------------------------------------------------------------
 
 Alpha MOs
 -- Occupied --
-88.880 -88.849 -10.240 -10.230 -10.195  -7.943  -7.926  -5.907
 -5.904  -5.897  -5.890  -5.886  -5.879  -0.842  -0.784  -0.715
 -0.680  -0.592  -0.489  -0.453  -0.430  -0.425  -0.400  -0.389
 -0.363  -0.328  -0.325  -0.246  -0.241
 -- Virtual --
  0.014   0.040   0.064   0.094   0.118   0.132   0.147   0.160
  0.166   0.177   0.202   0.214   0.272   0.335   0.357   0.365
  0.374   0.392   0.397   0.448   0.494   0.516   0.534   0.562
  0.578   0.649   0.660   0.680   0.722   0.749   0.758   0.779
  0.802   0.818   0.837   0.846   0.872   0.884   0.887   0.927
  0.942   0.960   0.971   1.023   1.075   1.122   1.191   1.362
  1.374   1.399   1.548   1.568   1.616   1.714   1.769   1.812
  1.850   1.909   2.032   2.040   2.065   2.077   2.098   2.112
  2.116   2.160   2.236   2.256   2.275   2.286   2.362   2.437
  2.491   2.588   2.612   2.631   2.717   2.725   2.741   2.824
  2.860   2.885   3.176   3.228   3.307   3.314   3.428   3.454
  3.473   3.937   3.988   4.262   4.443   4.588
 
 Beta MOs
 -- Occupied --
-88.880 -88.849 -10.240 -10.230 -10.195  -7.943  -7.926  -5.907
 -5.904  -5.897  -5.890  -5.886  -5.879  -0.842  -0.784  -0.715
 -0.680  -0.592  -0.489  -0.453  -0.430  -0.425  -0.400  -0.389
 -0.363  -0.328  -0.325  -0.246  -0.241
 -- Virtual --
  0.014   0.040   0.064   0.094   0.118   0.132   0.147   0.160
  0.166   0.177   0.202   0.214   0.272   0.335   0.357   0.365
  0.374   0.392   0.397   0.448   0.494   0.516   0.534   0.562
  0.578   0.649   0.660   0.680   0.722   0.749   0.758   0.779
  0.802   0.818   0.837   0.846   0.872   0.884   0.887   0.927
  0.942   0.960   0.971   1.023   1.075   1.122   1.191   1.362
  1.374   1.399   1.548   1.568   1.616   1.714   1.769   1.812
  1.850   1.909   2.032   2.040   2.065   2.077   2.098   2.112
  2.116   2.160   2.236   2.256   2.275   2.286   2.362   2.437
  2.491   2.588   2.612   2.631   2.717   2.725   2.741   2.824
  2.860   2.885   3.176   3.228   3.307   3.314   3.428   3.454
  3.473   3.937   3.988   4.262   4.443   4.588
 --------------------------------------------------------------
 
          Ground-State Mulliken Net Atomic Charges

     Atom                 Charge (a.u.)    Spin (a.u.)
  --------------------------------------------------------
      1 S                    -0.043977      -0.000000
      2 S                    -0.017589       0.000000
      3 C                    -0.208606      -0.000000
      4 C                    -0.319821      -0.000000
      5 C                    -0.308724      -0.000000
      6 H                     0.153204       0.000000
      7 H                     0.134114      -0.000000
      8 H                     0.144721      -0.000000
      9 H                     0.109903       0.000000
     10 H                     0.109981       0.000000
     11 H                     0.131477       0.000000
     12 H                     0.056147      -0.000000
     13 H                     0.059170      -0.000000
  --------------------------------------------------------
  Sum of atomic charges =    -0.000000
  Sum of spin   charges =    -0.000000

 -----------------------------------------------------------------
                    Cartesian Multipole Moments
 -----------------------------------------------------------------
    Charge (ESU x 10^10)
                 0.0000
    Dipole Moment (Debye)
         X       1.6415      Y       1.3475      Z       1.0491
       Tot       2.3687
    Quadrupole Moments (Debye-Ang)
        XX     -52.5672     XY       2.8967     YY     -47.5892
        XZ      -0.3650     YZ      -2.1264     ZZ     -44.7894
    Octopole Moments (Debye-Ang^2)
       XXX      39.3513    XXY       8.6323    XYY       3.3640
       YYY      43.0259    XXZ      -1.3141    XYZ       0.1134
       YYZ      -0.0894    XZZ      13.6688    YZZ       9.1945
       ZZZ      -4.2432
    Hexadecapole Moments (Debye-Ang^3)
      XXXX    -769.3142   XXXY      46.2317   XXYY    -182.2886
      XYYY      21.5969   YYYY    -374.5043   XXXZ      -6.7993
      XXYZ      -3.0543   XYYZ       1.0832   YYYZ      -0.6490
      XXZZ    -143.1044   XYZZ       3.4719   YYZZ     -73.0779
      XZZZ      -6.5958   YZZZ       5.6537   ZZZZ     -90.7504
 -----------------------------------------------------------------
 Calculating analytic gradient of the SCF energy
 Gradient of SCF Energy
            1           2           3           4           5           6
    1   0.0024100   0.0717118  -0.0026284  -0.0003575  -0.0002599   0.0008646
    2   0.0019541  -0.3263896  -0.0053144   0.0017362  -0.0030674   0.0035231
    3   0.0021232   0.1486690  -0.0051056   0.0007729   0.0029165   0.0000026
            7           8           9          10          11          12
    1   0.0001464  -0.0002705   0.0006031   0.0000825   0.0004036  -0.0010875
    2  -0.0000736   0.0000875   0.0002727   0.0004607   0.0006850   0.0000159
    3  -0.0000344  -0.0002581  -0.0002747  -0.0000527  -0.0006648  -0.0005534
           13
    1  -0.0716183
    2   0.3261099
    3  -0.1475406
 Max gradient component =       3.264E-01
 RMS gradient           =       8.276E-02
 Gradient time:  CPU 11.86 s  wall 1.05 s
 Geometry Optimization Parameters
   NAtoms,    NIC,     NZ,  NCons,   NDum,   NFix, NCnnct, MaxDiis
       13      82       0       1       0       0       0       0

 Cartesian Hessian Update
 Hessian Updated using BFGS Update


** CONSTRAINED OPTIMIZATION IN DELOCALIZED INTERNAL COORDINATES **
   Searching for a Minimum

   Optimization Cycle:   3

                       Coordinates (Angstroms)
     ATOM                X               Y               Z
      1  S         0.7276092889   -1.7174138845    0.1445535462
      2  S        -2.3196673892   -0.0457174907   -0.0834307177
      3  C         0.5349665306    0.0598803643   -0.3291357000
      4  C        -0.6986910160    0.7206581889    0.3110157941
      5  C         1.8043103461    0.8442298700    0.0339565643
      6  H         0.4131287122    0.0572487922   -1.4162878450
      7  H        -0.5763982881    0.7648904527    1.3984386587
      8  H        -0.7797053811    1.7515747496   -0.0478562913
      9  H         1.7205443010    1.8878648852   -0.2951573670
     10  H         1.9737525888    0.8508065532    1.1156978747
     11  H         2.6851711266    0.4128201211   -0.4482065387
     12  H         0.8690745465   -1.4863474239    1.4655743763
     13  H        -2.1143953663   -0.9754951781    0.3398376454
   Point Group: c1    Number of degrees of freedom:    33


   Energy is   -915.444926244

              Constraints and their Current Values
                                        Value     Constraint
   Distance(Angs):        2  13             1.042007     0.700000
 Hessian Updated using BFGS Update
**WARNING** Constraint Gradient Reduced for constraint   1

   Using Lagrange Multiplier Algorithm


 31 Hessian modes will be used to form the next step
  Hessian Eigenvalues:
    -0.653533    0.110266    0.110661    0.110667    0.185724    0.187593
     0.192098    0.201128    0.205261    0.207028    0.231651    0.312950
     0.355174    0.393170    0.393469    0.393697    0.435035    0.500544
     0.540211    0.583996    0.601518    0.646843    0.715493    0.727636
     0.839096    0.839251    0.839276    0.839475    0.840039    0.840840
     1.533789

 Minimum Search - Taking P-RFO Step
 Searching for Lamda that Maximizes Along the Constraint modes Only
 Value Taken    Lamda =   0.13142454


 ********************************************
 ** ERROR IN DETERMINING Lamda IN CONFormD **
 ********************************************


 ** Scaling Hessian by  2.383767 **


 31 Hessian modes will be used to form the next step
  Hessian Eigenvalues:
    -0.402402    0.262737    0.263790    0.263803    0.442396    0.447178
     0.457218    0.479429    0.489282    0.493507    0.552127    0.745998
     0.846524    0.937130    0.937934    0.938414    1.036616    1.192507
     1.287170    1.391053    1.433603    1.541684    1.705467    1.734354
     2.000119    2.000564    2.000635    2.000987    2.002457    2.004348
     2.506003

 Minimum Search - Taking P-RFO Step
 Searching for Lamda that Maximizes Along the Constraint modes Only
 Value Taken    Lamda =   0.18169663
 Searching for Lamda that Minimizes Along All other modes
 Value Taken    Lamda =  -0.00085563
 Step Taken.  Stepsize is  0.217009

                             Maximum     Tolerance    Cnvgd?
         Gradient            0.300000       0.000300      NO
         Displacement        0.515814       0.001200      NO
         Energy change      0.064019       0.000001      NO


 New Cartesian Coordinates Obtained by Inverse Iteration

 Displacement from previous Coordinates is:  0.232089
 ----------------------------------------------------------------
             Standard Nuclear Orientation (Angstroms)
    I     Atom           X                Y                Z
 ----------------------------------------------------------------
    1      S       0.7362291226    -1.7334299732     0.1504710812
    2      S      -2.3213687889    -0.0574388839    -0.0813813335
    3      C       0.5404047587     0.0507736506    -0.3146943531
    4      C      -0.6974618294     0.7046109353     0.3214339967
    5      C       1.8041421465     0.8539936694     0.0306601581
    6      H       0.4080824172     0.0320497329    -1.4001919810
    7      H      -0.5744932672     0.7532019184     1.4084627423
    8      H      -0.7822171494     1.7336507155    -0.0409905543
    9      H       1.7047550627     1.8939935675    -0.3056712951
   10      H       1.9799053703     0.8688606205     1.1111624816
   11      H       2.6843464452     0.4246531135    -0.4526227864
   12      H       0.9012871091    -1.5056674650     1.4713656128
   13      H      -2.1439113973    -0.8942516015     0.2909962306
 ----------------------------------------------------------------
 Nuclear Repulsion Energy =   289.1604484785 hartrees
 There are       29 alpha and       29 beta electrons

                       Distance Matrix (Angstroms)
             S (  1)   S (  2)   C (  3)   C (  4)   C (  5)   H (  6)
   S (  2)  3.494511
   C (  3)  1.854214  2.873307
   C (  4)  2.833503  1.838492  1.537685
   C (  5)  2.801706  4.226476  1.536706  2.522873
   H (  6)  2.372584  3.032684  1.093693  2.153732  2.161461
   H (  7)  3.079590  2.434820  2.169256  1.095041  2.750710  3.061708
   H (  8)  3.789853  2.361910  2.157850  1.094284  2.732798  2.481872
   H (  9)  3.782104  4.479740  2.180196  2.752914  1.097541  2.519161
   H ( 10)  3.039996  4.558635  2.185062  2.796238  1.094805  3.078601
   H ( 11)  2.969210  5.042561  2.180664  3.480541  1.092088  2.496678
   H ( 12)  1.350512  3.859262  2.396405  2.960350  2.908398  3.294491
   H ( 13)  3.003194  0.932959  2.909551  2.156271  4.325652  3.198566
             H (  7)   H (  8)   H (  9)   H ( 10)   H ( 11)   H ( 12)
   H (  8)  1.762199
   H (  9)  3.071585  2.506152
   H ( 10)  2.574241  3.115227  1.770317
   H ( 11)  3.767177  3.728268  1.772048  1.771717
   H ( 12)  2.698958  3.951530  3.919326  2.632783  3.256865
   H ( 13)  2.534937  2.978304  4.789839  4.559287  5.060094  3.322700

 
 Applying Cartesian multipole field
    Component          Value
    ---------          -----
     (2,0,0)        1.00000E-11
     (0,2,0)        2.00000E-11
     (0,0,2)       -3.00000E-10
 Nucleus-field energy     =    -0.0000000003 hartrees
 Requested basis set is 6-31G(d,p)
 There are 46 shells and 123 basis functions
 A cutoff of  1.0D-14 yielded   1028 shell pairs
 There are      7527 function pairs
 Smallest overlap matrix eigenvalue = 5.53E-03
 Guess from superposition of atomic densities
 Warning:  Energy on first SCF cycle will be non-variational
 SAD guess density has 58.000000 electrons

 -----------------------------------------------------------------------
  General SCF calculation program by
  Eric Jon Sundstrom, Paul Horn, Yuezhi Mao, Dmitri Zuev, Alec White,
  David Stuck, Shaama M.S., Shane Yost, Joonho Lee, David Small,
  Daniel Levine, Susi Lehtola, Hugh Burton, Evgeny Epifanovsky
 -----------------------------------------------------------------------
 Exchange:     0.2000 Hartree-Fock + 0.0800 Slater + 0.7200 B88
 Correlation:  0.1900 VWN1RPA + 0.8100 LYP
 Using SG-1 standard quadrature grid
 using 12 threads for integral computing
 -------------------------------------------------------
 OpenMP Integral computing Module                
 Release: version 1.0, May 2013, Q-Chem Inc. Pittsburgh 
 -------------------------------------------------------
 -------------------------------------------------------
 OpenMP BLAS3 based DFT computing Module                
 Release: version 1.0, May 2013, Q-Chem Inc. Pittsburgh 
 -------------------------------------------------------
 A unrestricted SCF calculation will be
 performed using DIIS
 SCF converges when DIIS error is below 1.0e-06
 Alpha HF Exchange    Energy =  -6.88774487627020
 Beta HF Exchange     Energy =  -6.88774487627020
 DFT Correlation      Energy =  -2.71980176021875
 DFT Exchange         Energy = -53.94607048659127
 One-Electron (alpha) Energy = -914.59092818638294
 One-Electron (beta)  Energy = -914.59092818638294
 Total Coulomb        Energy = 694.17236636559801
 ---------------------------------------
  Cycle       Energy         DIIS error
 ---------------------------------------
    1    -916.2904035284      3.15e-02  
 Alpha HF Exchange    Energy =  -6.88804861597658
 Beta HF Exchange     Energy =  -6.88804861597658
 DFT Correlation      Energy =  -2.74837136123614
 DFT Exchange         Energy = -54.63969113893677
 One-Electron (alpha) Energy = -918.93517662073498
 One-Electron (beta)  Energy = -918.93517662073486
 Total Coulomb        Energy = 704.60306366709369
    2    -915.2710008284      2.81e-03  
 Alpha HF Exchange    Energy =  -6.83034504361745
 Beta HF Exchange     Energy =  -6.83034504361745
 DFT Correlation      Energy =  -2.72281249985713
 DFT Exchange         Energy = -54.15528692034233
 One-Electron (alpha) Energy = -914.69511610552433
 One-Electron (beta)  Energy = -914.69511610552433
 Total Coulomb        Energy = 695.50234591865319
    3    -915.2662273217      2.97e-03  
 Alpha HF Exchange    Energy =  -6.85614016246463
 Beta HF Exchange     Energy =  -6.85614016246462
 DFT Correlation      Energy =  -2.73548618138075
 DFT Exchange         Energy = -54.37177456566656
 One-Electron (alpha) Energy = -916.77180582299343
 One-Electron (beta)  Energy = -916.77180582299275
 Total Coulomb        Energy = 699.86575410695332
    4    -915.3369501329      5.02e-04  
 Alpha HF Exchange    Energy =  -6.85735461785587
 Beta HF Exchange     Energy =  -6.85735461785588
 DFT Correlation      Energy =  -2.73533003837839
 DFT Exchange         Energy = -54.37988278278337
 One-Electron (alpha) Energy = -916.79175958463748
 One-Electron (beta)  Energy = -916.79175958463850
 Total Coulomb        Energy = 699.91399761848254
    5    -915.3389951295      1.46e-04  
 Alpha HF Exchange    Energy =  -6.85727117235025
 Beta HF Exchange     Energy =  -6.85727117235025
 DFT Correlation      Energy =  -2.73536298200404
 DFT Exchange         Energy = -54.37949458451295
 One-Electron (alpha) Energy = -916.79482130661586
 One-Electron (beta)  Energy = -916.79482130661609
 Total Coulomb        Energy = 699.91944288537411
    6    -915.3391511609      4.31e-05  
 Alpha HF Exchange    Energy =  -6.85711779092487
 Beta HF Exchange     Energy =  -6.85711779092487
 DFT Correlation      Energy =  -2.73530681300783
 DFT Exchange         Energy = -54.37819140206250
 One-Electron (alpha) Energy = -916.77853675982215
 One-Electron (beta)  Energy = -916.77853675982203
 Total Coulomb        Energy = 699.88519410252513
    7    -915.3391647359      7.62e-06  
 Alpha HF Exchange    Energy =  -6.85716019242311
 Beta HF Exchange     Energy =  -6.85716019242310
 DFT Correlation      Energy =  -2.73532380839639
 DFT Exchange         Energy = -54.37852511235140
 One-Electron (alpha) Energy = -916.78406943859864
 One-Electron (beta)  Energy = -916.78406943859795
 Total Coulomb        Energy = 699.89669450444148
    8    -915.3391652002      1.80e-06  
 Alpha HF Exchange    Energy =  -6.85715391973002
 Beta HF Exchange     Energy =  -6.85715391973002
 DFT Correlation      Energy =  -2.73532097506311
 DFT Exchange         Energy = -54.37847271540967
 One-Electron (alpha) Energy = -916.78318373153365
 One-Electron (beta)  Energy = -916.78318373153343
 Total Coulomb        Energy = 699.89485528814168
    9    -915.3391652267      4.31e-07  Convergence criterion met
 ---------------------------------------
 SCF time:   CPU 28.96s  wall 2.00s 
<S^2> =         -0.000000000
 Alpha HF Exchange    Energy =  -6.85715391973002
 Beta HF Exchange     Energy =  -6.85715391973002
 DFT Correlation      Energy =  -2.73532097506311
 DFT Exchange         Energy = -54.37847271540967
 One-Electron (alpha) Energy = -916.78318373153365
 One-Electron (beta)  Energy = -916.78318373153343
 Total Coulomb        Energy = 699.89485528814168
 Nuclear repulsion Energy = 289.16044847813220
 SCF   energy in the final basis set =     -915.3391652267
 Total energy in the final basis set =     -915.3391652267
 
 --------------------------------------------------------------
 
                    Orbital Energies (a.u.)
 --------------------------------------------------------------
 
 Alpha MOs
 -- Occupied --
-88.880 -88.840 -10.240 -10.231 -10.196  -7.943  -7.925  -5.908
 -5.904  -5.897  -5.890  -5.884  -5.877  -0.847  -0.797  -0.715
 -0.687  -0.593  -0.491  -0.454  -0.430  -0.426  -0.401  -0.390
 -0.362  -0.329  -0.326  -0.246  -0.243
 -- Virtual --
  0.013   0.038   0.063   0.093   0.118   0.133   0.148   0.164
  0.167   0.190   0.203   0.218   0.258   0.336   0.357   0.365
  0.375   0.392   0.395   0.452   0.494   0.515   0.533   0.562
  0.578   0.648   0.660   0.680   0.720   0.748   0.760   0.780
  0.802   0.818   0.837   0.843   0.872   0.886   0.886   0.927
  0.940   0.959   0.970   1.020   1.071   1.120   1.185   1.362
  1.375   1.400   1.568   1.600   1.708   1.766   1.770   1.813
  1.851   1.907   2.031   2.041   2.065   2.077   2.097   2.113
  2.115   2.159   2.239   2.282   2.317   2.343   2.383   2.441
  2.494   2.589   2.617   2.635   2.714   2.727   2.739   2.826
  2.860   2.886   3.177   3.232   3.312   3.367   3.428   3.452
  3.474   3.962   3.986   4.263   4.443   4.588
 
 Beta MOs
 -- Occupied --
-88.880 -88.840 -10.240 -10.231 -10.196  -7.943  -7.925  -5.908
 -5.904  -5.897  -5.890  -5.884  -5.877  -0.847  -0.797  -0.715
 -0.687  -0.593  -0.491  -0.454  -0.430  -0.426  -0.401  -0.390
 -0.362  -0.329  -0.326  -0.246  -0.243
 -- Virtual --
  0.013   0.038   0.063   0.093   0.118   0.133   0.148   0.164
  0.167   0.190   0.203   0.218   0.258   0.336   0.357   0.365
  0.375   0.392   0.395   0.452   0.494   0.515   0.533   0.562
  0.578   0.648   0.660   0.680   0.720   0.748   0.760   0.780
  0.802   0.818   0.837   0.843   0.872   0.886   0.886   0.927
  0.940   0.959   0.970   1.020   1.071   1.120   1.185   1.362
  1.375   1.400   1.568   1.600   1.708   1.766   1.770   1.813
  1.851   1.907   2.031   2.041   2.065   2.077   2.097   2.113
  2.115   2.159   2.239   2.282   2.317   2.343   2.383   2.441
  2.494   2.589   2.617   2.635   2.714   2.727   2.739   2.826
  2.860   2.886   3.177   3.232   3.312   3.367   3.428   3.452
  3.474   3.962   3.986   4.263   4.443   4.588
 --------------------------------------------------------------
 
          Ground-State Mulliken Net Atomic Charges

     Atom                 Charge (a.u.)    Spin (a.u.)
  --------------------------------------------------------
      1 S                    -0.044541       0.000000
      2 S                     0.021403      -0.000000
      3 C                    -0.210135       0.000000
      4 C                    -0.318044      -0.000000
      5 C                    -0.308879      -0.000000
      6 H                     0.153080      -0.000000
      7 H                     0.134247      -0.000000
      8 H                     0.145039      -0.000000
      9 H                     0.111359      -0.000000
     10 H                     0.110405       0.000000
     11 H                     0.131932       0.000000
     12 H                     0.056069       0.000000
     13 H                     0.018065       0.000000
  --------------------------------------------------------
  Sum of atomic charges =    -0.000000
  Sum of spin   charges =    -0.000000

 -----------------------------------------------------------------
                    Cartesian Multipole Moments
 -----------------------------------------------------------------
    Charge (ESU x 10^10)
                 0.0000
    Dipole Moment (Debye)
         X       1.6586      Y       1.3510      Z       1.0510
       Tot       2.3834
    Quadrupole Moments (Debye-Ang)
        XX     -52.4120     XY       2.9449     YY     -47.5513
        XZ      -0.3037     YZ      -2.0330     ZZ     -44.7308
    Octopole Moments (Debye-Ang^2)
       XXX      38.3775    XXY       8.8561    XYY       3.2025
       YYY      44.1100    XXZ      -1.3060    XYZ      -0.1615
       YYZ      -0.2976    XZZ      13.3920    YZZ       9.5058
       ZZZ      -4.6500
    Hexadecapole Moments (Debye-Ang^3)
      XXXX    -768.5804   XXXY      47.4418   XXYY    -182.8704
      XYYY      22.0433   YYYY    -377.7510   XXXZ      -7.3964
      XXYZ      -2.7846   XYYZ       1.2991   YYYZ      -0.3901
      XXZZ    -142.8878   XYZZ       3.5325   YYZZ     -73.5165
      XZZZ      -6.7939   YZZZ       5.9493   ZZZZ     -90.5736
 -----------------------------------------------------------------
 Calculating analytic gradient of the SCF energy
 Gradient of SCF Energy
            1           2           3           4           5           6
    1   0.0016364   0.1296050  -0.0010456   0.0003828   0.0009938   0.0003308
    2  -0.0010021  -0.6211513  -0.0032107   0.0008178  -0.0009203   0.0022965
    3   0.0001769   0.2761675  -0.0024970   0.0008513   0.0019419   0.0004347
            7           8           9          10          11          12
    1   0.0009792  -0.0007201   0.0005097  -0.0000950  -0.0001265  -0.0008315
    2   0.0002290  -0.0002395   0.0006560   0.0001883   0.0005138   0.0005506
    3  -0.0002839  -0.0005763  -0.0001712  -0.0002362  -0.0002710   0.0002870
           13
    1  -0.1316191
    2   0.6212717
    3  -0.2758236
 Max gradient component =       6.213E-01
 RMS gradient           =       1.568E-01
 Gradient time:  CPU 11.87 s  wall 1.05 s
 Geometry Optimization Parameters
   NAtoms,    NIC,     NZ,  NCons,   NDum,   NFix, NCnnct, MaxDiis
       13      82       0       1       0       0       0       0

 Cartesian Hessian Update
 Hessian Updated using BFGS Update


** CONSTRAINED OPTIMIZATION IN DELOCALIZED INTERNAL COORDINATES **
   Searching for a Minimum

   Optimization Cycle:   4

                       Coordinates (Angstroms)
     ATOM                X               Y               Z
      1  S         0.7362291226   -1.7334299732    0.1504710812
      2  S        -2.3213687889   -0.0574388839   -0.0813813335
      3  C         0.5404047587    0.0507736506   -0.3146943531
      4  C        -0.6974618294    0.7046109353    0.3214339967
      5  C         1.8041421465    0.8539936694    0.0306601581
      6  H         0.4080824172    0.0320497329   -1.4001919810
      7  H        -0.5744932672    0.7532019184    1.4084627423
      8  H        -0.7822171494    1.7336507155   -0.0409905543
      9  H         1.7047550627    1.8939935675   -0.3056712951
     10  H         1.9799053703    0.8688606205    1.1111624816
     11  H         2.6843464452    0.4246531135   -0.4526227864
     12  H         0.9012871091   -1.5056674650    1.4713656128
     13  H        -2.1439113973   -0.8942516015    0.2909962306
   Point Group: c1    Number of degrees of freedom:    33


   Energy is   -915.339165227

              Constraints and their Current Values
                                        Value     Constraint
   Distance(Angs):        2  13             0.932959     0.700000
 Hessian Updated using BFGS Update
**WARNING** Constraint Gradient Reduced for constraint   1

   Using Lagrange Multiplier Algorithm


 33 Hessian modes will be used to form the next step
  Hessian Eigenvalues:
    -0.478237    0.262284    0.263790    0.263790    0.263800    0.441825
     0.447182    0.455749    0.479407    0.489261    0.493508    0.551993
     0.746001    0.846539    0.937118    0.937868    0.937921    0.938233
     1.035684    1.192131    1.287661    1.390162    1.433675    1.541447
     1.704784    1.734459    1.999763    2.000463    2.000623    2.000705
     2.002437    2.004273    2.123534

 Minimum Search - Taking P-RFO Step
 Searching for Lamda that Maximizes Along the Constraint modes Only
 Value Taken    Lamda =   0.10269825
 Searching for Lamda that Minimizes Along All other modes
 Value Taken    Lamda =  -0.01751384
 Step Taken.  Stepsize is  0.274839

                             Maximum     Tolerance    Cnvgd?
         Gradient            0.300000       0.000300      NO
         Displacement        0.336724       0.001200      NO
         Energy change      0.105761       0.000001      NO


 New Cartesian Coordinates Obtained by Inverse Iteration

 Displacement from previous Coordinates is:  0.287108
 ----------------------------------------------------------------
             Standard Nuclear Orientation (Angstroms)
    I     Atom           X                Y                Z
 ----------------------------------------------------------------
    1      S       0.7427706893    -1.7504685871     0.1593458728
    2      S      -2.3189319946    -0.0752922203    -0.0815515643
    3      C       0.5460082655     0.0414312329    -0.2958249563
    4      C      -0.6963062632     0.6862769571     0.3356414182
    5      C       1.8032519021     0.8651794122     0.0256681515
    6      H       0.4002173248     0.0012025301    -1.3789385251
    7      H      -0.5758545822     0.7389243353     1.4226865699
    8      H      -0.7857787556     1.7135058080    -0.0297177705
    9      H       1.6851015217     1.8998172912    -0.3202403670
   10      H       1.9878776177     0.8909860758     1.1044362110
   11      H       2.6817611382     0.4364454220    -0.4592860461
   12      H       0.9417985382    -1.5300569130     1.4789198373
   13      H      -2.1722154020    -0.7929513441     0.2278611686
 ----------------------------------------------------------------
 Nuclear Repulsion Energy =   290.3408516671 hartrees
 There are       29 alpha and       29 beta electrons

                       Distance Matrix (Angstroms)
             S (  1)   S (  2)   C (  3)   C (  4)   C (  5)   H (  6)
   S (  2)  3.498324
   C (  3)  1.859247  2.875312
   C (  4)  2.835446  1.840367  1.535552
   C (  5)  2.825616  4.229466  1.537069  2.525051
   H (  6)  2.356271  3.013775  1.093622  2.147435  2.165152
   H (  7)  3.087374  2.442130  2.167569  1.094965  2.761838  3.057131
   H (  8)  3.790953  2.356490  2.154136  1.093934  2.725033  2.481726
   H (  9)  3.800339  4.471053  2.179846  2.752084  1.097309  2.525175
   H ( 10)  3.069327  4.570434  2.182077  2.799606  1.094757  3.078885
   H ( 11)  2.987471  5.040981  2.178118  3.479320  1.091225  2.498127
   H ( 12)  1.352579  3.896636  2.403319  2.983724  2.931075  3.287160
   H ( 13)  3.068986  0.795171  2.891225  2.092377  4.312148  3.135266
             H (  7)   H (  8)   H (  9)   H ( 10)   H ( 11)   H ( 12)
   H (  8)  1.761634
   H (  9)  3.081783  2.494868
   H ( 10)  2.587881  3.107413  1.771755
   H ( 11)  3.774305  3.720114  1.775985  1.770115
   H ( 12)  2.730331  3.972557  3.943794  2.663826  3.263624
   H ( 13)  2.514482  2.875914  4.736065  4.572789  5.054174  3.435921

 
 Applying Cartesian multipole field
    Component          Value
    ---------          -----
     (2,0,0)        1.00000E-11
     (0,2,0)        2.00000E-11
     (0,0,2)       -3.00000E-10
 Nucleus-field energy     =    -0.0000000003 hartrees
 Requested basis set is 6-31G(d,p)
 There are 46 shells and 123 basis functions
 A cutoff of  1.0D-14 yielded   1028 shell pairs
 There are      7527 function pairs
 Smallest overlap matrix eigenvalue = 5.50E-03
 Guess from superposition of atomic densities
 Warning:  Energy on first SCF cycle will be non-variational
 SAD guess density has 58.000000 electrons

 -----------------------------------------------------------------------
  General SCF calculation program by
  Eric Jon Sundstrom, Paul Horn, Yuezhi Mao, Dmitri Zuev, Alec White,
  David Stuck, Shaama M.S., Shane Yost, Joonho Lee, David Small,
  Daniel Levine, Susi Lehtola, Hugh Burton, Evgeny Epifanovsky
 -----------------------------------------------------------------------
 Exchange:     0.2000 Hartree-Fock + 0.0800 Slater + 0.7200 B88
 Correlation:  0.1900 VWN1RPA + 0.8100 LYP
 Using SG-1 standard quadrature grid
 using 12 threads for integral computing
 -------------------------------------------------------
 OpenMP Integral computing Module                
 Release: version 1.0, May 2013, Q-Chem Inc. Pittsburgh 
 -------------------------------------------------------
 -------------------------------------------------------
 OpenMP BLAS3 based DFT computing Module                
 Release: version 1.0, May 2013, Q-Chem Inc. Pittsburgh 
[...]
    2      S      -2.3033936060    -0.0633931313    -0.1155866943
    3      C       0.5257733405     0.0392292101    -0.2712913832
    4      C      -0.7059642890     0.6822819557     0.3779665848
    5      C       1.7917192654     0.8564174977     0.0028877151
    6      H       0.3600920083    -0.0273004034    -1.3515796778
    7      H      -0.6176925643     0.6624784994     1.4692158282
    8      H      -0.7700758083     1.7318532578     0.0763630355
    9      H       1.6779020580     1.8764737184    -0.3822030967
   10      H       1.9937867263     0.9250550919     1.0775830743
   11      H       2.6610938512     0.4012871886    -0.4769450604
   12      H       1.0478365690    -1.4964498039     1.5094304779
   13      H      -2.1504105074    -0.7254231965     0.0526772030
 ----------------------------------------------------------------
 Nuclear Repulsion Energy =   293.0209908916 hartrees
 There are       29 alpha and       29 beta electrons

                       Distance Matrix (Angstroms)
             S (  1)   S (  2)   C (  3)   C (  4)   C (  5)   H (  6)
   S (  2)  3.480118
   C (  3)  1.854712  2.835306
   C (  4)  2.817696  1.830685  1.533698
   C (  5)  2.811603  4.198814  1.531532  2.531685
   H (  6)  2.352087  2.936518  1.094943  2.152049  2.159883
   H (  7)  3.022077  2.424887  2.173780  1.094993  2.827189  3.064106
   H (  8)  3.782139  2.368716  2.159876  1.093926  2.708243  2.531980
   H (  9)  3.784767  4.436765  2.171444  2.772503  1.096250  2.510114
   H ( 10)  3.069768  4.567980  2.181562  2.799475  1.095679  3.078436
   H ( 11)  2.965420  4.999264  2.175540  3.485242  1.092335  2.498656
   H ( 12)  1.349494  3.990624  2.408699  3.017101  2.891196  3.288886
   H ( 13)  3.056742  0.700000  2.802072  2.043006  4.247951  2.960057
             H (  7)   H (  8)   H (  9)   H ( 10)   H ( 11)   H ( 12)
   H (  8)  1.762618
   H (  9)  3.189246  2.494753
   H ( 10)  2.653704  3.048328  1.770863
   H ( 11)  3.821806  3.721489  1.775336  1.770929
   H ( 12)  2.727009  3.972459  3.918147  2.635337  3.185858
   H ( 13)  2.506407  2.818527  4.649190  4.576995  4.969965  3.597971

 
 Applying Cartesian multipole field
    Component          Value
    ---------          -----
     (2,0,0)        1.00000E-11
     (0,2,0)        2.00000E-11
     (0,0,2)       -3.00000E-10
 Nucleus-field energy     =    -0.0000000012 hartrees
 Requested basis set is 6-31G(d,p)
 There are 46 shells and 123 basis functions
 A cutoff of  1.0D-14 yielded   1031 shell pairs
 There are      7536 function pairs
 Smallest overlap matrix eigenvalue = 5.15E-03
 Guess from superposition of atomic densities
 Warning:  Energy on first SCF cycle will be non-variational
 SAD guess density has 58.000000 electrons

 -----------------------------------------------------------------------
  General SCF calculation program by
  Eric Jon Sundstrom, Paul Horn, Yuezhi Mao, Dmitri Zuev, Alec White,
  David Stuck, Shaama M.S., Shane Yost, Joonho Lee, David Small,
  Daniel Levine, Susi Lehtola, Hugh Burton, Evgeny Epifanovsky
 -----------------------------------------------------------------------
 Exchange:     0.2000 Hartree-Fock + 0.0800 Slater + 0.7200 B88
 Correlation:  0.1900 VWN1RPA + 0.8100 LYP
 Using SG-1 standard quadrature grid
 using 12 threads for integral computing
 -------------------------------------------------------
 OpenMP Integral computing Module                
 Release: version 1.0, May 2013, Q-Chem Inc. Pittsburgh 
 -------------------------------------------------------
 -------------------------------------------------------
 OpenMP BLAS3 based DFT computing Module                
 Release: version 1.0, May 2013, Q-Chem Inc. Pittsburgh 
 -------------------------------------------------------
 A unrestricted SCF calculation will be
 performed using DIIS
 SCF converges when DIIS error is below 1.0e-06
 Alpha HF Exchange    Energy =  -6.90833248914618
 Beta HF Exchange     Energy =  -6.90833248914618
 DFT Correlation      Energy =  -2.72343054104181
 DFT Exchange         Energy = -54.00125900510328
 One-Electron (alpha) Energy = -917.44023835488724
 One-Electron (beta)  Energy = -917.44023835488724
 Total Coulomb        Energy = 696.26123715130689
 ---------------------------------------
  Cycle       Energy         DIIS error
 ---------------------------------------
    1    -916.1396031924      3.62e-02  
 Alpha HF Exchange    Energy =  -6.90769792455151
 Beta HF Exchange     Energy =  -6.90769792455151
 DFT Correlation      Energy =  -2.75454988019957
 DFT Exchange         Energy = -54.79965922987124
 One-Electron (alpha) Energy = -922.31213900197076
 One-Electron (beta)  Energy = -922.31213900197065
 Total Coulomb        Energy = 708.32343255727801
    2    -914.6494595154      3.13e-03  
 Alpha HF Exchange    Energy =  -6.84134044948456
 Beta HF Exchange     Energy =  -6.84134044948457
 DFT Correlation      Energy =  -2.72730702381589
 DFT Exchange         Energy = -54.24862834223880
 One-Electron (alpha) Energy = -917.52341025506030
 One-Electron (beta)  Energy = -917.52341025506053
 Total Coulomb        Energy = 698.02491021057642
    3    -914.6595356741      2.97e-03  
 Alpha HF Exchange    Energy =  -6.87147949183493
 Beta HF Exchange     Energy =  -6.87147949183494
 DFT Correlation      Energy =  -2.74092914687311
 DFT Exchange         Energy = -54.49826542863120
 One-Electron (alpha) Energy = -919.89491269571033
 One-Electron (beta)  Energy = -919.89491269571079
 Total Coulomb        Energy = 703.02031825795700
    4    -914.7306698022      5.15e-04  
 Alpha HF Exchange    Energy =  -6.87185708559171
 Beta HF Exchange     Energy =  -6.87185708559171
 DFT Correlation      Energy =  -2.74034643136931
 DFT Exchange         Energy = -54.49943808079553
 One-Electron (alpha) Energy = -919.85002131662702
 One-Electron (beta)  Energy = -919.85002131662691
 Total Coulomb        Energy = 702.92986886843516
    5    -914.7326815577      1.67e-04  
 Alpha HF Exchange    Energy =  -6.87170115237430
 Beta HF Exchange     Energy =  -6.87170115237429
 DFT Correlation      Energy =  -2.74040260470658
 DFT Exchange         Energy = -54.49858080144797
 One-Electron (alpha) Energy = -919.84769891282303
 One-Electron (beta)  Energy = -919.84769891282292
 Total Coulomb        Energy = 702.92389635273105
    6    -914.7328962933      4.67e-05  
 Alpha HF Exchange    Energy =  -6.87159804550913
 Beta HF Exchange     Energy =  -6.87159804550913
 DFT Correlation      Energy =  -2.74035907901323
 DFT Exchange         Energy = -54.49766273332983
 One-Electron (alpha) Energy = -919.83561246010606
 One-Electron (beta)  Energy = -919.83561246010595
 Total Coulomb        Energy = 702.89854020336270
    7    -914.7329117297      9.57e-06  
 Alpha HF Exchange    Energy =  -6.87163293563734
 Beta HF Exchange     Energy =  -6.87163293563734
 DFT Correlation      Energy =  -2.74037428914273
 DFT Exchange         Energy = -54.49793939068862
 One-Electron (alpha) Energy = -919.84072263720327
 One-Electron (beta)  Energy = -919.84072263720373
 Total Coulomb        Energy = 702.90912151224234
    8    -914.7329124228      2.27e-06  
 Alpha HF Exchange    Energy =  -6.87162719656144
 Beta HF Exchange     Energy =  -6.87162719656144
 DFT Correlation      Energy =  -2.74037118772296
 DFT Exchange         Energy = -54.49788992555936
 One-Electron (alpha) Energy = -919.83992489013508
 One-Electron (beta)  Energy = -919.83992489013485
 Total Coulomb        Energy = 702.90746193406130
    9    -914.7329124621      6.23e-07  Convergence criterion met
 ---------------------------------------
 SCF time:   CPU 29.37s  wall 3.00s 
<S^2> =          0.000000000
 Alpha HF Exchange    Energy =  -6.87162719656144
 Beta HF Exchange     Energy =  -6.87162719656144
 DFT Correlation      Energy =  -2.74037118772296
 DFT Exchange         Energy = -54.49788992555936
 One-Electron (alpha) Energy = -919.83992489013508
 One-Electron (beta)  Energy = -919.83992489013485
 Total Coulomb        Energy = 702.90746193406130
 Nuclear repulsion Energy = 293.02099089047721
 SCF   energy in the final basis set =     -914.7329124621
 Total energy in the final basis set =     -914.7329124621
 
 --------------------------------------------------------------
 
                    Orbital Energies (a.u.)
 --------------------------------------------------------------
 
 Alpha MOs
 -- Occupied --
-88.880 -88.827 -10.241 -10.231 -10.197  -7.950  -7.943  -5.926
 -5.908  -5.904  -5.898  -5.897  -5.889  -0.870  -0.816  -0.717
 -0.697  -0.595  -0.492  -0.459  -0.433  -0.428  -0.403  -0.392
 -0.361  -0.330  -0.324  -0.249  -0.246
 -- Virtual --
  0.014   0.036   0.063   0.092   0.118   0.132   0.142   0.161
  0.169   0.191   0.202   0.218   0.293   0.335   0.357   0.366
  0.376   0.389   0.392   0.471   0.492   0.512   0.529   0.567
  0.578   0.633   0.663   0.679   0.718   0.748   0.754   0.768
  0.800   0.816   0.834   0.839   0.872   0.882   0.888   0.928
  0.938   0.960   0.971   1.019   1.059   1.122   1.175   1.357
  1.370   1.403   1.567   1.610   1.710   1.768   1.817   1.849
  1.907   2.029   2.048   2.060   2.075   2.089   2.100   2.119
  2.140   2.209   2.278   2.320   2.343   2.423   2.490   2.515
  2.526   2.589   2.618   2.681   2.712   2.733   2.747   2.831
  2.862   2.891   3.178   3.235   3.280   3.318   3.427   3.451
  3.473   3.982   4.119   4.291   4.452   4.588
 
 Beta MOs
 -- Occupied --
-88.880 -88.827 -10.241 -10.231 -10.197  -7.950  -7.943  -5.926
 -5.908  -5.904  -5.898  -5.897  -5.889  -0.870  -0.816  -0.717
 -0.697  -0.595  -0.492  -0.459  -0.433  -0.428  -0.403  -0.392
 -0.361  -0.330  -0.324  -0.249  -0.246
 -- Virtual --
  0.014   0.036   0.063   0.092   0.118   0.132   0.142   0.161
  0.169   0.191   0.202   0.218   0.293   0.335   0.357   0.366
  0.376   0.389   0.392   0.471   0.492   0.512   0.529   0.567
  0.578   0.633   0.663   0.679   0.718   0.748   0.754   0.768
  0.800   0.816   0.834   0.839   0.872   0.882   0.888   0.928
  0.938   0.960   0.971   1.019   1.059   1.122   1.175   1.357
  1.370   1.403   1.567   1.610   1.710   1.768   1.817   1.849
  1.907   2.029   2.048   2.060   2.075   2.089   2.100   2.119
  2.140   2.209   2.278   2.320   2.343   2.423   2.490   2.515
  2.526   2.589   2.618   2.681   2.712   2.733   2.747   2.831
  2.862   2.891   3.178   3.235   3.280   3.318   3.427   3.451
  3.473   3.982   4.119   4.291   4.452   4.588
 --------------------------------------------------------------
 
          Ground-State Mulliken Net Atomic Charges

     Atom                 Charge (a.u.)    Spin (a.u.)
  --------------------------------------------------------
      1 S                    -0.044386      -0.000000
      2 S                     0.223572      -0.000000
      3 C                    -0.218092       0.000000
      4 C                    -0.312188      -0.000000
      5 C                    -0.310501       0.000000
      6 H                     0.155378      -0.000000
      7 H                     0.137223       0.000000
      8 H                     0.144631       0.000000
      9 H                     0.113935      -0.000000
     10 H                     0.110691       0.000000
     11 H                     0.133078      -0.000000
     12 H                     0.057350       0.000000
     13 H                    -0.190691       0.000000
  --------------------------------------------------------
  Sum of atomic charges =     0.000000
  Sum of spin   charges =    -0.000000

 -----------------------------------------------------------------
                    Cartesian Multipole Moments
 -----------------------------------------------------------------
    Charge (ESU x 10^10)
                 0.0000
    Dipole Moment (Debye)
         X       1.8328      Y       1.3961      Z       0.9512
       Tot       2.4926
    Quadrupole Moments (Debye-Ang)
        XX     -52.1372     XY       2.7212     YY     -47.4443
        XZ       0.2737     YZ      -1.2485     ZZ     -44.6909
    Octopole Moments (Debye-Ang^2)
       XXX      38.6085    XXY       9.0817    XYY       3.1260
       YYY      45.0960    XXZ      -2.2652    XYZ      -2.1870
       YYZ      -1.5401    XZZ      13.5155    YZZ       9.5651
       ZZZ      -6.4066
    Hexadecapole Moments (Debye-Ang^3)
      XXXX    -756.8857   XXXY      46.1147   XXYY    -179.7954
      XYYY      22.7885   YYYY    -375.8686   XXXZ      -9.1852
      XXYZ       1.4946   XYYZ       1.2761   YYYZ       5.0328
      XXZZ    -141.0137   XYZZ       3.7653   YYZZ     -73.7722
      XZZZ     -10.7684   YZZZ      10.2510   ZZZZ     -93.9386
 -----------------------------------------------------------------
 Calculating analytic gradient of the SCF energy
 Gradient of SCF Energy
            1           2           3           4           5           6
    1   0.0000535   0.5230218  -0.0001227  -0.0000653  -0.0002043   0.0000676
    2   0.0000664  -2.2632282   0.0002235   0.0000221  -0.0002146  -0.0000681
    3   0.0001840   0.5752707   0.0000915  -0.0001963  -0.0000950  -0.0000467
            7           8           9          10          11          12
    1  -0.0000288   0.0000660   0.0000449   0.0000115  -0.0000094   0.0000501
    2   0.0000244  -0.0000501   0.0000633   0.0000546   0.0000005  -0.0000742
    3   0.0000213  -0.0000508  -0.0000115   0.0000226  -0.0000268   0.0000557
           13
    1  -0.5228851
    2   2.2631805
    3  -0.5752188
 Max gradient component =       2.263E+00
 RMS gradient           =       5.419E-01
 Gradient time:  CPU 11.82 s  wall 1.05 s
 Geometry Optimization Parameters
   NAtoms,    NIC,     NZ,  NCons,   NDum,   NFix, NCnnct, MaxDiis
       13      82       0       1       0       0       0       0

 Cartesian Hessian Update
 Hessian Updated using BFGS Update
**WARNING** Hereditary positive definiteness endangered


** CONSTRAINED OPTIMIZATION IN DELOCALIZED INTERNAL COORDINATES **
   Searching for a Minimum

   Optimization Cycle:  29

                       Coordinates (Angstroms)
     ATOM                X               Y               Z
      1  S         0.7290329562   -1.7375098845    0.2204819935
      2  S        -2.3033936060   -0.0633931313   -0.1155866943
      3  C         0.5257733405    0.0392292101   -0.2712913832
      4  C        -0.7059642890    0.6822819557    0.3779665848
      5  C         1.7917192654    0.8564174977    0.0028877151
      6  H         0.3600920083   -0.0273004034   -1.3515796778
      7  H        -0.6176925643    0.6624784994    1.4692158282
      8  H        -0.7700758083    1.7318532578    0.0763630355
      9  H         1.6779020580    1.8764737184   -0.3822030967
     10  H         1.9937867263    0.9250550919    1.0775830743
     11  H         2.6610938512    0.4012871886   -0.4769450604
     12  H         1.0478365690   -1.4964498039    1.5094304779
     13  H        -2.1504105074   -0.7254231965    0.0526772030
   Point Group: c1    Number of degrees of freedom:    33


   Energy is   -914.732912462

              Constraints and their Current Values
                                        Value     Constraint
   Distance(Angs):        2  13             0.700000     0.700000
 Hessian Updated using BFGS Update

 32 Hessian modes will be used to form the next step
  Hessian Eigenvalues:
     0.005625    0.014652    0.049142    0.122273    0.184331    0.264211
     0.286488    0.420664    0.474224    0.487823    0.491587    0.519439
     0.533659    0.643531    0.780012    0.897175    0.937568    0.940223
     0.963156    1.049859    1.192208    1.322368    1.405399    1.536380
     1.643470    1.705562    1.940574    1.985579    1.996271    1.999904
     2.000545    2.002017

 Minimum Search - Taking Simple RFO Step
 Searching for Lamda that Minimizes Along All modes
 Value Taken    Lamda =   0.00000000
 Step Taken.  Stepsize is  0.004150

                             Maximum     Tolerance    Cnvgd?
         Gradient           0.000274      0.000300     YES
         Displacement       0.001539      0.001200      NO
         Energy change     -0.000001      0.000001     YES


                       Distance Matrix (Angstroms)
             S (  1)   S (  2)   C (  3)   C (  4)   C (  5)   H (  6)
   S (  2)  3.480118
   C (  3)  1.854712  2.835306
   C (  4)  2.817696  1.830685  1.533698
   C (  5)  2.811603  4.198814  1.531532  2.531685
   H (  6)  2.352087  2.936518  1.094943  2.152049  2.159883
   H (  7)  3.022077  2.424887  2.173780  1.094993  2.827189  3.064106
   H (  8)  3.782139  2.368716  2.159876  1.093926  2.708243  2.531980
   H (  9)  3.784767  4.436765  2.171444  2.772503  1.096250  2.510114
   H ( 10)  3.069768  4.567980  2.181562  2.799475  1.095679  3.078436
   H ( 11)  2.965420  4.999264  2.175540  3.485242  1.092335  2.498656
   H ( 12)  1.349494  3.990624  2.408699  3.017101  2.891196  3.288886
   H ( 13)  3.056742  0.700000  2.802072  2.043006  4.247951  2.960057
             H (  7)   H (  8)   H (  9)   H ( 10)   H ( 11)   H ( 12)
   H (  8)  1.762618
   H (  9)  3.189246  2.494753
   H ( 10)  2.653704  3.048328  1.770863
   H ( 11)  3.821806  3.721489  1.775336  1.770929
   H ( 12)  2.727009  3.972459  3.918147  2.635337  3.185858
   H ( 13)  2.506407  2.818527  4.649190  4.576995  4.969965  3.597971

 
 Final energy is   -914.732912462137     


 ******************************
 **  OPTIMIZATION CONVERGED  **
 ******************************

                       Coordinates (Angstroms)
     ATOM                X               Y               Z
      1  S         0.7290329562   -1.7375098845    0.2204819935
      2  S        -2.3033936060   -0.0633931313   -0.1155866943
      3  C         0.5257733405    0.0392292101   -0.2712913832
      4  C        -0.7059642890    0.6822819557    0.3779665848
      5  C         1.7917192654    0.8564174977    0.0028877151
      6  H         0.3600920083   -0.0273004034   -1.3515796778
      7  H        -0.6176925643    0.6624784994    1.4692158282
      8  H        -0.7700758083    1.7318532578    0.0763630355
      9  H         1.6779020580    1.8764737184   -0.3822030967
     10  H         1.9937867263    0.9250550919    1.0775830743
     11  H         2.6610938512    0.4012871886   -0.4769450604
     12  H         1.0478365690   -1.4964498039    1.5094304779
     13  H        -2.1504105074   -0.7254231965    0.0526772030

Z-matrix Print:
$molecule
0 1
S 
H  1 1.349494
C  1 1.854712 2 96.201278
H  3 1.094943 1 102.707611 2 174.412687 0
C  3 1.531532 1 111.906303 2 57.035456 0
H  5 1.092335 3 110.910657 1 54.519264 0
H  5 1.095679 3 111.189927 1 -65.762361 0
H  5 1.096250 3 110.351784 1 174.688541 0
C  3 1.533698 1 112.174278 2 -68.976452 0
H  9 1.093926 3 109.428803 1 178.747285 0
H  9 1.094993 3 110.460150 1 60.871465 0
S  9 1.830685 3 114.574483 1 -63.174426 0
H  12 0.700000 9 97.453362 3 54.452763 0
$end

PES scan, value:    0.7000 energy: -914.7329124621
------- Summary of potential scan: ------ 
    0.7000      -914.7329124621
----------------------------------------- 
Archival summary:
1\1\hpc0250\JobtypUnspecified\ProcedureUnspecified\6-31G**\238\knomura\ThuMar1402:36:332019ThuMar1402:36:332019\0\\#,JobtypUnspecified,ProcedureUnspecified,6-31G**,\\0,1\S\H,1,1.34949\C,1,1.85471,2,96.2013\H,3,1.09494,1,102.708,2,174.413,0\C,3,1.53153,1,111.906,2,57.0355,0\H,5,1.09233,3,110.911,1,54.5193,0\H,5,1.09568,3,111.19,1,-65.7624,0\H,5,1.09625,3,110.352,1,174.689,0\C,3,1.5337,1,112.174,2,-68.9765,0\H,9,1.09393,3,109.429,1,178.747,0\H,9,1.09499,3,110.46,1,60.8715,0\S,9,1.83068,3,114.574,1,-63.1744,0\H,12,0.7,9,97.4534,3,54.4528,0\\\@

 Total job time:  122.55s(wall), 1352.36s(cpu) 
 Thu Mar 14 02:36:33 2019

        *************************************************************
        *                                                           *
        *  Thank you very much for using Q-Chem.  Have a nice day.  *
        *                                                           *
        *************************************************************


