
Running Job 1 of 1 halogens/Bromine/01/Br_2.xyz.data/inputs/bond_triplet_2.7.in
qchem halogens/Bromine/01/Br_2.xyz.data/inputs/bond_triplet_2.7.in_23255.0 /staging/scratch/2868759/qchem23255/ 1
/usr/usc/qchem/5.1.1/exe/qcprog.exe_s halogens/Bromine/01/Br_2.xyz.data/inputs/bond_triplet_2.7.in_23255.0 /staging/scratch/2868759/qchem23255/
Check license passed

                  Welcome to Q-Chem
     A Quantum Leap Into The Future Of Chemistry


 Q-Chem 5.1, Q-Chem, Inc., Pleasanton, CA (2018)

 Yihan Shao,  Zhengting Gan,  E. Epifanovsky,  A. T. B. Gilbert,  M. Wormit,  
 J. Kussmann,  A. W. Lange,  A. Behn,  Jia Deng,  Xintian Feng,  D. Ghosh,  
 M. Goldey,  P. R. Horn,  L. D. Jacobson,  I. Kaliman,  T. Kus,  A. Landau,  
 Jie Liu,  E. I. Proynov,  R. M. Richard,  R. P. Steele,  E. J. Sundstrom,  
 H. L. Woodcock III,  P. M. Zimmerman,  D. Zuev,  B. Albrecht,  E. Alguire,  
 S. A. Baeppler,  D. Barton,  Z. Benda,  Y. A. Bernard,  E. J. Berquist,  
 K. B. Bravaya,  H. Burton,  D. Casanova,  Chun-Min Chang,  Yunqing Chen,  
 A. Chien,  K. D. Closser,  M. P. Coons,  S. Coriani,  S. Dasgupta,  
 A. L. Dempwolff,  M. Diedenhofen,  Hainam Do,  R. G. Edgar,  Po-Tung Fang,  
 S. Faraji,  S. Fatehi,  Qingguo Feng,  K. D. Fenk,  J. Fosso-Tande,  
 Qinghui Ge,  A. Ghysels,  G. Gidofalvi,  J. Gomes,  J. Gonthier,  A. Gunina,  
 D. Hait,  M. W. D. Hanson-Heine,  P. H. P. Harbach,  A. W. Hauser,  
 J. E. Herr,  E. G. Hohenstein,  Z. C. Holden,  Kerwin Hui,  B. C. Huynh,  
 T.-C. Jagau,  Hyunjun Ji,  B. Kaduk,  K. Khistyaev,  Jaehoon Kim,  
 P. Klunzinger,  K. Koh,  D. Kosenkov,  L. Koulias,  T. Kowalczyk,  
 C. M. Krauter,  A. Kunitsa,  Ka Un Lao,  A. Laurent,  K. V. Lawler,  
 Joonho Lee,  D. Lefrancois,  S. Lehtola,  D. S. Levine,  Yi-Pei Li,  
 You-Sheng Lin,  Fenglai Liu,  E. Livshits,  A. Luenser,  P. Manohar,  
 E. Mansoor,  S. F. Manzer,  Shan-Ping Mao,  Yuezhi Mao,  N. Mardirossian,  
 A. V. Marenich,  T. Markovich,  L. A. Martinez-Martinez,  S. A. Maurer,  
 N. J. Mayhall,  S. C. McKenzie,  J.-M. Mewes,  A. F. Morrison,  
 J. W. Mullinax,  K. Nanda,  T. S. Nguyen-Beck,  R. Olivares-Amaya,  
 J. A. Parkhill,  T. M. Perrine,  F. Plasser,  P. Pokhilko,  S. Prager,  
 A. Prociuk,  E. Ramos,  D. R. Rehn,  F. Rob,  M. Schneider,  N. Sergueev,  
 S. M. Sharada,  S. Sharma,  D. W. Small,  T. Stauch,  T. Stein,  
 Yu-Chuan Su,  A. J. W. Thom,  A. Tkatchenko,  T. Tsuchimochi,  N. M. Tubman,  
 L. Vogt,  M. L. Vidal,  O. Vydrov,  M. A. Watson,  J. Wenzel,  
 M. de Wergifosse,  T. A. Wesolowski,  A. White,  J. Witte,  A. Yamada,  
 Jun Yang,  K. Yao,  S. Yeganeh,  S. R. Yost,  Zhi-Qiang You,  A. Zech,  
 Igor Ying Zhang,  Xing Zhang,  Yan Zhao,  Ying Zhu,  B. R. Brooks,  
 G. K. L. Chan,  C. J. Cramer,  M. S. Gordon,  W. J. Hehre,  A. Klamt,  
 M. W. Schmidt,  C. D. Sherrill,  D. G. Truhlar,  A. Aspuru-Guzik,  R. Baer,  
 A. T. Bell,  N. A. Besley,  Jeng-Da Chai,  A. E. DePrince, III,  
 R. A. DiStasio Jr.,  A. Dreuw,  B. D. Dunietz,  T. R. Furlani,  
 Chao-Ping Hsu,  Yousung Jung,  Jing Kong,  D. S. Lambrecht,  WanZhen Liang,  
 C. Ochsenfeld,  V. A. Rassolov,  L. V. Slipchenko,  J. E. Subotnik,  
 T. Van Voorhis,  J. M. Herbert,  A. I. Krylov,  P. M. W. Gill,  M. Head-Gordon

 Contributors to earlier versions of Q-Chem not listed above: 
 R. D. Adamson,  B. Austin,  J. Baker,  G. J. O. Beran,  K. Brandhorst,  
 S. T. Brown,  E. F. C. Byrd,  A. K. Chakraborty,  C.-L. Cheng,  
 Siu Hung Chien,  D. M. Chipman,  D. L. Crittenden,  H. Dachsel,  
 R. J. Doerksen,  A. D. Dutoi,  L. Fusti-Molnar,  W. A. Goddard III,  
 A. Golubeva-Zadorozhnaya,  S. R. Gwaltney,  G. Hawkins,  A. Heyden,  
 S. Hirata,  G. Kedziora,  F. J. Keil,  C. Kelley,  Jihan Kim,  R. A. King,  
 R. Z. Khaliullin,  P. P. Korambath,  W. Kurlancheek,  A. M. Lee,  M. S. Lee,  
 S. V. Levchenko,  Ching Yeh Lin,  D. Liotard,  R. C. Lochan,  I. Lotan,  
 P. E. Maslen,  N. Nair,  D. P. O'Neill,  D. Neuhauser,  E. Neuscamman,  
 C. M. Oana,  R. Olson,  B. Peters,  R. Peverati,  P. A. Pieniazek,  
 Y. M. Rhee,  J. Ritchie,  M. A. Rohrdanz,  E. Rosta,  N. J. Russ,  
 H. F. Schaefer III,  N. E. Schultz,  N. Shenvi,  A. C. Simmonett,  A. Sodt,  
 D. Stuck,  K. S. Thanthiriwatte,  V. Vanovschi,  Tao Wang,  A. Warshel,  
 C. F. Williams,  Q. Wu,  X. Xu,  W. Zhang

 Please cite Q-Chem as follows:
 Y. Shao et al., Mol. Phys. 113, 184-215 (2015)
 DOI: 10.1080/00268976.2014.952696

 Q-Chem 5.1.1 for Intel X86 EM64T Linux

 Parts of Q-Chem use Armadillo 8.300.2 (Tropical Shenanigans).
 http://arma.sourceforge.net/

 Q-Chem begins on Wed Mar 13 15:23:03 2019  

Host: 
0

     Scratch files written to /staging/scratch/2868759/qchem23255//
 Aug318 |scratch|qcdevops|jenkins|workspace|build_RNUM 6013   
Processing $rem in /usr/usc/qchem/5.1.1/config/preferences.
 MEM_TOTAL  2000 
Input Ideriv = 2
Curr. Ideriv = -1
Max.  Ideriv = 2

Checking the input file for inconsistencies... 	...done.

--------------------------------------------------------------
User input:
--------------------------------------------------------------

$comment
potential surface scanner
$end

$rem
JOBTYPE  PES_SCAN
UNRESTRICTED TRUE
SYM_IGNORE  TRUE
GEOM_OPT_MAX_CYCLES 400
SCF_MAX_CYCLES 400
METHOD   B3LYP
BASIS   6-31G**
PDB_PRINT 2
SCF_CONVERGENCE 6
THRESH 14
SCF_PRINT 1
$end
$molecule
0 3
Br 2.264324 -0.004312 -0.139342
C -0.462008 0.000826 0.498694
C -0.851725 -1.295288 -0.136429
C -0.853794 1.296399 -0.136229
H -0.275666 0.000674 1.570112
H -0.352926 -2.150178 0.334490
H -1.937518 -1.485598 -0.065571
H -0.608419 -1.309049 -1.207493
H -0.353579 2.151725 0.332454
H -1.939352 1.486811 -0.062246
H -0.612939 1.309389 -1.207737
$end
$scan
stre 1 2 2.700000 2.701000 0.100000
$end
--------------------------------------------------------------
 ----------------------------------------------------------------
             Standard Nuclear Orientation (Angstroms)
    I     Atom           X                Y                Z
 ----------------------------------------------------------------
    1      Br      2.2643240000    -0.0043120000    -0.1393420000
    2      C      -0.4620080000     0.0008260000     0.4986940000
    3      C      -0.8517250000    -1.2952880000    -0.1364290000
    4      C      -0.8537940000     1.2963990000    -0.1362290000
    5      H      -0.2756660000     0.0006740000     1.5701120000
    6      H      -0.3529260000    -2.1501780000     0.3344900000
    7      H      -1.9375180000    -1.4855980000    -0.0655710000
    8      H      -0.6084190000    -1.3090490000    -1.2074930000
    9      H      -0.3535790000     2.1517250000     0.3324540000
   10      H      -1.9393520000     1.4868110000    -0.0622460000
   11      H      -0.6129390000     1.3093890000    -1.2077370000
 ----------------------------------------------------------------
 Nuclear Repulsion Energy =   217.0704158258 hartrees
 There are       31 alpha and       29 beta electrons
 Requested basis set is 6-31G(d,p)
 There are 41 shells and 115 basis functions

 Total QAlloc Memory Limit   2000 MB
 Mega-Array Size       188 MB
 MEM_STATIC part       192 MB
A total of 1 constraints
  
            1
    1   1.0100000
    2   1.0100000
    3   2.0100000
    4   2.7000000
    5   2.7010000
    6   0.1000000
    7   0.0000000
    8   0.0000000
    9   0.0000000
   10   0.0000000

                       Distance Matrix (Angstroms)
             Br(  1)   C (  2)   C (  3)   C (  4)   H (  5)   H (  6)
   C (  2)  2.800000
   C (  3)  3.372890  1.495049
   C (  4)  3.378538  1.495036  2.591688
   H (  5)  3.061667  1.087502  2.218928  2.219174
   H (  6)  3.417493  2.160019  1.096085  3.514447  2.481712
   H (  7)  4.455909  2.169097  1.104620  2.986462  2.765179  1.764270
   H (  8)  3.331057  2.155988  1.098438  2.827751  3.088881  1.774961
   H (  9)  3.424106  2.160037  3.514242  1.096112  2.482919  4.301904
   H ( 10)  4.460973  2.169182  2.988061  1.104611  2.764244  3.987711
   H ( 11)  3.338551  2.155696  2.826493  1.098321  3.089164  3.796666
             H (  7)   H (  8)   H (  9)   H ( 10)
   H (  8)  1.761153
   H (  9)  3.987155  3.796490
   H ( 10)  2.972411  3.301485  1.764249
   H ( 11)  3.297121  2.618442  1.774538  1.761533
 
 A cutoff of  1.0D-14 yielded    811 shell pairs
 There are      6469 function pairs
 
 -------------------------------------------------------
 OpenMP Integral Computing Module                       
 Release: version 1.0, May 2013, Q-Chem Inc. Pittsburgh 
 -------------------------------------------------------
 Integral Job Info:
 Integral job number is                      11
 Integral operator is                         1
 short-range coefficients                     0
 long-range coefficients              100000000
 Omega coefficients                           0
 if combine SR and LR in K                    0
 Integral screening is                        0
 Integral computing path is                   2
 max size of driver memory is            800000
 size of driver memory is                593474
 size of scratch memory is             15267112
 max col of scratch BK array               1296
 max len of scratch array in speh3          155
 max len of scratch index in speh4           18
 max int batch size is                      520
 min int batch size is                       52
 fixed nKL is                                52
 max L of basis functions is                  2
 order of int derivative is                   0
 number of shells is                         41
 number of basis is                         115
 number of cartesian basis is               115
 number of contracted shell pairs           811
 number of primitive shell pairs           3134
 maxK2 (contraction) of shell pair           36
 max number of K2 of shell pair               1
 max number of CS2 of shell pair             59
 max number of PS2 of shell pair            270
 mem total for path MDJ                  519708
 -------------------------------------------------------
 Smallest overlap matrix eigenvalue = 7.25E-04

 Scale SEOQF with 1.000000e-01/1.000000e-01/1.000000e-01

 Standard Electronic Orientation quadrupole field applied
 Nucleus-field energy     =     0.0000000089 hartrees
 Guess from superposition of atomic densities
 Warning:  Energy on first SCF cycle will be non-variational
 SAD guess density has 59.972873 electrons

 -----------------------------------------------------------------------
  General SCF calculation program by
  Eric Jon Sundstrom, Paul Horn, Yuezhi Mao, Dmitri Zuev, Alec White,
  David Stuck, Shaama M.S., Shane Yost, Joonho Lee, David Small,
  Daniel Levine, Susi Lehtola, Hugh Burton, Evgeny Epifanovsky
 -----------------------------------------------------------------------
 Exchange:     0.2000 Hartree-Fock + 0.0800 Slater + 0.7200 B88
 Correlation:  0.1900 VWN1RPA + 0.8100 LYP
 Using SG-1 standard quadrature grid
 using 12 threads for integral computing
 -------------------------------------------------------
 OpenMP Integral computing Module                
 Release: version 1.0, May 2013, Q-Chem Inc. Pittsburgh 
 -------------------------------------------------------
 -------------------------------------------------------
 OpenMP BLAS3 based DFT computing Module                
 Release: version 1.0, May 2013, Q-Chem Inc. Pittsburgh 
 -------------------------------------------------------
 A unrestricted SCF calculation will be
 performed using DIIS
 SCF converges when DIIS error is below 1.0e-06
 Alpha HF Exchange    Energy = -10.71856370079711
 Beta HF Exchange     Energy = -10.71856370079711
 DFT Correlation      Energy =  -3.11220784722132
 DFT Exchange         Energy = -84.98460926927396
 One-Electron (alpha) Energy = -2083.67821646516904
 One-Electron (beta)  Energy = -2083.67821646516904
 Total Coulomb        Energy = 1364.13923037211089
 ---------------------------------------
  Cycle       Energy         DIIS error
 ---------------------------------------
    1   -2695.6807312416      1.64e-01  
 Alpha HF Exchange    Energy = -10.90062279140714
 Beta HF Exchange     Energy = -10.69781394208259
 DFT Correlation      Energy =  -3.14565889953823
 DFT Exchange         Energy = -85.91095912660158
 One-Electron (alpha) Energy = -2109.20756871624826
 One-Electron (beta)  Energy = -2069.50686941233334
 Total Coulomb        Energy = 1380.10545409492488
    2   -2692.1936229586      9.63e-03  
 Alpha HF Exchange    Energy = -10.80118718280451
 Beta HF Exchange     Energy = -10.60987113090826
 DFT Correlation      Energy =  -3.10887659258010
 DFT Exchange         Energy = -85.14113888069662
 One-Electron (alpha) Energy = -2101.05687011214650
 One-Electron (beta)  Energy = -2062.19033233647451
 Total Coulomb        Energy = 1363.65815029689725
    3   -2692.1797101040      4.58e-03  
 Alpha HF Exchange    Energy = -10.87657125795616
 Beta HF Exchange     Energy = -10.67634397231658
 DFT Correlation      Energy =  -3.13690901016913
 DFT Exchange         Energy = -85.71778477900477
 One-Electron (alpha) Energy = -2107.10945129960146
 One-Electron (beta)  Energy = -2067.35405468954286
 Total Coulomb        Energy = 1375.53646656731439
    4   -2692.2642326066      2.77e-03  
 Alpha HF Exchange    Energy = -10.85307991942263
 Beta HF Exchange     Energy = -10.65669984344362
 DFT Correlation      Energy =  -3.12675068777946
 DFT Exchange         Energy = -85.53788617123215
 One-Electron (alpha) Energy = -2105.44569995434085
 One-Electron (beta)  Energy = -2065.92364833126931
 Total Coulomb        Energy = 1372.15828974994247
    5   -2692.3150593229      3.16e-04  
 Alpha HF Exchange    Energy = -10.85097285999398
 Beta HF Exchange     Energy = -10.65450175928833
 DFT Correlation      Energy =  -3.12659854361182
 DFT Exchange         Energy = -85.52155913467281
 One-Electron (alpha) Energy = -2105.20515553907899
 One-Electron (beta)  Energy = -2065.69248009135345
 Total Coulomb        Energy = 1371.66545319852185
    6   -2692.3153988948      5.98e-05  
 Alpha HF Exchange    Energy = -10.85076940244711
 Beta HF Exchange     Energy = -10.65453105810752
 DFT Correlation      Energy =  -3.12639612109801
 DFT Exchange         Energy = -85.52048579539422
 One-Electron (alpha) Energy = -2105.19269041050029
 One-Electron (beta)  Energy = -2065.68481221444836
 Total Coulomb        Energy = 1371.64384567658544
    7   -2692.3154234907      1.57e-05  
 Alpha HF Exchange    Energy = -10.85089718890715
 Beta HF Exchange     Energy = -10.65461892728244
 DFT Correlation      Energy =  -3.12640294424320
 DFT Exchange         Energy = -85.52128467688962
 One-Electron (alpha) Energy = -2105.20552434772162
 One-Electron (beta)  Energy = -2065.69593772031885
 Total Coulomb        Energy = 1371.66882416153931
    8   -2692.3154258092      8.26e-06  
 Alpha HF Exchange    Energy = -10.85089800406673
 Beta HF Exchange     Energy = -10.65465116747531
 DFT Correlation      Energy =  -3.12640128562239
 DFT Exchange         Energy = -85.52139560277436
 One-Electron (alpha) Energy = -2105.20458323378489
 One-Electron (beta)  Energy = -2065.69535095969331
 Total Coulomb        Energy = 1371.66743786321831
    9   -2692.3154265555      2.30e-06  
 Alpha HF Exchange    Energy = -10.85089089130325
 Beta HF Exchange     Energy = -10.65464891206719
 DFT Correlation      Energy =  -3.12639595296654
 DFT Exchange         Energy = -85.52135096917630
 One-Electron (alpha) Energy = -2105.20365165407748
 One-Electron (beta)  Energy = -2065.69487324686497
 Total Coulomb        Energy = 1371.66596897075442
   10   -2692.3154268210      1.18e-06  
 Alpha HF Exchange    Energy = -10.85088938357816
 Beta HF Exchange     Energy = -10.65464900288031
 DFT Correlation      Energy =  -3.12639533307892
 DFT Exchange         Energy = -85.52134613665280
 One-Electron (alpha) Energy = -2105.20353733720731
 One-Electron (beta)  Energy = -2065.69499084855443
 Total Coulomb        Energy = 1371.66596516221011
   11   -2692.3154270451      1.12e-06  
 Alpha HF Exchange    Energy = -10.85088943890662
 Beta HF Exchange     Energy = -10.65464919818813
 DFT Correlation      Energy =  -3.12639535956563
 DFT Exchange         Energy = -85.52134762377378
 One-Electron (alpha) Energy = -2105.20354695831429
 One-Electron (beta)  Energy = -2065.69505166751787
 Total Coulomb        Energy = 1371.66603720947660
   12   -2692.3154272021      1.13e-06  
 Alpha HF Exchange    Energy = -10.85088962033141
 Beta HF Exchange     Energy = -10.65464937704085
 DFT Correlation      Energy =  -3.12639538558359
 DFT Exchange         Energy = -85.52134857552186
 One-Electron (alpha) Energy = -2105.20358120101400
 One-Electron (beta)  Energy = -2065.69504848850193
 Total Coulomb        Energy = 1371.66606985295311
   13   -2692.3154269604      1.11e-06  
 Alpha HF Exchange    Energy = -10.85088936104343
 Beta HF Exchange     Energy = -10.65465098803000
 DFT Correlation      Energy =  -3.12639537270772
 DFT Exchange         Energy = -85.52135126830143
 One-Electron (alpha) Energy = -2105.20355785800530
 One-Electron (beta)  Energy = -2065.69499536994635
 Total Coulomb        Energy = 1371.66599946038332
   14   -2692.3154249230      1.03e-06  
 Alpha HF Exchange    Energy = -10.85088733090239
 Beta HF Exchange     Energy = -10.65465607594314
 DFT Correlation      Energy =  -3.12639402151738
 DFT Exchange         Energy = -85.52135855131664
 One-Electron (alpha) Energy = -2105.20332426141158
 One-Electron (beta)  Energy = -2065.69535972954600
 Total Coulomb        Energy = 1371.66614253048374
   15   -2692.3154216055      1.21e-06  
 Alpha HF Exchange    Energy = -10.85088733323072
 Beta HF Exchange     Energy = -10.65465612863677
 DFT Correlation      Energy =  -3.12639399543039
 DFT Exchange         Energy = -85.52135870403040
 One-Electron (alpha) Energy = -2105.20332401938367
 One-Electron (beta)  Energy = -2065.69536348030169
 Total Coulomb        Energy = 1371.66614621893132
   16   -2692.3154216074      1.23e-06  
 Alpha HF Exchange    Energy = -10.85088790396367
 Beta HF Exchange     Energy = -10.65465556967247
 DFT Correlation      Energy =  -3.12639460941499
 DFT Exchange         Energy = -85.52136097251477
 One-Electron (alpha) Energy = -2105.20338378969655
 One-Electron (beta)  Energy = -2065.69540941868627
 Total Coulomb        Energy = 1371.66625568393306
   17   -2692.3154207453      7.22e-07  Convergence criterion met
 ---------------------------------------
 SCF time:   CPU 47.94s  wall 4.00s 
<S^2> =          2.005269815
 Alpha HF Exchange    Energy = -10.85088790396367
 Beta HF Exchange     Energy = -10.65465556967247
 DFT Correlation      Energy =  -3.12639460941499
 DFT Exchange         Energy = -85.52136097251477
 One-Electron (alpha) Energy = -2105.20338378969655
 One-Electron (beta)  Energy = -2065.69540941868627
 Total Coulomb        Energy = 1371.66625568393306
 Nuclear repulsion Energy = 217.07041583467168
 SCF   energy in the final basis set =    -2692.3154207453
 Total energy in the final basis set =    -2692.3154207453
 
 --------------------------------------------------------------
 
                    Orbital Energies (a.u.)
 --------------------------------------------------------------
 
 Alpha MOs
 -- Occupied --
******* -62.550 -56.374 -56.367 -56.366 -10.179 -10.175 -10.175
 -8.737  -6.574  -6.552  -6.552  -2.665  -2.659  -2.659  -2.643
 -2.643  -0.796  -0.771  -0.685  -0.565  -0.446  -0.428  -0.404
 -0.384  -0.362  -0.349  -0.342  -0.319  -0.316  -0.164
 -- Virtual --
  0.098   0.130   0.142   0.173   0.179   0.181   0.189   0.201
  0.252   0.288   0.309   0.328   0.355   0.477   0.498   0.512
  0.528   0.534   0.556   0.557   0.568   0.674   0.711   0.729
  0.730   0.760   0.762   0.862   0.864   0.879   0.884   0.923
  0.941   0.950   1.034   1.296   1.302   1.355   1.369   1.537
  1.664   1.740   1.809   1.829   1.874   1.903   2.014   2.048
  2.052   2.083   2.113   2.120   2.135   2.267   2.284   2.375
  2.393   2.502   2.553   2.608   2.681   2.730   2.761   2.848
  2.862   2.910   2.958   3.161   3.205   3.359   3.424   3.444
  3.461   3.516   4.226   4.486   4.561   4.666   4.666   4.687
  4.707   4.812   6.239  90.214
 
 Beta MOs
 -- Occupied --
******* -62.548 -56.368 -56.365 -56.365 -10.176 -10.176 -10.165
 -8.733  -6.563  -6.550  -6.549  -2.656  -2.653  -2.653  -2.642
 -2.642  -0.763  -0.742  -0.683  -0.544  -0.441  -0.410  -0.397
 -0.376  -0.344  -0.337  -0.302  -0.298
 -- Virtual --
 -0.229  -0.017   0.101   0.134   0.146   0.181   0.186   0.189
  0.190   0.213   0.263   0.297   0.333   0.335   0.364   0.498
  0.503   0.538   0.546   0.550   0.591   0.597   0.599   0.691
  0.719   0.740   0.761   0.764   0.769   0.866   0.872   0.885
  0.889   0.929   0.946   0.954   1.051   1.312   1.316   1.361
  1.391   1.537   1.672   1.760   1.821   1.851   1.900   1.924
  2.038   2.053   2.057   2.088   2.115   2.125   2.144   2.282
  2.287   2.376   2.404   2.523   2.571   2.621   2.685   2.733
  2.766   2.855   2.868   2.918   2.963   3.165   3.210   3.366
  3.426   3.447   3.465   3.522   4.245   4.486   4.574   4.681
  4.681   4.702   4.710   4.822   6.255  90.221
 --------------------------------------------------------------
 
          Ground-State Mulliken Net Atomic Charges

     Atom                 Charge (a.u.)    Spin (a.u.)
  --------------------------------------------------------
      1 Br                    0.020276       1.033217
      2 C                    -0.085999       0.979828
      3 C                    -0.328598      -0.070891
      4 C                    -0.328689      -0.070783
      5 H                     0.088588      -0.041474
      6 H                     0.102777       0.007851
      7 H                     0.107721       0.057214
      8 H                     0.106395       0.019646
      9 H                     0.102126       0.007915
     10 H                     0.108121       0.057909
     11 H                     0.107282       0.019568
  --------------------------------------------------------
  Sum of atomic charges =     0.000000
  Sum of spin   charges =     2.000000

 -----------------------------------------------------------------
                    Cartesian Multipole Moments
 -----------------------------------------------------------------
    Charge (ESU x 10^10)
                -0.0000
    Dipole Moment (Debye)
         X      -0.3432      Y      -0.0032      Z       0.0211
       Tot       0.3439
    Quadrupole Moments (Debye-Ang)
        XX     -40.6565     XY      -0.0474     YY     -36.7177
        XZ       0.2989     YZ       0.1518     ZZ     -39.2621
    Octopole Moments (Debye-Ang^2)
       XXX     -84.6072    XXY      -0.0972    XYY     -20.3136
       YYY       0.1589    XXZ       1.8644    XYZ       0.3738
       YYZ       2.2244    XZZ     -26.4654    YZZ       0.0219
       ZZZ       5.3237
    Hexadecapole Moments (Debye-Ang^3)
      XXXX    -723.7152   XXXY      -0.0249   XXYY    -142.9866
      XYYY       0.5017   YYYY    -222.1603   XXXZ      15.9838
      XXYZ       0.9065   XYYZ       4.3588   YYYZ       0.1154
      XXZZ    -135.2474   XYZZ       0.0898   YYZZ     -50.6862
      XZZZ      15.9248   YZZZ       0.1286   ZZZZ     -78.2001
 -----------------------------------------------------------------
 Calculating analytic gradient of the SCF energy
 Gradient of SCF Energy
            1           2           3           4           5           6
    1  -0.0179514   0.0177622   0.0001645  -0.0001422   0.0001358  -0.0000504
    2  -0.0000430   0.0000287   0.0000657   0.0000457   0.0000128  -0.0000439
    3   0.0042736  -0.0041012  -0.0000246  -0.0000401  -0.0000729   0.0000386
            7           8           9          10          11
    1  -0.0000199   0.0000225  -0.0000040   0.0000175   0.0000654
    2  -0.0000076  -0.0000100  -0.0000296  -0.0000228   0.0000039
    3  -0.0000424  -0.0000268  -0.0000017  -0.0000366   0.0000340
 Max gradient component =       1.795E-02
 RMS gradient           =       4.516E-03
 Gradient time:  CPU 10.08 s  wall 0.86 s
 Geometry Optimization Parameters
   NAtoms,    NIC,     NZ,  NCons,   NDum,   NFix, NCnnct, MaxDiis
       11      75       0       1       0       0       0       0


** CONSTRAINED OPTIMIZATION IN DELOCALIZED INTERNAL COORDINATES **
   Searching for a Minimum

   Optimization Cycle:   1

                       Coordinates (Angstroms)
     ATOM                X               Y               Z
      1  Br        2.2643240000   -0.0043120000   -0.1393420000
      2  C        -0.4620080000    0.0008260000    0.4986940000
      3  C        -0.8517250000   -1.2952880000   -0.1364290000
      4  C        -0.8537940000    1.2963990000   -0.1362290000
      5  H        -0.2756660000    0.0006740000    1.5701120000
      6  H        -0.3529260000   -2.1501780000    0.3344900000
      7  H        -1.9375180000   -1.4855980000   -0.0655710000
      8  H        -0.6084190000   -1.3090490000   -1.2074930000
      9  H        -0.3535790000    2.1517250000    0.3324540000
     10  H        -1.9393520000    1.4868110000   -0.0622460000
     11  H        -0.6129390000    1.3093890000   -1.2077370000
   Point Group: c1    Number of degrees of freedom:    27


   Energy is  -2692.315420745

              Constraints and their Current Values
                                        Value     Constraint
   Distance(Angs):        1   2             2.800000     2.700000

 Attempting to Generate Delocalized Internal Coordinates

   Using Lagrange Multiplier Algorithm


 28 Hessian modes will be used to form the next step
  Hessian Eigenvalues:
    -0.983941    0.045000    0.045000    0.053224    0.071697    0.081398
     0.081410    0.081945    0.081950    0.093432    0.123410    0.160000
     0.160000    0.160000    0.160000    0.160000    0.160000    0.170989
     0.322454    0.329023    0.329037    0.331763    0.331773    0.338555
     0.338685    0.341158    0.341188    1.016322

 Minimum Search - Taking P-RFO Step
 Searching for Lamda that Maximizes Along the Constraint modes Only
 Value Taken    Lamda =   0.02166497
 Searching for Lamda that Minimizes Along All other modes
 Value Taken    Lamda =  -0.01384571
 Step Taken.  Stepsize is  0.185595

                             Maximum     Tolerance    Cnvgd?
         Gradient            0.188973       0.000300      NO
         Displacement        0.185581       0.001200      NO
         Energy change     *********       0.000001      NO


 New Cartesian Coordinates Obtained by Inverse Iteration

 Displacement from previous Coordinates is:  0.216275
 ----------------------------------------------------------------
             Standard Nuclear Orientation (Angstroms)
    I     Atom           X                Y                Z
 ----------------------------------------------------------------
    1      Br      2.1630530190    -0.0030411586    -0.1612005711
    2      C      -0.4573825113     0.0006116056     0.4968280971
    3      C      -0.8397685962    -1.2988213644    -0.1360199465
    4      C      -0.8412719707     1.2996080452    -0.1358389910
    5      H      -0.2895198389     0.0003944706     1.5871999089
    6      H      -0.3401044103    -2.1503344709     0.3399725644
    7      H      -1.9252046908    -1.4925813127    -0.0696499198
    8      H      -0.5912659720    -1.3151125744    -1.2058118086
    9      H      -0.3403692709     2.1517320649     0.3379963710
   10      H      -1.9265054380     1.4937886187    -0.0665890299
   11      H      -0.5952623198     1.3151550758    -1.2061836744
 ----------------------------------------------------------------
 Nuclear Repulsion Energy =   221.4294405555 hartrees
 There are       31 alpha and       29 beta electrons

                       Distance Matrix (Angstroms)
             Br(  1)   C (  2)   C (  3)   C (  4)   H (  5)   H (  6)
   C (  2)  2.701795
   C (  3)  3.270568  1.495073
   C (  4)  3.274677  1.495002  2.598430
   H (  5)  3.011981  1.103217  2.227156  2.227386
   H (  6)  3.335842  2.159844  1.096042  3.518475  2.486719
   H (  7)  4.352122  2.169107  1.104590  2.995933  2.765790  1.764362
   H (  8)  3.224751  2.155931  1.098396  2.836214  3.102019  1.774860
   H (  9)  3.340564  2.160148  3.518581  1.096147  2.488242  4.302067
   H ( 10)  4.355909  2.169179  2.997414  1.104642  2.764953  3.995196
   H ( 11)  3.230779  2.155756  2.835120  1.098363  3.102429  3.803330
             H (  7)   H (  8)   H (  9)   H ( 10)
   H (  8)  1.761179
   H (  9)  3.994859  3.803328
   H ( 10)  2.986372  3.312192  1.764201
   H ( 11)  3.308147  2.630271  1.774633  1.761475
 
 Applying Cartesian multipole field
    Component          Value
    ---------          -----
     (2,0,0)        1.00000E-11
     (0,2,0)        2.00000E-11
     (0,0,2)       -3.00000E-11
 Nucleus-field energy     =     0.0000000083 hartrees
 Requested basis set is 6-31G(d,p)
 There are 41 shells and 115 basis functions
 A cutoff of  1.0D-14 yielded    818 shell pairs
 There are      6528 function pairs
 Smallest overlap matrix eigenvalue = 7.25E-04
 Guess from superposition of atomic densities
 Warning:  Energy on first SCF cycle will be non-variational
 SAD guess density has 59.972873 electrons

 -----------------------------------------------------------------------
  General SCF calculation program by
  Eric Jon Sundstrom, Paul Horn, Yuezhi Mao, Dmitri Zuev, Alec White,
  David Stuck, Shaama M.S., Shane Yost, Joonho Lee, David Small,
  Daniel Levine, Susi Lehtola, Hugh Burton, Evgeny Epifanovsky
 -----------------------------------------------------------------------
 Exchange:     0.2000 Hartree-Fock + 0.0800 Slater + 0.7200 B88
 Correlation:  0.1900 VWN1RPA + 0.8100 LYP
 Using SG-1 standard quadrature grid
 using 12 threads for integral computing
 -------------------------------------------------------
 OpenMP Integral computing Module                
 Release: version 1.0, May 2013, Q-Chem Inc. Pittsburgh 
 -------------------------------------------------------
 -------------------------------------------------------
 OpenMP BLAS3 based DFT computing Module                
 Release: version 1.0, May 2013, Q-Chem Inc. Pittsburgh 
 -------------------------------------------------------
 A unrestricted SCF calculation will be
 performed using DIIS
 SCF converges when DIIS error is below 1.0e-06
 Alpha HF Exchange    Energy = -10.71938705967063
 Beta HF Exchange     Energy = -10.71938705967063
 DFT Correlation      Energy =  -3.11333956749637
 DFT Exchange         Energy = -84.98566630652932
 One-Electron (alpha) Energy = -2088.04261696390950
 One-Electron (beta)  Energy = -2088.04261696390950
 Total Coulomb        Energy = 1368.49784831970192
 ---------------------------------------
  Cycle       Energy         DIIS error
 ---------------------------------------
    1   -2695.6957250377      1.64e-01  
 Alpha HF Exchange    Energy = -10.90083497398369
 Beta HF Exchange     Energy = -10.69667527439850
 DFT Correlation      Energy =  -3.14673113347069
 DFT Exchange         Energy = -85.90933172265377
 One-Electron (alpha) Energy = -2113.81394956441954
 One-Electron (beta)  Energy = -2073.61497620806995
 Total Coulomb        Energy = 1384.46452139167968
    2   -2692.1885369216      9.63e-03  
 Alpha HF Exchange    Energy = -10.80128377839205
 Beta HF Exchange     Energy = -10.60833848498294
 DFT Correlation      Energy =  -3.10986855315364
 DFT Exchange         Energy = -85.13838185297269
 One-Electron (alpha) Energy = -2105.59151925695460
 One-Electron (beta)  Energy = -2066.39087142195922
 Total Coulomb        Energy = 1368.04132837845032
    3   -2692.1694944062      4.65e-03  
 Alpha HF Exchange    Energy = -10.87688756211865
 Beta HF Exchange     Energy = -10.67516172947997
 DFT Correlation      Energy =  -3.13816589781612
 DFT Exchange         Energy = -85.71637959042044
 One-Electron (alpha) Energy = -2111.69382436665046
 One-Electron (beta)  Energy = -2071.42434601689411
 Total Coulomb        Energy = 1379.83884119438403
    4   -2692.2564834052      2.85e-03  
 Alpha HF Exchange    Energy = -10.85362116189941
 Beta HF Exchange     Energy = -10.65606113881550
 DFT Correlation      Energy =  -3.12787274901093
 DFT Exchange         Energy = -85.53897025943508
 One-Electron (alpha) Energy = -2110.05405492089176
 One-Electron (beta)  Energy = -2070.08159113567081
 Total Coulomb        Energy = 1376.57183893068964
    5   -2692.3108918713      3.53e-04  
 Alpha HF Exchange    Energy = -10.85130864895137
 Beta HF Exchange     Energy = -10.65360834444173
 DFT Correlation      Energy =  -3.12768650554009
 DFT Exchange         Energy = -85.52079559138825
 One-Electron (alpha) Energy = -2109.79367526271017
 One-Electron (beta)  Energy = -2069.82345583712595
 Total Coulomb        Energy = 1376.02975966212648
    6   -2692.3113299643      6.69e-05  
 Alpha HF Exchange    Energy = -10.85106864944402
 Beta HF Exchange     Energy = -10.65366359132326
 DFT Correlation      Energy =  -3.12746640124604
 DFT Exchange         Energy = -85.51960538488018
 One-Electron (alpha) Energy = -2109.77768190815732
 One-Electron (beta)  Energy = -2069.81418097073947
 Total Coulomb        Energy = 1376.00286315764879
    7   -2692.3113631844      1.91e-05  
 Alpha HF Exchange    Energy = -10.85121095703496
 Beta HF Exchange     Energy = -10.65376222724900
 DFT Correlation      Energy =  -3.12747098443312
 DFT Exchange         Energy = -85.52048576083529
 One-Electron (alpha) Energy = -2109.79260547172180
 One-Electron (beta)  Energy = -2069.82727781652511
 Total Coulomb        Energy = 1376.03200617449670
    8   -2692.3113664795      9.00e-06  
 Alpha HF Exchange    Energy = -10.85121576291418
 Beta HF Exchange     Energy = -10.65380288338261
 DFT Correlation      Energy =  -3.12746996974826
 DFT Exchange         Energy = -85.52063684146205
 One-Electron (alpha) Energy = -2109.79179991074852
 One-Electron (beta)  Energy = -2069.82677181520876
 Total Coulomb        Energy = 1376.03088922232473
    9   -2692.3113673974      2.34e-06  
 Alpha HF Exchange    Energy = -10.85120748577230
 Beta HF Exchange     Energy = -10.65380089090695
 DFT Correlation      Energy =  -3.12746397162823
 DFT Exchange         Energy = -85.52058593423187
 One-Electron (alpha) Energy = -2109.79079480891232
 One-Electron (beta)  Energy = -2069.82616701638744
 Total Coulomb        Energy = 1376.02921188201003
   10   -2692.3113676621      1.18e-06  
 Alpha HF Exchange    Energy = -10.85120602505252
 Beta HF Exchange     Energy = -10.65380082937830
 DFT Correlation      Energy =  -3.12746324372699
 DFT Exchange         Energy = -85.52058079111403
 One-Electron (alpha) Energy = -2109.79067112102166
 One-Electron (beta)  Energy = -2069.82627689741821
 Total Coulomb        Energy = 1376.02919046523607
   11   -2692.3113678787      1.10e-06  
 Alpha HF Exchange    Energy = -10.85120622259172
 Beta HF Exchange     Energy = -10.65380104509897
 DFT Correlation      Energy =  -3.12746329810227
 DFT Exchange         Energy = -85.52058312498738
 One-Electron (alpha) Energy = -2109.79069949642144
 One-Electron (beta)  Energy = -2069.82636219732149
 Total Coulomb        Energy = 1376.02930676988535
   12   -2692.3113680509      1.09e-06  
 Alpha HF Exchange    Energy = -10.85120617746958
 Beta HF Exchange     Energy = -10.65380098537543
 DFT Correlation      Energy =  -3.12746329080548
 DFT Exchange         Energy = -85.52058284749491
 One-Electron (alpha) Energy = -2109.79068935911209
 One-Electron (beta)  Energy = -2069.82636270243711
 Total Coulomb        Energy = 1376.02929669005835
   13   -2692.3113681089      1.10e-06  
 Alpha HF Exchange    Energy = -10.85120605023072
 Beta HF Exchange     Energy = -10.65380185018887
 DFT Correlation      Energy =  -3.12746333630245
 DFT Exchange         Energy = -85.52058430201183
 One-Electron (alpha) Energy = -2109.79068722944976
 One-Electron (beta)  Energy = -2069.82629428052132
 Total Coulomb        Energy = 1376.02922940930739
   14   -2692.3113670756      1.08e-06  
 Alpha HF Exchange    Energy = -10.85120477084016
 Beta HF Exchange     Energy = -10.65380550760888
 DFT Correlation      Energy =  -3.12746287061237
 DFT Exchange         Energy = -85.52058959469336
 One-Electron (alpha) Energy = -2109.79056761775018
 One-Electron (beta)  Energy = -2069.82636211281670
 Total Coulomb        Energy = 1376.02918789018008
   15   -2692.3113640204      1.05e-06  
 Alpha HF Exchange    Energy = -10.85120457206419
 Beta HF Exchange     Energy = -10.65380583430197
 DFT Correlation      Energy =  -3.12746292278187
 DFT Exchange         Energy = -85.52059000453681
 One-Electron (alpha) Energy = -2109.79055702516052
 One-Electron (beta)  Energy = -2069.82639691725990
 Total Coulomb        Energy = 1376.02921314945206
   16   -2692.3113635629      1.02e-06  
 Alpha HF Exchange    Energy = -10.85120473402602
 Beta HF Exchange     Energy = -10.65380510463195
 DFT Correlation      Energy =  -3.12746354893587
 DFT Exchange         Energy = -85.52058918225505
 One-Electron (alpha) Energy = -2109.79054549052762
 One-Electron (beta)  Energy = -2069.82628461259674
 Total Coulomb        Energy = 1376.02908924597614
   17   -2692.3113628632      8.99e-07  Convergence criterion met
 ---------------------------------------
 SCF time:   CPU 46.92s  wall 4.00s 
<S^2> =          2.005285872
 Alpha HF Exchange    Energy = -10.85120473402602
 Beta HF Exchange     Energy = -10.65380510463195
 DFT Correlation      Energy =  -3.12746354893587
 DFT Exchange         Energy = -85.52058918225505
 One-Electron (alpha) Energy = -2109.79054549052762
 One-Electron (beta)  Energy = -2069.82628461259674
 Total Coulomb        Energy = 1376.02908924597614
 Nuclear repulsion Energy = 221.42944056375856
 SCF   energy in the final basis set =    -2692.3113628632
 Total energy in the final basis set =    -2692.3113628632
 
 --------------------------------------------------------------
 
                    Orbital Energies (a.u.)
 --------------------------------------------------------------
 
 Alpha MOs
 -- Occupied --
******* -62.549 -56.374 -56.366 -56.366 -10.179 -10.176 -10.176
 -8.737  -6.573  -6.552  -6.551  -2.664  -2.659  -2.659  -2.643
 -2.643  -0.799  -0.769  -0.686  -0.564  -0.446  -0.429  -0.405
 -0.385  -0.361  -0.350  -0.340  -0.320  -0.316  -0.160
 -- Virtual --
  0.098   0.129   0.142   0.172   0.177   0.180   0.188   0.204
  0.250   0.288   0.313   0.331   0.354   0.468   0.496   0.519
  0.524   0.527   0.556   0.559   0.569   0.687   0.724   0.730
  0.732   0.765   0.769   0.864   0.867   0.876   0.884   0.924
  0.938   0.950   1.056   1.301   1.312   1.353   1.373   1.537
  1.659   1.754   1.810   1.832   1.877   1.904   2.009   2.048
  2.052   2.084   2.113   2.121   2.130   2.264   2.282   2.373
  2.390   2.500   2.554   2.602   2.677   2.729   2.757   2.848
  2.858   2.907   2.952   3.160   3.204   3.347   3.424   3.440
  3.461   3.504   4.233   4.483   4.565   4.667   4.668   4.699
  4.714   4.833   6.242  90.228
 
 Beta MOs
 -- Occupied --
******* -62.548 -56.368 -56.365 -56.365 -10.177 -10.177 -10.165
 -8.733  -6.562  -6.549  -6.549  -2.656  -2.652  -2.652  -2.641
 -2.641  -0.765  -0.741  -0.684  -0.543  -0.441  -0.411  -0.398
 -0.377  -0.345  -0.335  -0.302  -0.297
 -- Virtual --
 -0.229  -0.015   0.101   0.133   0.146   0.180   0.185   0.186
  0.189   0.216   0.261   0.297   0.336   0.339   0.364   0.491
  0.500   0.531   0.540   0.553   0.593   0.598   0.602   0.703
  0.736   0.742   0.758   0.771   0.776   0.868   0.875   0.882
  0.889   0.929   0.943   0.954   1.071   1.310   1.333   1.359
  1.395   1.537   1.667   1.774   1.822   1.853   1.902   1.923
  2.036   2.052   2.057   2.088   2.116   2.126   2.138   2.278
  2.285   2.374   2.400   2.521   2.572   2.615   2.682   2.733
  2.762   2.855   2.863   2.915   2.957   3.165   3.209   3.354
  3.426   3.443   3.465   3.509   4.251   4.483   4.578   4.682
  4.683   4.714   4.718   4.844   6.259  90.235
 --------------------------------------------------------------
 
          Ground-State Mulliken Net Atomic Charges

     Atom                 Charge (a.u.)    Spin (a.u.)
  --------------------------------------------------------
      1 Br                    0.028275       1.041429
      2 C                    -0.096646       0.969915
      3 C                    -0.327081      -0.068268
      4 C                    -0.326727      -0.068322
      5 H                     0.086831      -0.041379
      6 H                     0.103088       0.008248
      7 H                     0.108399       0.055886
      8 H                     0.106104       0.018990
      9 H                     0.102496       0.008325
     10 H                     0.108433       0.056264
     11 H                     0.106827       0.018912
  --------------------------------------------------------
  Sum of atomic charges =    -0.000000
  Sum of spin   charges =     2.000000

 -----------------------------------------------------------------
                    Cartesian Multipole Moments
 -----------------------------------------------------------------
    Charge (ESU x 10^10)
                 0.0000
    Dipole Moment (Debye)
         X      -0.3571      Y      -0.0020      Z       0.0114
       Tot       0.3572
    Quadrupole Moments (Debye-Ang)
        XX     -40.7540     XY      -0.0059     YY     -36.7272
        XZ       0.3350     YZ       0.1180     ZZ     -39.3148
    Octopole Moments (Debye-Ang^2)
       XXX     -79.6906    XXY       0.0371    XYY     -18.9381
       YYY       0.1124    XXZ       2.2991    XYZ       0.2766
       YYZ       2.5675    XZZ     -24.7701    YZZ       0.0063
       ZZZ       6.4857
    Hexadecapole Moments (Debye-Ang^3)
      XXXX    -671.3140   XXXY       0.3959   XXYY    -135.5797
      XYYY       0.3797   YYYY    -223.1207   XXXZ      18.2963
      XXYZ       0.6378   XYYZ       4.9793   YYYZ       0.0856
      XXZZ    -126.7333   XYZZ       0.0532   YYZZ     -51.0216
      XZZZ      17.9941   YZZZ       0.0994   ZZZZ     -79.4256
 -----------------------------------------------------------------
 Calculating analytic gradient of the SCF energy
 Gradient of SCF Energy
            1           2           3           4           5           6
    1  -0.0230769   0.0190413   0.0011955   0.0010808   0.0019150  -0.0000739
    2  -0.0000237  -0.0000006  -0.0003860   0.0003762   0.0000073   0.0000161
    3   0.0055415  -0.0159577   0.0003652   0.0003995   0.0095512  -0.0000667
            7           8           9          10          11
    1  -0.0000703   0.0000482  -0.0000588  -0.0000621   0.0000612
    2   0.0001609   0.0000276   0.0000032  -0.0001551  -0.0000259
    3  -0.0000252   0.0001628  -0.0000766  -0.0000330   0.0001392
 Max gradient component =       2.308E-02
 RMS gradient           =       6.225E-03
 Gradient time:  CPU 10.21 s  wall 0.87 s
 Geometry Optimization Parameters
   NAtoms,    NIC,     NZ,  NCons,   NDum,   NFix, NCnnct, MaxDiis
       11      75       0       1       0       0       0       0

 Cartesian Hessian Update
 Hessian Updated using BFGS Update


** CONSTRAINED OPTIMIZATION IN DELOCALIZED INTERNAL COORDINATES **
   Searching for a Minimum

   Optimization Cycle:   2

                       Coordinates (Angstroms)
     ATOM                X               Y               Z
      1  Br        2.1630530190   -0.0030411586   -0.1612005711
      2  C        -0.4573825113    0.0006116056    0.4968280971
      3  C        -0.8397685962   -1.2988213644   -0.1360199465
      4  C        -0.8412719707    1.2996080452   -0.1358389910
      5  H        -0.2895198389    0.0003944706    1.5871999089
      6  H        -0.3401044103   -2.1503344709    0.3399725644
      7  H        -1.9252046908   -1.4925813127   -0.0696499198
      8  H        -0.5912659720   -1.3151125744   -1.2058118086
      9  H        -0.3403692709    2.1517320649    0.3379963710
     10  H        -1.9265054380    1.4937886187   -0.0665890299
     11  H        -0.5952623198    1.3151550758   -1.2061836744
   Point Group: c1    Number of degrees of freedom:    27


   Energy is  -2692.311362863

              Constraints and their Current Values
                                        Value     Constraint
   Distance(Angs):        1   2             2.701795     2.700000
 Hessian Updated using BFGS Update

   Using Lagrange Multiplier Algorithm


 24 Hessian modes will be used to form the next step
  Hessian Eigenvalues:
    -0.981986    0.045000    0.045003    0.053233    0.072237    0.081400
     0.081410    0.081947    0.081960    0.093430    0.123389    0.159997
     0.160075    0.173212    0.329011    0.329032    0.331763    0.331772
     0.338546    0.338681    0.341157    0.341184    0.382918    1.021197

 Minimum Search - Taking P-RFO Step
 Searching for Lamda that Maximizes Along the Constraint modes Only
 Value Taken    Lamda =   0.00001394
 Searching for Lamda that Minimizes Along All other modes
 Value Taken    Lamda =  -0.00024034
 Step Taken.  Stepsize is  0.028094

                             Maximum     Tolerance    Cnvgd?
         Gradient            0.005963       0.000300      NO
         Displacement        0.017692       0.001200      NO
         Energy change      0.004058       0.000001      NO


 New Cartesian Coordinates Obtained by Inverse Iteration

 Displacement from previous Coordinates is:  0.022830
 ----------------------------------------------------------------
             Standard Nuclear Orientation (Angstroms)
    I     Atom           X                Y                Z
 ----------------------------------------------------------------
    1      Br      2.1650822266    -0.0020391170    -0.1576966787
    2      C      -0.4538437095     0.0005035610     0.4989780751
    3      C      -0.8400758529    -1.2975183724    -0.1354153541
    4      C      -0.8411938555     1.2981190242    -0.1352801474
    5      H      -0.2899385211     0.0001822909     1.5783402692
    6      H      -0.3412917545    -2.1502525250     0.3395178583
    7      H      -1.9256112222    -1.4901129216    -0.0682113245
    8      H      -0.5927870339    -1.3134644749    -1.2056825263
    9      H      -0.3411476795     2.1513834088     0.3375932309
   10      H      -1.9265124816     1.4913529828    -0.0653781673
   11      H      -0.5962821160     1.3132451430    -1.2060622352
 ----------------------------------------------------------------
 Nuclear Repulsion Energy =   221.4680534690 hartrees
 There are       31 alpha and       29 beta electrons

                       Distance Matrix (Angstroms)
             Br(  1)   C (  2)   C (  3)   C (  4)   H (  5)   H (  6)
   C (  2)  2.700000
   C (  3)  3.272574  1.495490
   C (  4)  3.275456  1.495369  2.595638
   H (  5)  3.006818  1.091736  2.218927  2.219238
   H (  6)  3.338256  2.159594  1.096131  3.516618  2.482275
   H (  7)  4.353865  2.170194  1.104534  2.992440  2.758176  1.764113
   H (  8)  3.228615  2.156777  1.098580  2.833344  3.093246  1.775136
   H (  9)  3.341217  2.159868  3.516758  1.096228  2.483897  4.301636
   H ( 10)  4.356592  2.170227  2.993836  1.104600  2.757494  3.992262
   H ( 11)  3.233292  2.156558  2.832279  1.098538  3.093684  3.801270
             H (  7)   H (  8)   H (  9)   H ( 10)
   H (  8)  1.761098
   H (  9)  3.991954  3.801341
   H ( 10)  2.981467  3.308492  1.763918
   H ( 11)  3.304639  2.626712  1.774948  1.761362
 
 Applying Cartesian multipole field
    Component          Value
    ---------          -----
     (2,0,0)        1.00000E-11
     (0,2,0)        2.00000E-11
     (0,0,2)       -3.00000E-11
 Nucleus-field energy     =     0.0000000083 hartrees
 Requested basis set is 6-31G(d,p)
 There are 41 shells and 115 basis functions
 A cutoff of  1.0D-14 yielded    818 shell pairs
 There are      6528 function pairs
 Smallest overlap matrix eigenvalue = 7.25E-04
 Guess from superposition of atomic densities
 Warning:  Energy on first SCF cycle will be non-variational
 SAD guess density has 59.972873 electrons

 -----------------------------------------------------------------------
  General SCF calculation program by
  Eric Jon Sundstrom, Paul Horn, Yuezhi Mao, Dmitri Zuev, Alec White,
  David Stuck, Shaama M.S., Shane Yost, Joonho Lee, David Small,
  Daniel Levine, Susi Lehtola, Hugh Burton, Evgeny Epifanovsky
 -----------------------------------------------------------------------
 Exchange:     0.2000 Hartree-Fock + 0.0800 Slater + 0.7200 B88
 Correlation:  0.1900 VWN1RPA + 0.8100 LYP
 Using SG-1 standard quadrature grid
 using 12 threads for integral computing
 -------------------------------------------------------
 OpenMP Integral computing Module                
 Release: version 1.0, May 2013, Q-Chem Inc. Pittsburgh 
 -------------------------------------------------------
 -------------------------------------------------------
 OpenMP BLAS3 based DFT computing Module                
 Release: version 1.0, May 2013, Q-Chem Inc. Pittsburgh 
 -------------------------------------------------------
 A unrestricted SCF calculation will be
 performed using DIIS
 SCF converges when DIIS error is below 1.0e-06
 Alpha HF Exchange    Energy = -10.71998317057665
 Beta HF Exchange     Energy = -10.71998317057665
 DFT Correlation      Energy =  -3.11347302349105
 DFT Exchange         Energy = -84.98697323969054
 One-Electron (alpha) Energy = -2088.07604809309441
 One-Electron (beta)  Energy = -2088.07604809309441
 Total Coulomb        Energy = 1368.52497938935790
 ---------------------------------------
  Cycle       Energy         DIIS error
 ---------------------------------------
    1   -2695.6994759239      1.64e-01  
 Alpha HF Exchange    Energy = -10.90135017177985
 Beta HF Exchange     Energy = -10.69704570820309
 DFT Correlation      Energy =  -3.14691286586325
 DFT Exchange         Energy = -85.91260179724533
 One-Electron (alpha) Energy = -2113.85817770590620
 One-Electron (beta)  Energy = -2073.63738278221490
 Total Coulomb        Energy = 1384.49704679967704
    2   -2692.1883707542      9.63e-03  
 Alpha HF Exchange    Energy = -10.80169772678539
 Beta HF Exchange     Energy = -10.60862889384534
 DFT Correlation      Energy =  -3.11007023045722
 DFT Exchange         Energy = -85.14118525870663
 One-Electron (alpha) Energy = -2105.63997445291216
 One-Electron (beta)  Energy = -2066.44034620880302
 Total Coulomb        Energy = 1368.10477673668925
    3   -2692.1690725575      4.66e-03  
 Alpha HF Exchange    Energy = -10.87722629323427
 Beta HF Exchange     Energy = -10.67544197517950
 DFT Correlation      Energy =  -3.13832302491844
 DFT Exchange         Energy = -85.71858290694203
 One-Electron (alpha) Energy = -2111.72483748027344
 One-Electron (beta)  Energy = -2071.44007843072040
 Total Coulomb        Energy = 1379.85000180740190
    4   -2692.2564348266      2.85e-03  
 Alpha HF Exchange    Energy = -10.85407404583830
 Beta HF Exchange     Energy = -10.65645537135739
 DFT Correlation      Energy =  -3.12806036067456
 DFT Exchange         Energy = -85.54203960552711
 One-Electron (alpha) Energy = -2110.09913874586391
 One-Electron (beta)  Energy = -2070.11407453491074
 Total Coulomb        Energy = 1376.61482162938751
    5   -2692.3109675575      3.53e-04  
 Alpha HF Exchange    Energy = -10.85171379756917
 Beta HF Exchange     Energy = -10.65398083634542
 DFT Correlation      Energy =  -3.12786310678553
 DFT Exchange         Energy = -85.52357511187589
 One-Electron (alpha) Energy = -2109.83467615834570
 One-Electron (beta)  Energy = -2069.85236903526675
 Total Coulomb        Energy = 1376.06472623016975
    6   -2692.3113983387      6.77e-05  
 Alpha HF Exchange    Energy = -10.85148337566431
 Beta HF Exchange     Energy = -10.65404878777121
 DFT Correlation      Energy =  -3.12764327050315
 DFT Exchange         Energy = -85.52246274856802
 One-Electron (alpha) Energy = -2109.82015563734376
 One-Electron (beta)  Energy = -2069.84486744517062
 Total Coulomb        Energy = 1376.04117538963874
    7   -2692.3114323981      1.88e-05  
 Alpha HF Exchange    Energy = -10.85162338633091
 Beta HF Exchange     Energy = -10.65414805717211
 DFT Correlation      Energy =  -3.12764791828832
 DFT Exchange         Energy = -85.52333537035575
 One-Electron (alpha) Energy = -2109.83474310623433
 One-Electron (beta)  Energy = -2069.85778030819210
 Total Coulomb        Energy = 1376.06978906130757
    8   -2692.3114356080      9.02e-06  
 Alpha HF Exchange    Energy = -10.85162655469186
 Beta HF Exchange     Energy = -10.65418880805686
 DFT Correlation      Energy =  -3.12764681794596
 DFT Exchange         Energy = -85.52348015207514
 One-Electron (alpha) Energy = -2109.83377739421576
 One-Electron (beta)  Energy = -2069.85723614005428
 Total Coulomb        Energy = 1376.06846594862509
    9   -2692.3114364411      2.21e-06  
 Alpha HF Exchange    Energy = -10.85161821504567
 Beta HF Exchange     Energy = -10.65418725946585
 DFT Correlation      Energy =  -3.12764097524909
 DFT Exchange         Energy = -85.52343061100615
 One-Electron (alpha) Energy = -2109.83278399436722
 One-Electron (beta)  Energy = -2069.85668596402911
 Total Coulomb        Energy = 1376.06685694668658
   10   -2692.3114365952      8.80e-07  Convergence criterion met
 ---------------------------------------
 SCF time:   CPU 28.39s  wall 2.00s 
<S^2> =          2.005240458
 Alpha HF Exchange    Energy = -10.85161821504567
 Beta HF Exchange     Energy = -10.65418725946585
 DFT Correlation      Energy =  -3.12764097524909
 DFT Exchange         Energy = -85.52343061100615
 One-Electron (alpha) Energy = -2109.83278399436722
 One-Electron (beta)  Energy = -2069.85668596402911
 Total Coulomb        Energy = 1376.06685694668658
 Nuclear repulsion Energy = 221.46805347731581
 SCF   energy in the final basis set =    -2692.3114365952
 Total energy in the final basis set =    -2692.3114365952
 
 --------------------------------------------------------------
 
                    Orbital Energies (a.u.)
 --------------------------------------------------------------
 
 Alpha MOs
 -- Occupied --
******* -62.549 -56.374 -56.366 -56.366 -10.178 -10.176 -10.175
 -8.737  -6.573  -6.552  -6.551  -2.664  -2.659  -2.659  -2.643
 -2.643  -0.799  -0.770  -0.686  -0.565  -0.446  -0.429  -0.405
 -0.385  -0.361  -0.349  -0.341  -0.320  -0.316  -0.160
 -- Virtual --
  0.098   0.130   0.142   0.173   0.178   0.180   0.188   0.204
  0.250   0.287   0.313   0.331   0.354   0.468   0.497   0.520
  0.524   0.527   0.556   0.559   0.570   0.686   0.724   0.731
  0.732   0.765   0.768   0.864   0.867   0.880   0.885   0.924
  0.941   0.950   1.056   1.301   1.311   1.354   1.372   1.537
  1.660   1.755   1.808   1.832   1.876   1.905   2.016   2.048
  2.052   2.083   2.113   2.122   2.132   2.264   2.283   2.373
  2.392   2.505   2.554   2.608   2.681   2.729   2.759   2.849
  2.860   2.910   2.955   3.161   3.204   3.356   3.424   3.445
  3.462   3.510   4.234   4.483   4.566   4.667   4.668   4.699
  4.714   4.834   6.242  90.228
 
 Beta MOs
 -- Occupied --
******* -62.548 -56.368 -56.365 -56.365 -10.177 -10.176 -10.164
 -8.733  -6.562  -6.549  -6.549  -2.656  -2.653  -2.652  -2.641
 -2.641  -0.765  -0.741  -0.684  -0.544  -0.441  -0.411  -0.398
 -0.377  -0.345  -0.336  -0.302  -0.298
 -- Virtual --
 -0.229  -0.015   0.101   0.134   0.146   0.181   0.185   0.187
  0.189   0.216   0.261   0.296   0.336   0.339   0.363   0.491
  0.501   0.530   0.541   0.553   0.594   0.598   0.602   0.702
  0.735   0.742   0.759   0.772   0.776   0.868   0.875   0.886
  0.889   0.929   0.946   0.954   1.072   1.310   1.332   1.361
  1.394   1.537   1.669   1.775   1.820   1.853   1.902   1.925
  2.041   2.052   2.057   2.087   2.116   2.127   2.141   2.278
  2.286   2.374   2.402   2.526   2.572   2.621   2.685   2.733
  2.764   2.855   2.865   2.917   2.960   3.165   3.209   3.363
  3.426   3.448   3.466   3.515   4.252   4.483   4.579   4.682
  4.683   4.714   4.718   4.844   6.259  90.235
 --------------------------------------------------------------
 
          Ground-State Mulliken Net Atomic Charges

     Atom                 Charge (a.u.)    Spin (a.u.)
  --------------------------------------------------------
      1 Br                    0.028642       1.041863
      2 C                    -0.097076       0.968900
      3 C                    -0.327900      -0.067828
      4 C                    -0.326247      -0.068277
      5 H                     0.088445      -0.040828
      6 H                     0.102628       0.008143
      7 H                     0.108842       0.056425
      8 H                     0.106320       0.018997
      9 H                     0.102133       0.008230
     10 H                     0.107806       0.055577
     11 H                     0.106406       0.018798
  --------------------------------------------------------
  Sum of atomic charges =     0.000000
  Sum of spin   charges =     2.000000

 -----------------------------------------------------------------
                    Cartesian Multipole Moments
 -----------------------------------------------------------------
    Charge (ESU x 10^10)
                -0.0000
    Dipole Moment (Debye)
         X      -0.3542      Y      -0.0002      Z       0.0202
       Tot       0.3548
    Quadrupole Moments (Debye-Ang)
        XX     -40.7378     XY       0.0932     YY     -36.7391
        XZ       0.3285     YZ       0.0688     ZZ     -39.2986
    Octopole Moments (Debye-Ang^2)
       XXX     -79.8241    XXY       0.3394    XYY     -18.9741
       YYY       0.0718    XXZ       2.2448    XYZ       0.1450
       YYZ       2.5119    XZZ     -24.8412    YZZ       0.0088
       ZZZ       6.3025
    Hexadecapole Moments (Debye-Ang^3)
      XXXX    -672.1630   XXXY       1.5413   XXYY    -135.6524
      XYYY       0.4077   YYYY    -222.9042   XXXZ      17.8670
      XXYZ       0.3168   XYYZ       4.8608   YYYZ       0.0427
      XXZZ    -126.8261   XYZZ       0.0890   YYZZ     -50.9144
      XZZZ      17.5615   YZZZ       0.0551   ZZZZ     -79.0919
 -----------------------------------------------------------------
 Calculating analytic gradient of the SCF energy
 Gradient of SCF Energy
            1           2           3           4           5           6
    1  -0.0230946   0.0209559   0.0005670   0.0009720   0.0006616  -0.0000255
    2   0.0001132  -0.0000938  -0.0002714   0.0000851  -0.0000134   0.0001329
    3   0.0055327  -0.0084876   0.0003059   0.0003379   0.0024679  -0.0000084
            7           8           9          10          11
    1  -0.0000077   0.0000639  -0.0000609  -0.0000604   0.0000286
    2   0.0000675   0.0000189  -0.0000071  -0.0000188  -0.0000130
    3  -0.0000738   0.0000418   0.0000222  -0.0000862  -0.0000525
 Max gradient component =       2.309E-02
 RMS gradient           =       5.730E-03
 Gradient time:  CPU 10.67 s  wall 0.92 s
 Geometry Optimization Parameters
   NAtoms,    NIC,     NZ,  NCons,   NDum,   NFix, NCnnct, MaxDiis
       11      75       0       1       0       0       0       0

 Cartesian Hessian Update
 Hessian Updated using BFGS Update


** CONSTRAINED OPTIMIZATION IN DELOCALIZED INTERNAL COORDINATES **
   Searching for a Minimum

   Optimization Cycle:   3

                       Coordinates (Angstroms)
     ATOM                X               Y               Z
      1  Br        2.1650822266   -0.0020391170   -0.1576966787
      2  C        -0.4538437095    0.0005035610    0.4989780751
      3  C        -0.8400758529   -1.2975183724   -0.1354153541
      4  C        -0.8411938555    1.2981190242   -0.1352801474
      5  H        -0.2899385211    0.0001822909    1.5783402692
      6  H        -0.3412917545   -2.1502525250    0.3395178583
      7  H        -1.9256112222   -1.4901129216   -0.0682113245
      8  H        -0.5927870339   -1.3134644749   -1.2056825263
      9  H        -0.3411476795    2.1513834088    0.3375932309
     10  H        -1.9265124816    1.4913529828   -0.0653781673
     11  H        -0.5962821160    1.3132451430   -1.2060622352
   Point Group: c1    Number of degrees of freedom:    27


   Energy is  -2692.311436595

              Constraints and their Current Values
                                        Value     Constraint
   Distance(Angs):        1   2             2.700000     2.700000
 Hessian Updated using BFGS Update

 23 Hessian modes will be used to form the next step
  Hessian Eigenvalues:
     0.044763    0.045000    0.052573    0.067030    0.081385    0.081415
     0.081923    0.081968    0.093456    0.123526    0.157198    0.160000
     0.160261    0.160700    0.316869    0.329027    0.331661    0.331765
     0.335684    0.338559    0.339720    0.341158    0.343329

 Minimum Search - Taking Simple RFO Step
 Searching for Lamda that Minimizes Along All modes
 Value Taken    Lamda =  -0.00004311
 Step Taken.  Stepsize is  0.020382

                             Maximum     Tolerance    Cnvgd?
         Gradient           0.001521      0.000300      NO
         Displacement       0.012497      0.001200      NO
         Energy change     -0.000074      0.000001      NO


 New Cartesian Coordinates Obtained by Inverse Iteration

 Displacement from previous Coordinates is:  0.027509
 ----------------------------------------------------------------
             Standard Nuclear Orientation (Angstroms)
    I     Atom           X                Y                Z
 ----------------------------------------------------------------
    1      Br      2.1707292728    -0.0042001462    -0.1516532094
    2      C      -0.4494212660     0.0008664035     0.5001034478
    3      C      -0.8400214079    -1.2957040282    -0.1357550555
    4      C      -0.8422617045     1.2968447724    -0.1356209233
    5      H      -0.2876457429     0.0008896082     1.5749793236
    6      H      -0.3431380320    -2.1510508279     0.3370465090
    7      H      -1.9259287133    -1.4856820057    -0.0667391477
    8      H      -0.5949131717    -1.3112125327    -1.2065794966
    9      H      -0.3436450317     2.1521999043     0.3351073678
   10      H      -1.9278631929     1.4869380817    -0.0634142617
   11      H      -0.5994930099     1.3115097706    -1.2067715540
 ----------------------------------------------------------------
 Nuclear Repulsion Energy =   221.3357463159 hartrees
 There are       31 alpha and       29 beta electrons

                       Distance Matrix (Angstroms)
             Br(  1)   C (  2)   C (  3)   C (  4)   H (  5)   H (  6)
   C (  2)  2.700000
   C (  3)  3.276104  1.495988
   C (  4)  3.281934  1.496004  2.592550
   H (  5)  3.004146  1.086982  2.216503  2.216586
   H (  6)  3.341755  2.160702  1.096382  3.515754  2.483225
   H (  7)  4.357133  2.170532  1.104559  2.986894  2.754833  1.763798
   H (  8)  3.235727  2.157657  1.098628  2.830211  3.090808  1.775247
   H (  9)  3.347996  2.160243  3.515131  1.096283  2.483657  4.303251
   H ( 10)  4.362309  2.170657  2.988600  1.104482  2.753722  3.988319
   H ( 11)  3.243224  2.157251  2.828868  1.098415  3.090811  3.799792
             H (  7)   H (  8)   H (  9)   H ( 10)
   H (  8)  1.761045
   H (  9)  3.987391  3.799363
   H ( 10)  2.972623  3.303518  1.763842
   H ( 11)  3.298998  2.622726  1.774714  1.761422
 
 Applying Cartesian multipole field
    Component          Value
    ---------          -----
     (2,0,0)        1.00000E-11
     (0,2,0)        2.00000E-11
     (0,0,2)       -3.00000E-11
 Nucleus-field energy     =     0.0000000083 hartrees
 Requested basis set is 6-31G(d,p)
 There are 41 shells and 115 basis functions
 A cutoff of  1.0D-14 yielded    818 shell pairs
 There are      6528 function pairs
 Smallest overlap matrix eigenvalue = 7.25E-04
 Guess from superposition of atomic densities
 Warning:  Energy on first SCF cycle will be non-variational
 SAD guess density has 59.972873 electrons

 -----------------------------------------------------------------------
  General SCF calculation program by
  Eric Jon Sundstrom, Paul Horn, Yuezhi Mao, Dmitri Zuev, Alec White,
  David Stuck, Shaama M.S., Shane Yost, Joonho Lee, David Small,
  Daniel Levine, Susi Lehtola, Hugh Burton, Evgeny Epifanovsky
 -----------------------------------------------------------------------
 Exchange:     0.2000 Hartree-Fock + 0.0800 Slater + 0.7200 B88
 Correlation:  0.1900 VWN1RPA + 0.8100 LYP
 Using SG-1 standard quadrature grid
 using 12 threads for integral computing
 -------------------------------------------------------
 OpenMP Integral computing Module                
 Release: version 1.0, May 2013, Q-Chem Inc. Pittsburgh 
 -------------------------------------------------------
 -------------------------------------------------------
 OpenMP BLAS3 based DFT computing Module                
 Release: version 1.0, May 2013, Q-Chem Inc. Pittsburgh 
 -------------------------------------------------------
 A unrestricted SCF calculation will be
 performed using DIIS
 SCF converges when DIIS error is below 1.0e-06
 Alpha HF Exchange    Energy = -10.72011771483335
 Beta HF Exchange     Energy = -10.72011771483335
 DFT Correlation      Energy =  -3.11347845914233
 DFT Exchange         Energy = -84.98729798404851
 One-Electron (alpha) Energy = -2087.94192492300454
 One-Electron (beta)  Energy = -2087.94192492300454
 Total Coulomb        Energy = 1368.38939496885428
 ---------------------------------------
  Cycle       Energy         DIIS error
 ---------------------------------------
    1   -2695.6997204258      1.64e-01  
 Alpha HF Exchange    Energy = -10.90152776800911
 Beta HF Exchange     Energy = -10.69716095766442
 DFT Correlation      Energy =  -3.14693636866020
 DFT Exchange         Energy = -85.91365831245412
 One-Electron (alpha) Energy = -2113.72604283423834
 One-Electron (beta)  Energy = -2073.49730205551123
 Total Coulomb        Energy = 1384.35855807996541
    2   -2692.1883238924      9.63e-03  
 Alpha HF Exchange    Energy = -10.80185681705245
 Beta HF Exchange     Energy = -10.60868057233823
 DFT Correlation      Energy =  -3.11010832518083
 DFT Exchange         Energy = -85.14213261311156
 One-Electron (alpha) Energy = -2105.51375170602523
 One-Electron (beta)  Energy = -2066.31958341467498
 Total Coulomb        Energy = 1367.99161427829267
    3   -2692.1687528459      4.66e-03  
 Alpha HF Exchange    Energy = -10.87732812073002
 Beta HF Exchange     Energy = -10.67550509040506
 DFT Correlation      Energy =  -3.13834071193159
 DFT Exchange         Energy = -85.71916731993959
 One-Electron (alpha) Energy = -2111.58553559772872
 One-Electron (beta)  Energy = -2071.29590365512604
 Total Coulomb        Energy = 1379.69973294309830
    4   -2692.2563012286      2.86e-03  
 Alpha HF Exchange    Energy = -10.85424665840811
 Beta HF Exchange     Energy = -10.65658815219940
 DFT Correlation      Energy =  -3.12808922100115
 DFT Exchange         Energy = -85.54314138058311
 One-Electron (alpha) Energy = -2109.96977101960283
 One-Electron (beta)  Energy = -2069.98060407405910
 Total Coulomb        Energy = 1376.48569822243962
    5   -2692.3109959592      3.53e-04  
 Alpha HF Exchange    Energy = -10.85185570738727
 Beta HF Exchange     Energy = -10.65409598413592
 DFT Correlation      Energy =  -3.12788553008947
 DFT Exchange         Energy = -85.52447899276294
 One-Electron (alpha) Energy = -2109.70268689380691
 One-Electron (beta)  Energy = -2069.71656422530850
 Total Coulomb        Energy = 1375.93039595060645
    6   -2692.3114250587      6.84e-05  
 Alpha HF Exchange    Energy = -10.85162884339820
 Beta HF Exchange     Energy = -10.65417046124873
 DFT Correlation      Energy =  -3.12766479363561
 DFT Exchange         Energy = -85.52339893998550
 One-Electron (alpha) Energy = -2109.68885811714699
 One-Electron (beta)  Energy = -2069.70991727226601
 Total Coulomb        Energy = 1375.90843182703225
    7   -2692.3114602764      1.88e-05  
 Alpha HF Exchange    Energy = -10.85176798208858
 Beta HF Exchange     Energy = -10.65427006941903
 DFT Correlation      Energy =  -3.12766936308270
 DFT Exchange         Energy = -85.52426857681353
 One-Electron (alpha) Energy = -2109.70331393803599
 One-Electron (beta)  Energy = -2069.72275726948192
 Total Coulomb        Energy = 1375.93683714846406
    8   -2692.3114637262      9.15e-06  
 Alpha HF Exchange    Energy = -10.85177062713476
 Beta HF Exchange     Energy = -10.65431088578682
 DFT Correlation      Energy =  -3.12766817891959
 DFT Exchange         Energy = -85.52441149393348
 One-Electron (alpha) Energy = -2109.70229322342402
 One-Electron (beta)  Energy = -2069.72221896569135
 Total Coulomb        Energy = 1375.93546226094645
    9   -2692.3114647897      2.53e-06  
 Alpha HF Exchange    Energy = -10.85176229858850
 Beta HF Exchange     Energy = -10.65430923094237
 DFT Correlation      Energy =  -3.12766235500223
 DFT Exchange         Energy = -85.52436185587592
 One-Electron (alpha) Energy = -2109.70130391099701
 One-Electron (beta)  Energy = -2069.72169822493652
 Total Coulomb        Energy = 1375.93388634771804
   10   -2692.3114652044      1.50e-06  
 Alpha HF Exchange    Energy = -10.85176077400195
 Beta HF Exchange     Energy = -10.65430917801037
 DFT Correlation      Energy =  -3.12766160733645
 DFT Exchange         Energy = -85.52435661833212
 One-Electron (alpha) Energy = -2109.70117004472922
 One-Electron (beta)  Energy = -2069.72182693515106
 Total Coulomb        Energy = 1375.93387325527624
   11   -2692.3114655781      1.44e-06  
 Alpha HF Exchange    Energy = -10.85176094408129
 Beta HF Exchange     Energy = -10.65430927738102
 DFT Correlation      Energy =  -3.12766162953395
 DFT Exchange         Energy = -85.52435848545724
 One-Electron (alpha) Energy = -2109.70119240205622
 One-Electron (beta)  Energy = -2069.72191254084146
 Total Coulomb        Energy = 1375.93398309831105
   12   -2692.3114658568      1.44e-06  
 Alpha HF Exchange    Energy = -10.85176090120427
 Beta HF Exchange     Energy = -10.65430914709954
 DFT Correlation      Energy =  -3.12766161072839
 DFT Exchange         Energy = -85.52435805108286
 One-Electron (alpha) Energy = -2109.70118019112806
 One-Electron (beta)  Energy = -2069.72191667585685
 Total Coulomb        Energy = 1375.93397426829551
   13   -2692.3114659846      1.44e-06  
 Alpha HF Exchange    Energy = -10.85176071931867
 Beta HF Exchange     Energy = -10.65431081876464
 DFT Correlation      Energy =  -3.12766175902712
 DFT Exchange         Energy = -85.52436153069002
 One-Electron (alpha) Energy = -2109.70119559016075
 One-Electron (beta)  Energy = -2069.72184894857037
 Total Coulomb        Energy = 1375.93392872977188
   14   -2692.3114643126      1.43e-06  
 Alpha HF Exchange    Energy = -10.85175868456930
 Beta HF Exchange     Energy = -10.65431671938524
 DFT Correlation      Energy =  -3.12766123276285
 DFT Exchange         Energy = -85.52437024549053
 One-Electron (alpha) Energy = -2109.70102120232605
 One-Electron (beta)  Energy = -2069.72194241841180
 Total Coulomb        Energy = 1375.93386469944357
   15   -2692.3114594793      1.45e-06  
 Alpha HF Exchange    Energy = -10.85175860345674
 Beta HF Exchange     Energy = -10.65431673640916
 DFT Correlation      Energy =  -3.12766130023467
 DFT Exchange         Energy = -85.52437005524024
 One-Electron (alpha) Energy = -2109.70101573030024
 One-Electron (beta)  Energy = -2069.72194026390707
 Total Coulomb        Energy = 1375.93385706890808
   16   -2692.3114592964      1.43e-06  
 Alpha HF Exchange    Energy = -10.85175889375208
 Beta HF Exchange     Energy = -10.65431702572443
 DFT Correlation      Energy =  -3.12766211713290
 DFT Exchange         Energy = -85.52437322342577
 One-Electron (alpha) Energy = -2109.70103939725368
 One-Electron (beta)  Energy = -2069.72187869803793
 Total Coulomb        Energy = 1375.93382567617482
   17   -2692.3114573549      1.28e-06  
 Alpha HF Exchange    Energy = -10.85175855929632
 Beta HF Exchange     Energy = -10.65431777995661
 DFT Correlation      Energy =  -3.12766187397187
 DFT Exchange         Energy = -85.52437413605489
 One-Electron (alpha) Energy = -2109.70104227832371
 One-Electron (beta)  Energy = -2069.72197482929960
 Total Coulomb        Energy = 1375.93392695474927
   18   -2692.3114561779      1.26e-06  
 Alpha HF Exchange    Energy = -10.85175973423491
 Beta HF Exchange     Energy = -10.65431108774347
 DFT Correlation      Energy =  -3.12766383067704
 DFT Exchange         Energy = -85.52435885708226
 One-Electron (alpha) Energy = -2109.70107001474025
 One-Electron (beta)  Energy = -2069.72121971855449
 Total Coulomb        Energy = 1375.93318064757727
   19   -2692.3114562712      1.83e-06  
 Alpha HF Exchange    Energy = -10.85176216216977
 Beta HF Exchange     Energy = -10.65431421374020
 DFT Correlation      Energy =  -3.12766355142513
 DFT Exchange         Energy = -85.52437904523140
 One-Electron (alpha) Energy = -2109.70142219748004
 One-Electron (beta)  Energy = -2069.72168930370026
 Total Coulomb        Energy = 1375.93402681874386
   20   -2692.3114573308      1.23e-06  
 Alpha HF Exchange    Energy = -10.85175887655003
 Beta HF Exchange     Energy = -10.65431711980647
 DFT Correlation      Energy =  -3.12766134633368
 DFT Exchange         Energy = -85.52437396458393
 One-Electron (alpha) Energy = -2109.70104896914336
 One-Electron (beta)  Energy = -2069.72200543103827
 Total Coulomb        Energy = 1375.93396112459914
   21   -2692.3114582586      1.20e-06  
 Alpha HF Exchange    Energy = -10.85175871489272
 Beta HF Exchange     Energy = -10.65431733958295
 DFT Correlation      Energy =  -3.12766114227865
 DFT Exchange         Energy = -85.52437387907351
 One-Electron (alpha) Energy = -2109.70103335995782
 One-Electron (beta)  Energy = -2069.72203830729586
 Total Coulomb        Energy = 1375.93397821182793
   22   -2692.3114582070      1.20e-06  
 Alpha HF Exchange    Energy = -10.85176054690109
 Beta HF Exchange     Energy = -10.65431918239113
 DFT Correlation      Energy =  -3.12766184350445
 DFT Exchange         Energy = -85.52438928373019
 One-Electron (alpha) Energy = -2109.70117790884387
 One-Electron (beta)  Energy = -2069.72227969485084
 Total Coulomb        Energy = 1375.93438391124710
   23   -2692.3114582248      1.50e-06  
 Alpha HF Exchange    Energy = -10.85175962155069
 Beta HF Exchange     Energy = -10.65431605505835
 DFT Correlation      Energy =  -3.12766129256115
 DFT Exchange         Energy = -85.52437377715552
 One-Electron (alpha) Energy = -2109.70113471559716
 One-Electron (beta)  Energy = -2069.72207992092763
 Total Coulomb        Energy = 1375.93412090252536
   24   -2692.3114581561      8.78e-07  Convergence criterion met
 ---------------------------------------
 SCF time:   CPU 66.79s  wall 5.00s 
<S^2> =          2.005217378
 Alpha HF Exchange    Energy = -10.85175962155069
 Beta HF Exchange     Energy = -10.65431605505835
 DFT Correlation      Energy =  -3.12766129256115
 DFT Exchange         Energy = -85.52437377715552
 One-Electron (alpha) Energy = -2109.70113471559716
 One-Electron (beta)  Energy = -2069.72207992092763
 Total Coulomb        Energy = 1375.93412090252536
 Nuclear repulsion Energy = 221.33574632420991
 SCF   energy in the final basis set =    -2692.3114581561
 Total energy in the final basis set =    -2692.3114581561
 
 --------------------------------------------------------------
 
                    Orbital Energies (a.u.)
 --------------------------------------------------------------
 
 Alpha MOs
 -- Occupied --
******* -62.549 -56.374 -56.366 -56.366 -10.178 -10.176 -10.175
 -8.737  -6.573  -6.552  -6.551  -2.664  -2.659  -2.659  -2.643
 -2.643  -0.799  -0.770  -0.686  -0.566  -0.446  -0.429  -0.404
 -0.385  -0.361  -0.349  -0.342  -0.320  -0.316  -0.160
 -- Virtual --
  0.098   0.131   0.142   0.173   0.178   0.181   0.188   0.204
  0.250   0.287   0.312   0.330   0.353   0.469   0.497   0.519
  0.524   0.526   0.556   0.559   0.570   0.685   0.723   0.731
  0.732   0.765   0.767   0.864   0.867   0.881   0.885   0.924
  0.942   0.951   1.056   1.302   1.311   1.355   1.371   1.538
  1.660   1.754   1.807   1.832   1.876   1.905   2.018   2.048
  2.052   2.083   2.113   2.121   2.134   2.263   2.284   2.372
  2.393   2.507   2.554   2.611   2.682   2.730   2.760   2.849
  2.861   2.910   2.956   3.161   3.204   3.360   3.424   3.447
  3.462   3.512   4.234   4.483   4.566   4.667   4.668   4.698
  4.714   4.834   6.242  90.227
 
 Beta MOs
 -- Occupied --
******* -62.548 -56.368 -56.365 -56.365 -10.177 -10.176 -10.164
 -8.733  -6.562  -6.549  -6.549  -2.656  -2.653  -2.653  -2.641
 -2.641  -0.765  -0.741  -0.683  -0.545  -0.441  -0.411  -0.398
 -0.376  -0.344  -0.336  -0.302  -0.298
 -- Virtual --
 -0.229  -0.015   0.101   0.134   0.146   0.181   0.185   0.187
  0.189   0.216   0.262   0.296   0.336   0.338   0.363   0.491
  0.502   0.530   0.541   0.553   0.594   0.598   0.602   0.702
  0.734   0.742   0.759   0.772   0.775   0.868   0.875   0.887
  0.890   0.929   0.947   0.954   1.071   1.311   1.331   1.361
  1.393   1.538   1.669   1.775   1.819   1.854   1.901   1.926
  2.043   2.052   2.057   2.087   2.116   2.126   2.142   2.277
  2.287   2.373   2.404   2.527   2.572   2.624   2.686   2.733
  2.765   2.856   2.866   2.918   2.961   3.165   3.210   3.367
  3.426   3.450   3.466   3.518   4.252   4.483   4.578   4.682
  4.683   4.713   4.718   4.844   6.259  90.234
 --------------------------------------------------------------
 
          Ground-State Mulliken Net Atomic Charges

     Atom                 Charge (a.u.)    Spin (a.u.)
  --------------------------------------------------------
      1 Br                    0.028953       1.042250
      2 C                    -0.097302       0.968372
      3 C                    -0.326160      -0.068163
      4 C                    -0.328118      -0.067663
      5 H                     0.089170      -0.040493
      6 H                     0.101912       0.008047
      7 H                     0.107523       0.055206
      8 H                     0.106253       0.018835
      9 H                     0.102266       0.008153
     10 H                     0.108989       0.056688
     11 H                     0.106515       0.018767
  --------------------------------------------------------
  Sum of atomic charges =    -0.000000
  Sum of spin   charges =     2.000000

 -----------------------------------------------------------------
                    Cartesian Multipole Moments
 -----------------------------------------------------------------
    Charge (ESU x 10^10)
                -0.0000
    Dipole Moment (Debye)
         X      -0.3524      Y      -0.0006      Z       0.0239
       Tot       0.3532
    Quadrupole Moments (Debye-Ang)
        XX     -40.7251     XY      -0.1221     YY     -36.7477
        XZ       0.3198     YZ      -0.0305     ZZ     -39.2880
    Octopole Moments (Debye-Ang^2)
       XXX     -80.1562    XXY      -0.3204    XYY     -19.0632
       YYY       0.1715    XXZ       2.1366    XYZ      -0.0521
       YYZ       2.4152    XZZ     -24.9662    YZZ       0.0716
       ZZZ       5.9879
    Hexadecapole Moments (Debye-Ang^3)
      XXXX    -674.8834   XXXY      -0.9839   XXYY    -135.9980
      XYYY       0.3582   YYYY    -222.5525   XXXZ      17.0499
      XXYZ      -0.1021   XYYZ       4.6411   YYYZ      -0.0758
      XXZZ    -127.2275   XYZZ       0.1720   YYZZ     -50.8153
      XZZZ      16.8060   YZZZ      -0.0884   ZZZZ     -78.7930
 -----------------------------------------------------------------
 Calculating analytic gradient of the SCF energy
 Gradient of SCF Energy
            1           2           3           4           5           6
    1  -0.0230214   0.0220114   0.0008448   0.0000441   0.0001253  -0.0000557
    2  -0.0001757   0.0002213   0.0001127   0.0001071  -0.0000213  -0.0000736
    3   0.0054942  -0.0047307   0.0000562  -0.0000998  -0.0005898   0.0001015
            7           8           9          10          11
    1  -0.0000436  -0.0000316   0.0000099   0.0000359   0.0000809
[...]
     0.001541    0.002817    0.011178    0.013568    0.044909    0.074822
     0.080417    0.081880    0.083509    0.091149    0.150973    0.159971
     0.161526    0.162666    0.166333    0.174827    0.219131    0.316008
     0.332321    0.335189    0.340938    0.343743    0.344857    0.366703
     0.411716    0.478973

 Minimum Search - Taking Simple RFO Step
 Searching for Lamda that Minimizes Along All modes
 Value Taken    Lamda =   0.00000000
 Step Taken.  Stepsize is  0.006324

                             Maximum     Tolerance    Cnvgd?
         Gradient           0.000044      0.000300     YES
         Displacement       0.003766      0.001200      NO
         Energy change     -0.000001      0.000001      NO


 New Cartesian Coordinates Obtained by Inverse Iteration

 Displacement from previous Coordinates is:  0.006426
 ----------------------------------------------------------------
             Standard Nuclear Orientation (Angstroms)
    I     Atom           X                Y                Z
 ----------------------------------------------------------------
    1      Br      2.1780571980     0.0054210438     1.2024748727
    2      C      -0.2906669439    -0.0002983605     0.1091452506
    3      C      -0.9011184397    -1.3139593434    -0.2340675282
    4      C      -0.8889556969     1.3119767532    -0.2597176042
    5      H       0.3018666930     0.0059867641     1.0688035026
    6      H      -0.2194499099    -2.1442101622    -0.0271953096
    7      H      -1.8343958236    -1.5037510672     0.3229198988
    8      H      -1.1602995374    -1.3415726113    -1.3008085597
    9      H      -0.1939283872     2.1382991121    -0.0832755240
   10      H      -1.8115818693     1.5280036658     0.3054019380
   11      H      -1.1631292832     1.3155032057    -1.3229779371
 ----------------------------------------------------------------
 Nuclear Repulsion Energy =   214.8680449390 hartrees
 There are       31 alpha and       29 beta electrons

                       Distance Matrix (Angstroms)
             Br(  1)   C (  2)   C (  3)   C (  4)   H (  5)   H (  6)
   C (  2)  2.700000
   C (  3)  3.644961  1.488674
   C (  4)  3.640283  1.488649  2.626090
   H (  5)  1.880946  1.127865  2.210634  2.211026
   H (  6)  3.446889  2.149423  1.093976  3.528106  2.469075
   H (  7)  4.376185  2.165449  1.103296  3.026821  2.720160  1.772236
   H (  8)  4.384683  2.131489  1.098123  2.863359  3.093365  1.775251
   H (  9)  3.439279  2.149415  3.527172  1.094077  2.473834  4.282952
   H ( 10)  4.363510  2.165042  3.032610  1.103298  2.714034  4.016299
   H ( 11)  4.388366  2.131549  2.858050  1.098047  3.095426  3.813030
             H (  7)   H (  8)   H (  9)   H ( 10)
   H (  8)  1.765560
   H (  9)  4.015054  3.811268
   H ( 10)  3.031891  3.352394  1.772099
   H ( 11)  3.332833  2.657170  1.775727  1.765579
 
 Applying Cartesian multipole field
    Component          Value
    ---------          -----
     (2,0,0)        1.00000E-11
     (0,2,0)        2.00000E-11
     (0,0,2)       -3.00000E-11
 Nucleus-field energy     =     0.0000000033 hartrees
 Requested basis set is 6-31G(d,p)
 There are 41 shells and 115 basis functions
 A cutoff of  1.0D-14 yielded    801 shell pairs
 There are      6346 function pairs
 Smallest overlap matrix eigenvalue = 7.25E-04
 Guess from superposition of atomic densities
 Warning:  Energy on first SCF cycle will be non-variational
 SAD guess density has 59.972873 electrons

 -----------------------------------------------------------------------
  General SCF calculation program by
  Eric Jon Sundstrom, Paul Horn, Yuezhi Mao, Dmitri Zuev, Alec White,
  David Stuck, Shaama M.S., Shane Yost, Joonho Lee, David Small,
  Daniel Levine, Susi Lehtola, Hugh Burton, Evgeny Epifanovsky
 -----------------------------------------------------------------------
 Exchange:     0.2000 Hartree-Fock + 0.0800 Slater + 0.7200 B88
 Correlation:  0.1900 VWN1RPA + 0.8100 LYP
 Using SG-1 standard quadrature grid
 using 12 threads for integral computing
 -------------------------------------------------------
 OpenMP Integral computing Module                
 Release: version 1.0, May 2013, Q-Chem Inc. Pittsburgh 
 -------------------------------------------------------
 -------------------------------------------------------
 OpenMP BLAS3 based DFT computing Module                
 Release: version 1.0, May 2013, Q-Chem Inc. Pittsburgh 
 -------------------------------------------------------
 A unrestricted SCF calculation will be
 performed using DIIS
 SCF converges when DIIS error is below 1.0e-06
 Alpha HF Exchange    Energy = -10.72815070953414
 Beta HF Exchange     Energy = -10.72815070953414
 DFT Correlation      Energy =  -3.11580085557531
 DFT Exchange         Energy = -85.00515264790243
 One-Electron (alpha) Energy = -2081.46955915580475
 One-Electron (beta)  Energy = -2081.46955915580475
 Total Coulomb        Energy = 1361.88206297823990
 ---------------------------------------
  Cycle       Energy         DIIS error
 ---------------------------------------
    1   -2695.7662653135      1.64e-01  
 Alpha HF Exchange    Energy = -10.90145499505441
 Beta HF Exchange     Energy = -10.68899461995834
 DFT Correlation      Energy =  -3.14881939453995
 DFT Exchange         Energy = -85.90320914079776
 One-Electron (alpha) Energy = -2106.45906587158561
 One-Electron (beta)  Energy = -2069.87183479235637
 Total Coulomb        Energy = 1379.89571550837218
    2   -2692.2096183636      9.56e-03  
 Alpha HF Exchange    Energy = -10.80309037688137
 Beta HF Exchange     Energy = -10.60099961178092
 DFT Correlation      Energy =  -3.11421695227793
 DFT Exchange         Energy = -85.13302452949836
 One-Electron (alpha) Energy = -2097.56852408926534
 One-Electron (beta)  Energy = -2060.35189436354040
 Total Coulomb        Energy = 1360.47336992688338
    3   -2692.2303350540      4.14e-03  
 Alpha HF Exchange    Energy = -10.87966292128027
 Beta HF Exchange     Energy = -10.67143120102283
 DFT Correlation      Energy =  -3.13842428744511
 DFT Exchange         Energy = -85.72321677774590
 One-Electron (alpha) Energy = -2104.51207659746933
 One-Electron (beta)  Energy = -2066.72684206611029
 Total Coulomb        Energy = 1374.49044313278273
    4   -2692.2931657759      2.39e-03  
 Alpha HF Exchange    Energy = -10.85521386384470
 Beta HF Exchange     Energy = -10.64791086895387
 DFT Correlation      Energy =  -3.13024998186963
 DFT Exchange         Energy = -85.52978920778692
 One-Electron (alpha) Energy = -2102.57833382517356
 One-Electron (beta)  Energy = -2064.93276480040777
 Total Coulomb        Energy = 1370.48540736231075
    5   -2692.3208102434      2.44e-04  
 Alpha HF Exchange    Energy = -10.85370291960704
 Beta HF Exchange     Energy = -10.64699914717809
 DFT Correlation      Energy =  -3.13003296351286
 DFT Exchange         Energy = -85.51982679166555
 One-Electron (alpha) Energy = -2102.33537837005542
 One-Electron (beta)  Energy = -2064.60706957402999
 Total Coulomb        Energy = 1369.90371799442005
    6   -2692.3212468293      7.60e-05  
 Alpha HF Exchange    Energy = -10.85341607194633
 Beta HF Exchange     Energy = -10.64688995944741
 DFT Correlation      Energy =  -3.12977096467406
 DFT Exchange         Energy = -85.51782578559421
 One-Electron (alpha) Energy = -2102.32391263428872
 One-Electron (beta)  Energy = -2064.59741057863403
 Total Coulomb        Energy = 1369.87989982932208
    7   -2692.3212812229      1.89e-05  
 Alpha HF Exchange    Energy = -10.85355262881804
 Beta HF Exchange     Energy = -10.64698659494979
 DFT Correlation      Energy =  -3.12978362659428
 DFT Exchange         Energy = -85.51866816919082
 One-Electron (alpha) Energy = -2102.34089147848226
 One-Electron (beta)  Energy = -2064.60277126747360
 Total Coulomb        Energy = 1369.90332472805130
    8   -2692.3212840951      1.18e-05  
 Alpha HF Exchange    Energy = -10.85355758636908
 Beta HF Exchange     Energy = -10.64703074924128
 DFT Correlation      Energy =  -3.12977711721035
 DFT Exchange         Energy = -85.51882606291784
 One-Electron (alpha) Energy = -2102.34407823542142
 One-Electron (beta)  Energy = -2064.60633947622182
 Total Coulomb        Energy = 1369.91027906220688
    9   -2692.3212852228      2.06e-06  
 Alpha HF Exchange    Energy = -10.85355758849373
 Beta HF Exchange     Energy = -10.64704235889099
 DFT Correlation      Energy =  -3.12977487767730
 DFT Exchange         Energy = -85.51885911671394
 One-Electron (alpha) Energy = -2102.34351320176984
 One-Electron (beta)  Energy = -2064.60533026027588
 Total Coulomb        Energy = 1369.90874717154497
   10   -2692.3212852899      4.39e-07  Convergence criterion met
 ---------------------------------------
 SCF time:   CPU 28.03s  wall 2.00s 
<S^2> =          2.006575604
 Alpha HF Exchange    Energy = -10.85355758849373
 Beta HF Exchange     Energy = -10.64704235889099
 DFT Correlation      Energy =  -3.12977487767730
 DFT Exchange         Energy = -85.51885911671394
 One-Electron (alpha) Energy = -2102.34351320176984
 One-Electron (beta)  Energy = -2064.60533026027588
 Total Coulomb        Energy = 1369.90874717154497
 Nuclear repulsion Energy = 214.86804494236947
 SCF   energy in the final basis set =    -2692.3212852899
 Total energy in the final basis set =    -2692.3212852899
 
 --------------------------------------------------------------
 
                    Orbital Energies (a.u.)
 --------------------------------------------------------------
 
 Alpha MOs
 -- Occupied --
******* -62.515 -56.338 -56.333 -56.332 -10.223 -10.197 -10.197
 -8.703  -6.537  -6.519  -6.519  -2.628  -2.624  -2.624  -2.611
 -2.611  -0.813  -0.765  -0.710  -0.599  -0.481  -0.448  -0.429
 -0.404  -0.393  -0.377  -0.299  -0.293  -0.284  -0.204
 -- Virtual --
  0.091   0.129   0.131   0.156   0.164   0.165   0.174   0.214
  0.235   0.268   0.322   0.341   0.345   0.474   0.478   0.510
  0.553   0.564   0.565   0.603   0.608   0.617   0.678   0.695
  0.723   0.770   0.785   0.842   0.844   0.853   0.863   0.909
  0.919   0.930   0.993   1.258   1.274   1.332   1.429   1.540
  1.651   1.713   1.792   1.807   1.852   1.872   1.976   2.028
  2.031   2.055   2.079   2.094   2.101   2.254   2.257   2.336
  2.355   2.474   2.540   2.615   2.637   2.700   2.708   2.827
  2.840   2.884   2.927   3.139   3.184   3.284   3.407   3.429
  3.435   3.454   4.160   4.465   4.536   4.717   4.719   4.737
  4.780   4.876   6.276  90.272
 
 Beta MOs
 -- Occupied --
******* -62.514 -56.334 -56.331 -56.331 -10.205 -10.198 -10.198
 -8.700  -6.528  -6.517  -6.517  -2.622  -2.619  -2.619  -2.610
 -2.610  -0.788  -0.733  -0.707  -0.565  -0.464  -0.428  -0.420
 -0.397  -0.371  -0.371  -0.283  -0.282
 -- Virtual --
 -0.176  -0.050   0.094   0.133   0.134   0.165   0.169   0.176
  0.184   0.230   0.250   0.279   0.338   0.345   0.357   0.483
  0.489   0.558   0.569   0.572   0.578   0.616   0.618   0.630
  0.709   0.726   0.727   0.786   0.805   0.850   0.851   0.867
  0.868   0.923   0.928   0.935   1.015   1.278   1.285   1.338
  1.464   1.542   1.663   1.727   1.814   1.830   1.878   1.901
  2.014   2.034   2.038   2.063   2.086   2.097   2.110   2.261
  2.269   2.341   2.365   2.496   2.559   2.635   2.646   2.706
  2.715   2.834   2.849   2.895   2.936   3.145   3.191   3.299
  3.410   3.438   3.441   3.460   4.187   4.466   4.550   4.721
  4.722   4.748   4.792   4.891   6.289  90.277
 --------------------------------------------------------------
 
          Ground-State Mulliken Net Atomic Charges

     Atom                 Charge (a.u.)    Spin (a.u.)
  --------------------------------------------------------
      1 Br                   -0.135896       0.787476
      2 C                    -0.063506       1.146989
      3 C                    -0.341160      -0.063889
      4 C                    -0.341100      -0.063937
      5 H                     0.111935      -0.019539
      6 H                     0.135690       0.012601
      7 H                     0.121588       0.063196
      8 H                     0.127541       0.030763
      9 H                     0.135938       0.013040
     10 H                     0.121699       0.063155
     11 H                     0.127271       0.030146
  --------------------------------------------------------
  Sum of atomic charges =    -0.000000
  Sum of spin   charges =     2.000000

 -----------------------------------------------------------------
                    Cartesian Multipole Moments
 -----------------------------------------------------------------
    Charge (ESU x 10^10)
                 0.0000
    Dipole Moment (Debye)
         X      -2.3365      Y      -0.0021      Z      -0.8326
       Tot       2.4804
    Quadrupole Moments (Debye-Ang)
        XX     -40.7231     XY       0.0026     YY     -38.0128
        XZ      -1.2312     YZ      -0.0183     ZZ     -40.1760
    Octopole Moments (Debye-Ang^2)
       XXX     -75.6200    XXY      -0.0868    XYY     -27.1522
       YYY      -0.2900    XXZ     -20.7341    XYZ      -0.0282
       YYZ     -20.5504    XZZ     -29.3741    YZZ      -0.1129
       ZZZ     -63.8221
    Hexadecapole Moments (Debye-Ang^3)
      XXXX    -636.6090   XXXY      -1.0954   XXYY    -151.2350
      XYYY      -1.1045   YYYY    -222.5106   XXXZ    -152.5870
      XXYZ       0.1508   XYYZ     -54.3331   YYYZ       0.3265
      XXZZ    -151.0281   XYZZ      -0.3820   YYZZ     -77.7805
      XZZZ    -161.4203   YZZZ       0.4667   ZZZZ    -236.0703
 -----------------------------------------------------------------
 Calculating analytic gradient of the SCF energy
 Gradient of SCF Energy
            1           2           3           4           5           6
    1  -0.0193967   0.0193909  -0.0000104   0.0000214  -0.0000189  -0.0000202
    2  -0.0000470   0.0000668  -0.0000101  -0.0000143  -0.0000303   0.0000130
    3  -0.0085991   0.0086270  -0.0000232  -0.0000451   0.0000253   0.0000068
            7           8           9          10          11
    1   0.0000017   0.0000284   0.0000113  -0.0000047  -0.0000029
    2   0.0000026  -0.0000009   0.0000131   0.0000115  -0.0000045
    3  -0.0000086   0.0000105   0.0000069   0.0000014  -0.0000019
 Max gradient component =       1.940E-02
 RMS gradient           =       5.224E-03
 Gradient time:  CPU 10.35 s  wall 0.89 s
 Geometry Optimization Parameters
   NAtoms,    NIC,     NZ,  NCons,   NDum,   NFix, NCnnct, MaxDiis
       11      75       0       1       0       0       0       0

 Cartesian Hessian Update
 Hessian Updated using BFGS Update


** CONSTRAINED OPTIMIZATION IN DELOCALIZED INTERNAL COORDINATES **
   Searching for a Minimum

   Optimization Cycle:  43

                       Coordinates (Angstroms)
     ATOM                X               Y               Z
      1  Br        2.1780571980    0.0054210438    1.2024748727
      2  C        -0.2906669439   -0.0002983605    0.1091452506
      3  C        -0.9011184397   -1.3139593434   -0.2340675282
      4  C        -0.8889556969    1.3119767532   -0.2597176042
      5  H         0.3018666930    0.0059867641    1.0688035026
      6  H        -0.2194499099   -2.1442101622   -0.0271953096
      7  H        -1.8343958236   -1.5037510672    0.3229198988
      8  H        -1.1602995374   -1.3415726113   -1.3008085597
      9  H        -0.1939283872    2.1382991121   -0.0832755240
     10  H        -1.8115818693    1.5280036658    0.3054019380
     11  H        -1.1631292832    1.3155032057   -1.3229779371
   Point Group: c1    Number of degrees of freedom:    27


   Energy is  -2692.321285290

              Constraints and their Current Values
                                        Value     Constraint
   Distance(Angs):        1   2             2.700000     2.700000
 Hessian Updated using BFGS Update

 26 Hessian modes will be used to form the next step
  Hessian Eigenvalues:
     0.001318    0.002708    0.006545    0.013632    0.043931    0.072648
     0.080101    0.081758    0.082578    0.091016    0.151211    0.159988
     0.161637    0.162673    0.166313    0.174576    0.219224    0.317009
     0.331955    0.335107    0.340969    0.343788    0.345486    0.365049
     0.422793    0.488885

 Minimum Search - Taking Simple RFO Step
 Searching for Lamda that Minimizes Along All modes
 Value Taken    Lamda =   0.00000000
 Step Taken.  Stepsize is  0.010173

                             Maximum     Tolerance    Cnvgd?
         Gradient           0.000034      0.000300     YES
         Displacement       0.006050      0.001200      NO
         Energy change     -0.000000      0.000001     YES


                       Distance Matrix (Angstroms)
             Br(  1)   C (  2)   C (  3)   C (  4)   H (  5)   H (  6)
   C (  2)  2.700000
   C (  3)  3.644961  1.488674
   C (  4)  3.640283  1.488649  2.626090
   H (  5)  1.880946  1.127865  2.210634  2.211026
   H (  6)  3.446889  2.149423  1.093976  3.528106  2.469075
   H (  7)  4.376185  2.165449  1.103296  3.026821  2.720160  1.772236
   H (  8)  4.384683  2.131489  1.098123  2.863359  3.093365  1.775251
   H (  9)  3.439279  2.149415  3.527172  1.094077  2.473834  4.282952
   H ( 10)  4.363510  2.165042  3.032610  1.103298  2.714034  4.016299
   H ( 11)  4.388366  2.131549  2.858050  1.098047  3.095426  3.813030
             H (  7)   H (  8)   H (  9)   H ( 10)
   H (  8)  1.765560
   H (  9)  4.015054  3.811268
   H ( 10)  3.031891  3.352394  1.772099
   H ( 11)  3.332833  2.657170  1.775727  1.765579
 
 Final energy is   -2692.32128528991     


 ******************************
 **  OPTIMIZATION CONVERGED  **
 ******************************

                       Coordinates (Angstroms)
     ATOM                X               Y               Z
      1  Br        2.1780571980    0.0054210438    1.2024748727
      2  C        -0.2906669439   -0.0002983605    0.1091452506
      3  C        -0.9011184397   -1.3139593434   -0.2340675282
      4  C        -0.8889556969    1.3119767532   -0.2597176042
      5  H         0.3018666930    0.0059867641    1.0688035026
      6  H        -0.2194499099   -2.1442101622   -0.0271953096
      7  H        -1.8343958236   -1.5037510672    0.3229198988
      8  H        -1.1602995374   -1.3415726113   -1.3008085597
      9  H        -0.1939283872    2.1382991121   -0.0832755240
     10  H        -1.8115818693    1.5280036658    0.3054019380
     11  H        -1.1631292832    1.3155032057   -1.3229779371

Z-matrix Print:
$molecule
0 3
Br
H  1 1.880946
C  2 1.127865 1 125.767396
C  3 1.488649 2 114.649076 1 -103.726383 0
H  4 1.094077 3 111.747236 2 41.762307 0
H  4 1.098047 3 110.066853 2 162.010174 0
H  4 1.103298 3 112.443515 2 -79.241834 0
C  3 1.488674 2 114.614683 1 104.259347 0
H  8 1.093976 3 111.752306 2 -40.884880 0
H  8 1.098123 3 110.055756 2 -161.077275 0
H  8 1.103296 3 112.475060 2 80.170499 0
$end

PES scan, value:    2.7000 energy: -2692.3212852899
------- Summary of potential scan: ------ 
    2.7000     -2692.3212852899
----------------------------------------- 
Archival summary:
1\1\hpc0242\JobtypUnspecified\ProcedureUnspecified\6-31G**\r137(3)\knomura\WedMar1315:26:372019WedMar1315:26:372019\0\\#,JobtypUnspecified,ProcedureUnspecified,6-31G**,\\0,3\Br\H,1,1.88095\C,2,1.12787,1,125.767\C,3,1.48865,2,114.649,1,-103.726,0\H,4,1.09408,3,111.747,2,41.7623,0\H,4,1.09805,3,110.067,2,162.01,0\H,4,1.1033,3,112.444,2,-79.2418,0\C,3,1.48867,2,114.615,1,104.259,0\H,8,1.09398,3,111.752,2,-40.8849,0\H,8,1.09812,3,110.056,2,-161.077,0\H,8,1.1033,3,112.475,2,80.1705,0\\\@

 Total job time:  214.70s(wall), 2511.80s(cpu) 
 Wed Mar 13 15:26:37 2019

        *************************************************************
        *                                                           *
        *  Thank you very much for using Q-Chem.  Have a nice day.  *
        *                                                           *
        *************************************************************


