
Running Job 1 of 1 halogens/Bromine/01/Br_2.xyz.data/inputs/bond_singlet_1.7.in
qchem halogens/Bromine/01/Br_2.xyz.data/inputs/bond_singlet_1.7.in_19420.0 /staging/scratch/2868759/qchem19420/ 1
/usr/usc/qchem/5.1.1/exe/qcprog.exe_s halogens/Bromine/01/Br_2.xyz.data/inputs/bond_singlet_1.7.in_19420.0 /staging/scratch/2868759/qchem19420/
Check license passed

                  Welcome to Q-Chem
     A Quantum Leap Into The Future Of Chemistry


 Q-Chem 5.1, Q-Chem, Inc., Pleasanton, CA (2018)

 Yihan Shao,  Zhengting Gan,  E. Epifanovsky,  A. T. B. Gilbert,  M. Wormit,  
 J. Kussmann,  A. W. Lange,  A. Behn,  Jia Deng,  Xintian Feng,  D. Ghosh,  
 M. Goldey,  P. R. Horn,  L. D. Jacobson,  I. Kaliman,  T. Kus,  A. Landau,  
 Jie Liu,  E. I. Proynov,  R. M. Richard,  R. P. Steele,  E. J. Sundstrom,  
 H. L. Woodcock III,  P. M. Zimmerman,  D. Zuev,  B. Albrecht,  E. Alguire,  
 S. A. Baeppler,  D. Barton,  Z. Benda,  Y. A. Bernard,  E. J. Berquist,  
 K. B. Bravaya,  H. Burton,  D. Casanova,  Chun-Min Chang,  Yunqing Chen,  
 A. Chien,  K. D. Closser,  M. P. Coons,  S. Coriani,  S. Dasgupta,  
 A. L. Dempwolff,  M. Diedenhofen,  Hainam Do,  R. G. Edgar,  Po-Tung Fang,  
 S. Faraji,  S. Fatehi,  Qingguo Feng,  K. D. Fenk,  J. Fosso-Tande,  
 Qinghui Ge,  A. Ghysels,  G. Gidofalvi,  J. Gomes,  J. Gonthier,  A. Gunina,  
 D. Hait,  M. W. D. Hanson-Heine,  P. H. P. Harbach,  A. W. Hauser,  
 J. E. Herr,  E. G. Hohenstein,  Z. C. Holden,  Kerwin Hui,  B. C. Huynh,  
 T.-C. Jagau,  Hyunjun Ji,  B. Kaduk,  K. Khistyaev,  Jaehoon Kim,  
 P. Klunzinger,  K. Koh,  D. Kosenkov,  L. Koulias,  T. Kowalczyk,  
 C. M. Krauter,  A. Kunitsa,  Ka Un Lao,  A. Laurent,  K. V. Lawler,  
 Joonho Lee,  D. Lefrancois,  S. Lehtola,  D. S. Levine,  Yi-Pei Li,  
 You-Sheng Lin,  Fenglai Liu,  E. Livshits,  A. Luenser,  P. Manohar,  
 E. Mansoor,  S. F. Manzer,  Shan-Ping Mao,  Yuezhi Mao,  N. Mardirossian,  
 A. V. Marenich,  T. Markovich,  L. A. Martinez-Martinez,  S. A. Maurer,  
 N. J. Mayhall,  S. C. McKenzie,  J.-M. Mewes,  A. F. Morrison,  
 J. W. Mullinax,  K. Nanda,  T. S. Nguyen-Beck,  R. Olivares-Amaya,  
 J. A. Parkhill,  T. M. Perrine,  F. Plasser,  P. Pokhilko,  S. Prager,  
 A. Prociuk,  E. Ramos,  D. R. Rehn,  F. Rob,  M. Schneider,  N. Sergueev,  
 S. M. Sharada,  S. Sharma,  D. W. Small,  T. Stauch,  T. Stein,  
 Yu-Chuan Su,  A. J. W. Thom,  A. Tkatchenko,  T. Tsuchimochi,  N. M. Tubman,  
 L. Vogt,  M. L. Vidal,  O. Vydrov,  M. A. Watson,  J. Wenzel,  
 M. de Wergifosse,  T. A. Wesolowski,  A. White,  J. Witte,  A. Yamada,  
 Jun Yang,  K. Yao,  S. Yeganeh,  S. R. Yost,  Zhi-Qiang You,  A. Zech,  
 Igor Ying Zhang,  Xing Zhang,  Yan Zhao,  Ying Zhu,  B. R. Brooks,  
 G. K. L. Chan,  C. J. Cramer,  M. S. Gordon,  W. J. Hehre,  A. Klamt,  
 M. W. Schmidt,  C. D. Sherrill,  D. G. Truhlar,  A. Aspuru-Guzik,  R. Baer,  
 A. T. Bell,  N. A. Besley,  Jeng-Da Chai,  A. E. DePrince, III,  
 R. A. DiStasio Jr.,  A. Dreuw,  B. D. Dunietz,  T. R. Furlani,  
 Chao-Ping Hsu,  Yousung Jung,  Jing Kong,  D. S. Lambrecht,  WanZhen Liang,  
 C. Ochsenfeld,  V. A. Rassolov,  L. V. Slipchenko,  J. E. Subotnik,  
 T. Van Voorhis,  J. M. Herbert,  A. I. Krylov,  P. M. W. Gill,  M. Head-Gordon

 Contributors to earlier versions of Q-Chem not listed above: 
 R. D. Adamson,  B. Austin,  J. Baker,  G. J. O. Beran,  K. Brandhorst,  
 S. T. Brown,  E. F. C. Byrd,  A. K. Chakraborty,  C.-L. Cheng,  
 Siu Hung Chien,  D. M. Chipman,  D. L. Crittenden,  H. Dachsel,  
 R. J. Doerksen,  A. D. Dutoi,  L. Fusti-Molnar,  W. A. Goddard III,  
 A. Golubeva-Zadorozhnaya,  S. R. Gwaltney,  G. Hawkins,  A. Heyden,  
 S. Hirata,  G. Kedziora,  F. J. Keil,  C. Kelley,  Jihan Kim,  R. A. King,  
 R. Z. Khaliullin,  P. P. Korambath,  W. Kurlancheek,  A. M. Lee,  M. S. Lee,  
 S. V. Levchenko,  Ching Yeh Lin,  D. Liotard,  R. C. Lochan,  I. Lotan,  
 P. E. Maslen,  N. Nair,  D. P. O'Neill,  D. Neuhauser,  E. Neuscamman,  
 C. M. Oana,  R. Olson,  B. Peters,  R. Peverati,  P. A. Pieniazek,  
 Y. M. Rhee,  J. Ritchie,  M. A. Rohrdanz,  E. Rosta,  N. J. Russ,  
 H. F. Schaefer III,  N. E. Schultz,  N. Shenvi,  A. C. Simmonett,  A. Sodt,  
 D. Stuck,  K. S. Thanthiriwatte,  V. Vanovschi,  Tao Wang,  A. Warshel,  
 C. F. Williams,  Q. Wu,  X. Xu,  W. Zhang

 Please cite Q-Chem as follows:
 Y. Shao et al., Mol. Phys. 113, 184-215 (2015)
 DOI: 10.1080/00268976.2014.952696

 Q-Chem 5.1.1 for Intel X86 EM64T Linux

 Parts of Q-Chem use Armadillo 8.300.2 (Tropical Shenanigans).
 http://arma.sourceforge.net/

 Q-Chem begins on Wed Mar 13 13:53:49 2019  

Host: 
0

     Scratch files written to /staging/scratch/2868759/qchem19420//
 Aug318 |scratch|qcdevops|jenkins|workspace|build_RNUM 6013   
Processing $rem in /usr/usc/qchem/5.1.1/config/preferences.
 MEM_TOTAL  2000 
Input Ideriv = 2
Curr. Ideriv = -1
Max.  Ideriv = 2

Checking the input file for inconsistencies... 	...done.

--------------------------------------------------------------
User input:
--------------------------------------------------------------

$comment
potential surface scanner
$end

$rem
JOBTYPE  PES_SCAN
UNRESTRICTED TRUE
SYM_IGNORE  TRUE
GEOM_OPT_MAX_CYCLES 400
SCF_MAX_CYCLES 400
METHOD   B3LYP
BASIS   6-31G**
PDB_PRINT 2
SCF_CONVERGENCE 6
THRESH 14
SCF_PRINT 1
$end
$molecule
0 1
Br 1.744600 -0.000400 -0.101000
C -0.148200 0.000100 0.395200
C -0.798600 -1.260800 -0.147100
C -0.797900 1.261200 -0.147100
H -0.168300 0.000100 1.489400
H -0.311900 -2.158700 0.249400
H -1.855400 -1.302200 0.136700
H -0.741600 -1.308000 -1.240400
H -0.310700 2.158800 0.249400
H -1.854800 1.303000 0.136600
H -0.740800 1.308300 -1.240400
$end
$scan
stre 1 2 1.700000 1.701000 0.100000
$end
--------------------------------------------------------------
 ----------------------------------------------------------------
             Standard Nuclear Orientation (Angstroms)
    I     Atom           X                Y                Z
 ----------------------------------------------------------------
    1      Br      1.7446000000    -0.0004000000    -0.1010000000
    2      C      -0.1482000000     0.0001000000     0.3952000000
    3      C      -0.7986000000    -1.2608000000    -0.1471000000
    4      C      -0.7979000000     1.2612000000    -0.1471000000
    5      H      -0.1683000000     0.0001000000     1.4894000000
    6      H      -0.3119000000    -2.1587000000     0.2494000000
    7      H      -1.8554000000    -1.3022000000     0.1367000000
    8      H      -0.7416000000    -1.3080000000    -1.2404000000
    9      H      -0.3107000000     2.1588000000     0.2494000000
   10      H      -1.8548000000     1.3030000000     0.1366000000
   11      H      -0.7408000000     1.3083000000    -1.2404000000
 ----------------------------------------------------------------
 Nuclear Repulsion Energy =   252.1812114881 hartrees
 There are       30 alpha and       30 beta electrons
 Requested basis set is 6-31G(d,p)
 There are 41 shells and 115 basis functions

 Total QAlloc Memory Limit   2000 MB
 Mega-Array Size       188 MB
 MEM_STATIC part       192 MB
A total of 1 constraints
  
            1
    1   1.0100000
    2   1.0100000
    3   2.0100000
    4   1.7000000
    5   1.7010000
    6   0.1000000
    7   0.0000000
    8   0.0000000
    9   0.0000000
   10   0.0000000

                       Distance Matrix (Angstroms)
             Br(  1)   C (  2)   C (  3)   C (  4)   H (  5)   H (  6)
   C (  2)  1.956759
   C (  3)  2.838767  1.518874
   C (  4)  2.838673  1.518740  2.522000
   H (  5)  2.487681  1.094385  2.159926  2.159838
   H (  6)  3.001705  2.169902  1.095588  3.476942  2.493720
   H (  7)  3.835516  2.162716  1.095026  2.787448  2.524300  1.768809
   H (  8)  3.031376  2.176795  1.095802  2.792716  3.080845  1.768569
   H (  9)  3.001530  2.169712  3.476913  1.095565  2.493564  4.317500
   H ( 10)  3.835490  2.162616  2.787313  1.095112  2.524262  3.791653
   H ( 11)  3.031195  2.176637  2.792655  1.095803  3.080739  3.797835
             H (  7)   H (  8)   H (  9)   H ( 10)
   H (  8)  1.771155
   H (  9)  3.791744  3.797878
   H ( 10)  2.605200  3.154784  1.769000
   H ( 11)  3.154909  2.616300  1.768570  1.771201
 
 A cutoff of  1.0D-14 yielded    839 shell pairs
 There are      6672 function pairs
 
 -------------------------------------------------------
 OpenMP Integral Computing Module                       
 Release: version 1.0, May 2013, Q-Chem Inc. Pittsburgh 
 -------------------------------------------------------
 Integral Job Info:
 Integral job number is                      11
 Integral operator is                         1
 short-range coefficients                     0
 long-range coefficients              100000000
 Omega coefficients                           0
 if combine SR and LR in K                    0
 Integral screening is                        0
 Integral computing path is                   2
 max size of driver memory is            800000
 size of driver memory is                593474
 size of scratch memory is             15267112
 max col of scratch BK array               1296
 max len of scratch array in speh3          155
 max len of scratch index in speh4           18
 max int batch size is                      520
 min int batch size is                       52
 fixed nKL is                                52
 max L of basis functions is                  2
 order of int derivative is                   0
 number of shells is                         41
 number of basis is                         115
 number of cartesian basis is               115
 number of contracted shell pairs           839
 number of primitive shell pairs           3310
 maxK2 (contraction) of shell pair           36
 max number of K2 of shell pair               1
 max number of CS2 of shell pair             59
 max number of PS2 of shell pair            258
 mem total for path MDJ                  519708
 -------------------------------------------------------
 Smallest overlap matrix eigenvalue = 7.22E-04

 Scale SEOQF with 1.000000e-01/1.000000e-01/1.000000e+00

 Standard Electronic Orientation quadrupole field applied
 Nucleus-field energy     =    -0.0000000006 hartrees
 Guess from superposition of atomic densities
 Warning:  Energy on first SCF cycle will be non-variational
 SAD guess density has 59.972873 electrons

 -----------------------------------------------------------------------
  General SCF calculation program by
  Eric Jon Sundstrom, Paul Horn, Yuezhi Mao, Dmitri Zuev, Alec White,
  David Stuck, Shaama M.S., Shane Yost, Joonho Lee, David Small,
  Daniel Levine, Susi Lehtola, Hugh Burton, Evgeny Epifanovsky
 -----------------------------------------------------------------------
 Exchange:     0.2000 Hartree-Fock + 0.0800 Slater + 0.7200 B88
 Correlation:  0.1900 VWN1RPA + 0.8100 LYP
 Using SG-1 standard quadrature grid
 using 12 threads for integral computing
 -------------------------------------------------------
 OpenMP Integral computing Module                
 Release: version 1.0, May 2013, Q-Chem Inc. Pittsburgh 
 -------------------------------------------------------
 -------------------------------------------------------
 OpenMP BLAS3 based DFT computing Module                
 Release: version 1.0, May 2013, Q-Chem Inc. Pittsburgh 
 -------------------------------------------------------
 A unrestricted SCF calculation will be
 performed using DIIS
 SCF converges when DIIS error is below 1.0e-06
 Alpha HF Exchange    Energy = -10.75097265732193
 Beta HF Exchange     Energy = -10.75097265732193
 DFT Correlation      Energy =  -3.12615926206087
 DFT Exchange         Energy = -85.04595682843151
 One-Electron (alpha) Energy = -2118.72366905046783
 One-Electron (beta)  Energy = -2118.72366905046783
 Total Coulomb        Energy = 1398.91506438211536
 ---------------------------------------
  Cycle       Energy         DIIS error
 ---------------------------------------
    1   -2696.0251236365      1.65e-01  
 Alpha HF Exchange    Energy = -10.80442937894175
 Beta HF Exchange     Energy = -10.80442937894177
 DFT Correlation      Energy =  -3.16653617145190
 DFT Exchange         Energy = -85.95302916447753
 One-Electron (alpha) Energy = -2125.69208208845203
 One-Electron (beta)  Energy = -2125.69208208845475
 Total Coulomb        Energy = 1417.60655442707321
    2   -2692.3248223561      9.61e-03  
 Alpha HF Exchange    Energy = -10.70604342901735
 Beta HF Exchange     Energy = -10.70604342901734
 DFT Correlation      Energy =  -3.13306289754603
 DFT Exchange         Energy = -85.15593574017339
 One-Electron (alpha) Energy = -2116.22405272851802
 One-Electron (beta)  Energy = -2116.22405272851620
 Total Coulomb        Energy = 1397.63764592302959
    3   -2692.3303335423      4.43e-03  
 Alpha HF Exchange    Energy = -10.77978604256956
 Beta HF Exchange     Energy = -10.77978604256956
 DFT Correlation      Energy =  -3.15868759512005
 DFT Exchange         Energy = -85.75060213077838
 One-Electron (alpha) Energy = -2123.21669019985575
 One-Electron (beta)  Energy = -2123.21669019985666
 Total Coulomb        Energy = 1412.31758789522769
    4   -2692.4034428280      2.55e-03  
 Alpha HF Exchange    Energy = -10.75593205566235
 Beta HF Exchange     Energy = -10.75593205566235
 DFT Correlation      Energy =  -3.14993135281181
 DFT Exchange         Energy = -85.55667999146570
 One-Electron (alpha) Energy = -2121.23189884915291
 One-Electron (beta)  Energy = -2121.23189884915428
 Total Coulomb        Energy = 1408.06362854245640
    5   -2692.4374331240      3.41e-04  
 Alpha HF Exchange    Energy = -10.75458251025164
 Beta HF Exchange     Energy = -10.75458251025164
 DFT Correlation      Energy =  -3.15006640343950
 DFT Exchange         Energy = -85.54742290823900
 One-Electron (alpha) Energy = -2120.99221693759046
 One-Electron (beta)  Energy = -2120.99221693759182
 Total Coulomb        Energy = 1407.57172596189776
    6   -2692.4381507580      8.13e-05  
 Alpha HF Exchange    Energy = -10.75417733084759
 Beta HF Exchange     Energy = -10.75417733084759
 DFT Correlation      Energy =  -3.14981152008730
 DFT Exchange         Energy = -85.54382841738267
 One-Electron (alpha) Energy = -2120.95287831560063
 One-Electron (beta)  Energy = -2120.95287831560017
 Total Coulomb        Energy = 1407.48834861743626
    7   -2692.4381911254      2.16e-05  
 Alpha HF Exchange    Energy = -10.75423896396749
 Beta HF Exchange     Energy = -10.75423896396749
 DFT Correlation      Energy =  -3.14982421038273
 DFT Exchange         Energy = -85.54434434544672
 One-Electron (alpha) Energy = -2120.96405425378362
 One-Electron (beta)  Energy = -2120.96405425378225
 Total Coulomb        Energy = 1407.51134968012366
    8   -2692.4381938237      5.43e-06  
 Alpha HF Exchange    Energy = -10.75424372208295
 Beta HF Exchange     Energy = -10.75424372208296
 DFT Correlation      Energy =  -3.14982721444929
 DFT Exchange         Energy = -85.54437942749956
 One-Electron (alpha) Energy = -2120.96475546347801
 One-Electron (beta)  Energy = -2120.96475546347892
 Total Coulomb        Energy = 1407.51279950315006
    9   -2692.4381940224      5.80e-07  Convergence criterion met
 ---------------------------------------
 SCF time:   CPU 26.90s  wall 3.00s 
<S^2> =         -0.000000000
 Alpha HF Exchange    Energy = -10.75424372208295
 Beta HF Exchange     Energy = -10.75424372208296
 DFT Correlation      Energy =  -3.14982721444929
 DFT Exchange         Energy = -85.54437942749956
 One-Electron (alpha) Energy = -2120.96475546347801
 One-Electron (beta)  Energy = -2120.96475546347892
 Total Coulomb        Energy = 1407.51279950315006
 Nuclear repulsion Energy = 252.18121148749793
 SCF   energy in the final basis set =    -2692.4381940224
 Total energy in the final basis set =    -2692.4381940224
 
 --------------------------------------------------------------
 
                    Orbital Energies (a.u.)
 --------------------------------------------------------------
 
 Alpha MOs
 -- Occupied --
******* -62.502 -56.323 -56.320 -56.320 -10.250 -10.191 -10.191
 -8.689  -6.519  -6.507  -6.507  -2.613  -2.609  -2.609  -2.600
 -2.599  -0.835  -0.736  -0.701  -0.586  -0.474  -0.450  -0.428
 -0.399  -0.367  -0.360  -0.343  -0.273  -0.272
 -- Virtual --
  0.003   0.086   0.128   0.142   0.147   0.166   0.176   0.181
  0.195   0.230   0.248   0.347   0.359   0.367   0.463   0.478
  0.489   0.513   0.563   0.610   0.613   0.680   0.693   0.706
  0.753   0.806   0.810   0.838   0.862   0.867   0.896   0.903
  0.920   0.949   0.960   1.088   1.314   1.361   1.378   1.529
  1.542   1.694   1.768   1.814   1.831   1.855   1.910   2.033
  2.037   2.058   2.068   2.092   2.105   2.113   2.255   2.302
  2.336   2.375   2.500   2.553   2.612   2.661   2.703   2.725
  2.855   2.858   2.889   2.895   3.159   3.208   3.310   3.408
  3.444   3.460   3.489   4.252   4.463   4.578   4.747   4.756
  4.835   4.842   4.990   6.315  90.400
 
 Beta MOs
 -- Occupied --
******* -62.502 -56.323 -56.320 -56.320 -10.250 -10.191 -10.191
 -8.689  -6.519  -6.507  -6.507  -2.613  -2.609  -2.609  -2.600
 -2.599  -0.835  -0.736  -0.701  -0.586  -0.474  -0.450  -0.428
 -0.399  -0.367  -0.360  -0.343  -0.273  -0.272
 -- Virtual --
  0.003   0.086   0.128   0.142   0.147   0.166   0.176   0.181
  0.195   0.230   0.248   0.347   0.359   0.367   0.463   0.478
  0.489   0.513   0.563   0.610   0.613   0.680   0.693   0.706
  0.753   0.806   0.810   0.838   0.862   0.867   0.896   0.903
  0.920   0.949   0.960   1.088   1.314   1.361   1.378   1.529
  1.542   1.694   1.768   1.814   1.831   1.855   1.910   2.033
  2.037   2.058   2.068   2.092   2.105   2.113   2.255   2.302
  2.336   2.375   2.500   2.553   2.612   2.661   2.703   2.725
  2.855   2.858   2.889   2.895   3.159   3.208   3.310   3.408
  3.444   3.460   3.489   4.252   4.463   4.578   4.747   4.756
  4.835   4.842   4.990   6.315  90.400
 --------------------------------------------------------------
 
          Ground-State Mulliken Net Atomic Charges

     Atom                 Charge (a.u.)    Spin (a.u.)
  --------------------------------------------------------
      1 Br                   -0.123239      -0.000000
      2 C                    -0.128684       0.000000
      3 C                    -0.308133      -0.000000
      4 C                    -0.308106       0.000000
      5 H                     0.144090      -0.000000
      6 H                     0.125310      -0.000000
      7 H                     0.110518      -0.000000
      8 H                     0.126209       0.000000
      9 H                     0.125317      -0.000000
     10 H                     0.110506       0.000000
     11 H                     0.126212      -0.000000
  --------------------------------------------------------
  Sum of atomic charges =    -0.000000
  Sum of spin   charges =    -0.000000

 -----------------------------------------------------------------
                    Cartesian Multipole Moments
 -----------------------------------------------------------------
    Charge (ESU x 10^10)
                 0.0000
    Dipole Moment (Debye)
         X      -2.2366      Y       0.0005      Z       0.4187
       Tot       2.2754
    Quadrupole Moments (Debye-Ang)
        XX     -40.6097     XY       0.0009     YY     -38.3227
        XZ      -0.2793     YZ       0.0001     ZZ     -38.2969
    Octopole Moments (Debye-Ang^2)
       XXX     -57.4612    XXY       0.0029    XYY     -20.1447
       YYY       0.0115    XXZ       0.3470    XYZ       0.0005
       YYZ       2.0873    XZZ     -20.0932    YZZ       0.0041
       ZZZ       5.2784
    Hexadecapole Moments (Debye-Ang^3)
      XXXX    -436.8132   XXXY       0.0171   XXYY    -114.9827
      XYYY       0.0305   YYYY    -209.6289   XXXZ      -3.3070
      XXYZ       0.0015   XYYZ       2.0649   YYYZ      -0.0017
      XXZZ     -90.9239   XYZZ       0.0090   YYZZ     -48.0150
      XZZZ       5.8137   YZZZ      -0.0013   ZZZZ     -70.2800
 -----------------------------------------------------------------
 Calculating analytic gradient of the SCF energy
 Gradient of SCF Energy
            1           2           3           4           5           6
    1  -0.0126220   0.0147767  -0.0014239  -0.0013551  -0.0023904   0.0008662
    2   0.0000023   0.0000585   0.0089459  -0.0089621   0.0000017  -0.0008568
    3   0.0002279   0.0011113   0.0000374   0.0000585   0.0017198   0.0005947
            7           8           9          10          11
    1   0.0010020  -0.0003424   0.0008798   0.0009472  -0.0003383
    2  -0.0017939  -0.0016005   0.0008351   0.0017771   0.0015926
    3  -0.0010597  -0.0011149   0.0005900  -0.0010507  -0.0011141
 Max gradient component =       1.478E-02
 RMS gradient           =       4.170E-03
 Gradient time:  CPU 11.26 s  wall 0.98 s
 Geometry Optimization Parameters
   NAtoms,    NIC,     NZ,  NCons,   NDum,   NFix, NCnnct, MaxDiis
       11      68       0       1       0       0       0       0


** CONSTRAINED OPTIMIZATION IN DELOCALIZED INTERNAL COORDINATES **
   Searching for a Minimum

   Optimization Cycle:   1

                       Coordinates (Angstroms)
     ATOM                X               Y               Z
      1  Br        1.7446000000   -0.0004000000   -0.1010000000
      2  C        -0.1482000000    0.0001000000    0.3952000000
      3  C        -0.7986000000   -1.2608000000   -0.1471000000
      4  C        -0.7979000000    1.2612000000   -0.1471000000
      5  H        -0.1683000000    0.0001000000    1.4894000000
      6  H        -0.3119000000   -2.1587000000    0.2494000000
      7  H        -1.8554000000   -1.3022000000    0.1367000000
      8  H        -0.7416000000   -1.3080000000   -1.2404000000
      9  H        -0.3107000000    2.1588000000    0.2494000000
     10  H        -1.8548000000    1.3030000000    0.1366000000
     11  H        -0.7408000000    1.3083000000   -1.2404000000
   Point Group: c1    Number of degrees of freedom:    27


   Energy is  -2692.438194022

              Constraints and their Current Values
                                        Value     Constraint
   Distance(Angs):        1   2             1.956759     1.700000

 Attempting to Generate Delocalized Internal Coordinates
**WARNING** Constraint Gradient Reduced for constraint   1

   Using Lagrange Multiplier Algorithm


 28 Hessian modes will be used to form the next step
  Hessian Eigenvalues:
    -0.919359    0.045000    0.045000    0.073955    0.082338    0.082345
     0.082514    0.083104    0.083107    0.112642    0.160000    0.160000
     0.160000    0.160000    0.160000    0.160000    0.178856    0.231596
     0.304753    0.304882    0.341506    0.341507    0.341748    0.341774
     0.342285    0.342382    0.343108    1.087715

 Minimum Search - Taking P-RFO Step
 Searching for Lamda that Maximizes Along the Constraint modes Only
 Value Taken    Lamda =   0.05395526


 ********************************************
 ** ERROR IN DETERMINING Lamda IN CONFormD **
 ********************************************


 ** Scaling Hessian by  2.398011 **


 28 Hessian modes will be used to form the next step
  Hessian Eigenvalues:
    -0.818310    0.107911    0.107911    0.177345    0.197448    0.197464
     0.197868    0.199284    0.199293    0.270116    0.383682    0.383682
     0.383682    0.383682    0.383682    0.383682    0.428898    0.555371
     0.730801    0.731111    0.818935    0.818937    0.819514    0.819578
     0.820803    0.821036    0.822777    1.222030

 Minimum Search - Taking P-RFO Step
 Searching for Lamda that Maximizes Along the Constraint modes Only
 Value Taken    Lamda =   0.06516996
 Searching for Lamda that Minimizes Along All other modes
 Value Taken    Lamda =  -0.02637199
 Step Taken.  Stepsize is  0.285490

                             Maximum     Tolerance    Cnvgd?
         Gradient            0.300000       0.000300      NO
         Displacement        0.283887       0.001200      NO
         Energy change     *********       0.000001      NO


 New Cartesian Coordinates Obtained by Inverse Iteration

 Displacement from previous Coordinates is:  0.267721
 ----------------------------------------------------------------
             Standard Nuclear Orientation (Angstroms)
    I     Atom           X                Y                Z
 ----------------------------------------------------------------
    1      Br      1.6150548354    -0.0003940430    -0.0710151718
    2      C      -0.1330203995     0.0000697123     0.3848273946
    3      C      -0.7859863884    -1.2655759423    -0.1499146639
    4      C      -0.7852992312     1.2659665351    -0.1499255797
    5      H      -0.1449410436     0.0000617366     1.4780406389
    6      H      -0.2994683430    -2.1635342444     0.2444220384
    7      H      -1.8413606666    -1.2997040959     0.1428601034
    8      H      -0.7351503361    -1.3107626434    -1.2428689424
    9      H      -0.2983110669     2.1636524076     0.2444094206
   10      H      -1.8407409970     1.3005353994     0.1427451450
   11      H      -0.7343763631     1.3110851780    -1.2428803831
 ----------------------------------------------------------------
 Nuclear Repulsion Energy =   262.0143513101 hartrees
 There are       30 alpha and       30 beta electrons

                       Distance Matrix (Angstroms)
             Br(  1)   C (  2)   C (  3)   C (  4)   H (  5)   H (  6)
   C (  2)  1.806533
   C (  3)  2.715126  1.521240
   C (  4)  2.715068  1.521159  2.531543
   H (  5)  2.344602  1.093278  2.159402  2.159363
   H (  6)  2.905869  2.174535  1.094774  3.486118  2.495364
   H (  7)  3.698751  2.160182  1.095763  2.789920  2.519908  1.770296
   H (  8)  2.934923  2.174911  1.095069  2.799388  3.077329  1.768919
   H (  9)  2.905780  2.174426  3.486105  1.094759  2.495294  4.327187
   H ( 10)  3.698734  2.160121  2.789818  1.095814  2.519917  3.792840
   H ( 11)  2.934804  2.174816  2.799361  1.095070  3.077276  3.804496
             H (  7)   H (  8)   H (  9)   H ( 10)
   H (  8)  1.773152
   H (  9)  3.792908  3.804522
   H ( 10)  2.600240  3.156127  1.770423
   H ( 11)  3.156250  2.621848  1.768913  1.773164
 
 Applying Cartesian multipole field
    Component          Value
    ---------          -----
     (2,0,0)        1.00000E-11
     (0,2,0)        2.00000E-11
     (0,0,2)       -3.00000E-10
 Nucleus-field energy     =    -0.0000000009 hartrees
 Requested basis set is 6-31G(d,p)
 There are 41 shells and 115 basis functions
 A cutoff of  1.0D-14 yielded    844 shell pairs
 There are      6736 function pairs
 Smallest overlap matrix eigenvalue = 7.22E-04
 Guess from superposition of atomic densities
 Warning:  Energy on first SCF cycle will be non-variational
 SAD guess density has 59.972873 electrons

 -----------------------------------------------------------------------
  General SCF calculation program by
  Eric Jon Sundstrom, Paul Horn, Yuezhi Mao, Dmitri Zuev, Alec White,
  David Stuck, Shaama M.S., Shane Yost, Joonho Lee, David Small,
  Daniel Levine, Susi Lehtola, Hugh Burton, Evgeny Epifanovsky
 -----------------------------------------------------------------------
 Exchange:     0.2000 Hartree-Fock + 0.0800 Slater + 0.7200 B88
 Correlation:  0.1900 VWN1RPA + 0.8100 LYP
 Using SG-1 standard quadrature grid
 using 12 threads for integral computing
 -------------------------------------------------------
 OpenMP Integral computing Module                
 Release: version 1.0, May 2013, Q-Chem Inc. Pittsburgh 
 -------------------------------------------------------
 -------------------------------------------------------
 OpenMP BLAS3 based DFT computing Module                
 Release: version 1.0, May 2013, Q-Chem Inc. Pittsburgh 
 -------------------------------------------------------
 A unrestricted SCF calculation will be
 performed using DIIS
 SCF converges when DIIS error is below 1.0e-06
 Alpha HF Exchange    Energy = -10.76685358733740
 Beta HF Exchange     Energy = -10.76685358733740
 DFT Correlation      Energy =  -3.13050689522951
 DFT Exchange         Energy = -85.07758272803422
 One-Electron (alpha) Energy = -2128.49219578298880
 One-Electron (beta)  Energy = -2128.49219578298880
 Total Coulomb        Energy = 1408.50755333929078
 ---------------------------------------
  Cycle       Energy         DIIS error
 ---------------------------------------
    1   -2696.2042837154      1.66e-01  
 Alpha HF Exchange    Energy = -10.81033495607149
 Beta HF Exchange     Energy = -10.81033495607149
 DFT Correlation      Energy =  -3.17125186867467
 DFT Exchange         Energy = -85.99488304197027
 One-Electron (alpha) Energy = -2135.40747438256676
 One-Electron (beta)  Energy = -2135.40747438256676
 Total Coulomb        Energy = 1427.27595708642275
    2   -2692.3114451923      9.62e-03  
 Alpha HF Exchange    Energy = -10.71144528992144
 Beta HF Exchange     Energy = -10.71144528992145
 DFT Correlation      Energy =  -3.13665788090116
 DFT Exchange         Energy = -85.19067251156298
 One-Electron (alpha) Energy = -2125.97539986186484
 One-Electron (beta)  Energy = -2125.97539986186484
 Total Coulomb        Energy = 1407.37687714932758
    3   -2692.3097922375      4.49e-03  
 Alpha HF Exchange    Energy = -10.78602731626982
 Beta HF Exchange     Energy = -10.78602731626981
 DFT Correlation      Energy =  -3.16401636956457
 DFT Exchange         Energy = -85.79616839636324
 One-Electron (alpha) Energy = -2132.98774859981904
 One-Electron (beta)  Energy = -2132.98774859981768
 Total Coulomb        Energy = 1422.11138198366143
    4   -2692.3820033052      2.71e-03  
 Alpha HF Exchange    Energy = -10.76208997187002
 Beta HF Exchange     Energy = -10.76208997187004
 DFT Correlation      Energy =  -3.15421402712958
 DFT Exchange         Energy = -85.59890401775297
 One-Electron (alpha) Energy = -2130.99216846616901
 One-Electron (beta)  Energy = -2130.99216846616946
 Total Coulomb        Energy = 1417.82362929749252
    5   -2692.4236543142      5.28e-04  
 Alpha HF Exchange    Energy = -10.76044254263434
 Beta HF Exchange     Energy = -10.76044254263435
 DFT Correlation      Energy =  -3.15445891508634
 DFT Exchange         Energy = -85.58766410155513
 One-Electron (alpha) Energy = -2130.75854898890793
 One-Electron (beta)  Energy = -2130.75854898890748
 Total Coulomb        Energy = 1417.34049710591989
    6   -2692.4252576646      7.02e-05  
 Alpha HF Exchange    Energy = -10.75995664261204
 Beta HF Exchange     Energy = -10.75995664261202
 DFT Correlation      Energy =  -3.15422855590958
 DFT Exchange         Energy = -85.58358823521743
 One-Electron (alpha) Energy = -2130.69776993732648
 One-Electron (beta)  Energy = -2130.69776993732421
 Total Coulomb        Energy = 1417.21363059707119
    7   -2692.4252880447      2.19e-05  
 Alpha HF Exchange    Energy = -10.76002952967765
 Beta HF Exchange     Energy = -10.76002952967765
 DFT Correlation      Energy =  -3.15423187070053
 DFT Exchange         Energy = -85.58415060441902
 One-Electron (alpha) Energy = -2130.71222106273080
 One-Electron (beta)  Energy = -2130.71222106272899
 Total Coulomb        Energy = 1417.24324154528063
    8   -2692.4252908054      5.53e-06  
 Alpha HF Exchange    Energy = -10.76003485779314
 Beta HF Exchange     Energy = -10.76003485779312
 DFT Correlation      Energy =  -3.15423780924250
 DFT Exchange         Energy = -85.58419903994100
 One-Electron (alpha) Energy = -2130.71230490265907
 One-Electron (beta)  Energy = -2130.71230490265680
 Total Coulomb        Energy = 1417.24347407570372
    9   -2692.4252909852      5.91e-07  Convergence criterion met
 ---------------------------------------
 SCF time:   CPU 26.31s  wall 2.00s 
<S^2> =          0.000000000
 Alpha HF Exchange    Energy = -10.76003485779314
 Beta HF Exchange     Energy = -10.76003485779312
 DFT Correlation      Energy =  -3.15423780924250
 DFT Exchange         Energy = -85.58419903994100
 One-Electron (alpha) Energy = -2130.71230490265907
 One-Electron (beta)  Energy = -2130.71230490265680
 Total Coulomb        Energy = 1417.24347407570372
 Nuclear repulsion Energy = 262.01435130922010
 SCF   energy in the final basis set =    -2692.4252909852
 Total energy in the final basis set =    -2692.4252909852
 
 --------------------------------------------------------------
 
                    Orbital Energies (a.u.)
 --------------------------------------------------------------
 
 Alpha MOs
 -- Occupied --
******* -62.504 -56.325 -56.322 -56.322 -10.239 -10.188 -10.188
 -8.693  -6.523  -6.510  -6.510  -2.617  -2.613  -2.613  -2.603
 -2.603  -0.860  -0.736  -0.700  -0.584  -0.478  -0.450  -0.431
 -0.397  -0.369  -0.361  -0.351  -0.270  -0.269
 -- Virtual --
  0.039   0.091   0.128   0.145   0.148   0.167   0.176   0.183
  0.193   0.223   0.253   0.353   0.367   0.369   0.472   0.483
  0.485   0.503   0.567   0.606   0.620   0.666   0.699   0.726
  0.758   0.810   0.841   0.850   0.866   0.870   0.905   0.906
  0.935   0.952   0.990   1.096   1.329   1.387   1.395   1.542
  1.544   1.727   1.791   1.830   1.832   1.860   1.915   2.035
  2.039   2.070   2.072   2.095   2.110   2.120   2.269   2.303
  2.343   2.386   2.507   2.553   2.623   2.666   2.703   2.723
  2.860   2.862   2.890   2.904   3.166   3.212   3.312   3.411
  3.452   3.463   3.493   4.256   4.467   4.578   4.751   4.764
  4.863   4.875   4.996   6.312  90.410
 
 Beta MOs
 -- Occupied --
******* -62.504 -56.325 -56.322 -56.322 -10.239 -10.188 -10.188
 -8.693  -6.523  -6.510  -6.510  -2.617  -2.613  -2.613  -2.603
 -2.603  -0.860  -0.736  -0.700  -0.584  -0.478  -0.450  -0.431
 -0.397  -0.369  -0.361  -0.351  -0.270  -0.269
 -- Virtual --
  0.039   0.091   0.128   0.145   0.148   0.167   0.176   0.183
  0.193   0.223   0.253   0.353   0.367   0.369   0.472   0.483
  0.485   0.503   0.567   0.606   0.620   0.666   0.699   0.726
  0.758   0.810   0.841   0.850   0.866   0.870   0.905   0.906
  0.935   0.952   0.990   1.096   1.329   1.387   1.395   1.542
  1.544   1.727   1.791   1.830   1.832   1.860   1.915   2.035
  2.039   2.070   2.072   2.095   2.110   2.120   2.269   2.303
  2.343   2.386   2.507   2.553   2.623   2.666   2.703   2.723
  2.860   2.862   2.890   2.904   3.166   3.212   3.312   3.411
  3.452   3.463   3.493   4.256   4.467   4.578   4.751   4.764
  4.863   4.875   4.996   6.312  90.410
 --------------------------------------------------------------
 
          Ground-State Mulliken Net Atomic Charges

     Atom                 Charge (a.u.)    Spin (a.u.)
  --------------------------------------------------------
      1 Br                   -0.095705       0.000000
      2 C                    -0.127574      -0.000000
      3 C                    -0.309407       0.000000
      4 C                    -0.309391       0.000000
      5 H                     0.138869       0.000000
      6 H                     0.122885      -0.000000
      7 H                     0.105826      -0.000000
      8 H                     0.122895       0.000000
      9 H                     0.122890      -0.000000
     10 H                     0.105817      -0.000000
     11 H                     0.122896       0.000000
  --------------------------------------------------------
  Sum of atomic charges =     0.000000
  Sum of spin   charges =    -0.000000

 -----------------------------------------------------------------
                    Cartesian Multipole Moments
 -----------------------------------------------------------------
    Charge (ESU x 10^10)
                 0.0000
    Dipole Moment (Debye)
         X      -1.8686      Y       0.0004      Z       0.3843
       Tot       1.9077
    Quadrupole Moments (Debye-Ang)
        XX     -40.3297     XY       0.0008     YY     -38.3055
        XZ      -0.2101     YZ       0.0001     ZZ     -38.2252
    Octopole Moments (Debye-Ang^2)
       XXX     -49.6661    XXY       0.0030    XYY     -17.4808
       YYY       0.0118    XXZ       0.0358    XYZ       0.0005
       YYZ       1.6583    XZZ     -17.5921    YZZ       0.0041
       ZZZ       3.8969
    Hexadecapole Moments (Debye-Ang^3)
      XXXX    -387.4018   XXXY       0.0139   XXYY    -106.8405
      XYYY       0.0263   YYYY    -210.8922   XXXZ      -6.0540
      XXYZ       0.0018   XYYZ       0.8366   YYYZ      -0.0004
      XXZZ     -82.1103   XYZZ       0.0078   YYZZ     -48.0472
      XZZZ       2.4738   YZZZ      -0.0001   ZZZZ     -69.4656
 -----------------------------------------------------------------
 Calculating analytic gradient of the SCF energy
 Gradient of SCF Energy
            1           2           3           4           5           6
    1  -0.0861492   0.0626588   0.0084607   0.0085036   0.0055443   0.0001170
    2   0.0000235   0.0000205   0.0067394  -0.0067532  -0.0000021  -0.0010197
    3   0.0181700  -0.0131082  -0.0022587  -0.0022434  -0.0002133   0.0001709
            7           8           9          10          11
    1   0.0008737  -0.0004883   0.0001260   0.0008404  -0.0004869
    2  -0.0000135  -0.0014489   0.0010069   0.0000018   0.0014453
    3   0.0001443  -0.0004878   0.0001666   0.0001473  -0.0004876
 Max gradient component =       8.615E-02
 RMS gradient           =       1.918E-02
 Gradient time:  CPU 11.27 s  wall 0.98 s
 Geometry Optimization Parameters
   NAtoms,    NIC,     NZ,  NCons,   NDum,   NFix, NCnnct, MaxDiis
       11      68       0       1       0       0       0       0

 Cartesian Hessian Update
 Hessian Updated using BFGS Update


** CONSTRAINED OPTIMIZATION IN DELOCALIZED INTERNAL COORDINATES **
   Searching for a Minimum

   Optimization Cycle:   2

                       Coordinates (Angstroms)
     ATOM                X               Y               Z
      1  Br        1.6150548354   -0.0003940430   -0.0710151718
      2  C        -0.1330203995    0.0000697123    0.3848273946
      3  C        -0.7859863884   -1.2655759423   -0.1499146639
      4  C        -0.7852992312    1.2659665351   -0.1499255797
      5  H        -0.1449410436    0.0000617366    1.4780406389
      6  H        -0.2994683430   -2.1635342444    0.2444220384
      7  H        -1.8413606666   -1.2997040959    0.1428601034
      8  H        -0.7351503361   -1.3107626434   -1.2428689424
      9  H        -0.2983110669    2.1636524076    0.2444094206
     10  H        -1.8407409970    1.3005353994    0.1427451450
     11  H        -0.7343763631    1.3110851780   -1.2428803831
   Point Group: c1    Number of degrees of freedom:    27


   Energy is  -2692.425290985

              Constraints and their Current Values
                                        Value     Constraint
   Distance(Angs):        1   2             1.806533     1.700000
 Hessian Updated using BFGS Update

   Using Lagrange Multiplier Algorithm


 24 Hessian modes will be used to form the next step
  Hessian Eigenvalues:
    -0.875599    0.107911    0.107913    0.180923    0.197007    0.197456
     0.197695    0.199273    0.199290    0.270116    0.383208    0.384572
     0.428898    0.558348    0.730064    0.730977    0.818870    0.818936
     0.819434    0.819555    0.820761    0.821001    0.822873    1.146230

 Minimum Search - Taking P-RFO Step
 Searching for Lamda that Maximizes Along the Constraint modes Only
 Value Taken    Lamda =   0.01912418
 Searching for Lamda that Minimizes Along All other modes
 Value Taken    Lamda =  -0.02266302
 Step Taken.  Stepsize is  0.216638

                             Maximum     Tolerance    Cnvgd?
         Gradient            0.201317       0.000300      NO
         Displacement        0.197144       0.001200      NO
         Energy change      0.012903       0.000001      NO


 New Cartesian Coordinates Obtained by Inverse Iteration

 Displacement from previous Coordinates is:  0.163700
 ----------------------------------------------------------------
             Standard Nuclear Orientation (Angstroms)
    I     Atom           X                Y                Z
 ----------------------------------------------------------------
    1      Br      1.5487962514    -0.0004116623    -0.0408998982
    2      C      -0.1028504461     0.0000365358     0.3708973762
    3      C      -0.7804399186    -1.2667618869    -0.1521275217
    4      C      -0.7797707235     1.2671462948    -0.1521485445
    5      H      -0.1278383366     0.0000334257     1.4640626481
    6      H      -0.3012786731    -2.1672983325     0.2425475372
    7      H      -1.8351183194    -1.2861848975     0.1477494958
    8      H      -0.7355944039    -1.3112661795    -1.2447569578
    9      H      -0.3001684821     2.1674416935     0.2425239885
   10      H      -1.8344847677     1.2870544903     0.1476306812
   11      H      -0.7348521804     1.3116105185    -1.2447788048
 ----------------------------------------------------------------
 Nuclear Repulsion Energy =   268.4359644626 hartrees
 There are       30 alpha and       30 beta electrons

                       Distance Matrix (Angstroms)
             Br(  1)   C (  2)   C (  3)   C (  4)   H (  5)   H (  6)
   C (  2)  1.702209
   C (  3)  2.653555  1.528876
   C (  4)  2.653545  1.528844  2.533908
   H (  5)  2.253002  1.093451  2.154699  2.154699
   H (  6)  2.863305  2.180181  1.093769  3.490007  2.493894
   H (  7)  3.624870  2.169081  1.096654  2.779064  2.510347  1.771443
   H (  8)  2.895868  2.174907  1.094455  2.800706  3.070273  1.770168
   H (  9)  2.863318  2.180151  3.490009  1.093763  2.493895  4.334740
   H ( 10)  3.624873  2.169060  2.779000  1.096670  2.510390  3.780514
   H ( 11)  2.895821  2.174871  2.800709  1.094457  3.070264  3.808272
             H (  7)   H (  8)   H (  9)   H ( 10)
   H (  8)  1.774445
   H (  9)  3.780554  3.808282
   H ( 10)  2.573239  3.146041  1.771500
   H ( 11)  3.146150  2.622877  1.770160  1.774429
 
 Applying Cartesian multipole field
    Component          Value
    ---------          -----
     (2,0,0)        1.00000E-11
     (0,2,0)        2.00000E-11
     (0,0,2)       -3.00000E-10
 Nucleus-field energy     =    -0.0000000010 hartrees
 Requested basis set is 6-31G(d,p)
 There are 41 shells and 115 basis functions
 A cutoff of  1.0D-14 yielded    845 shell pairs
 There are      6737 function pairs
 Smallest overlap matrix eigenvalue = 7.22E-04
 Guess from superposition of atomic densities
 Warning:  Energy on first SCF cycle will be non-variational
 SAD guess density has 59.972873 electrons

 -----------------------------------------------------------------------
  General SCF calculation program by
  Eric Jon Sundstrom, Paul Horn, Yuezhi Mao, Dmitri Zuev, Alec White,
  David Stuck, Shaama M.S., Shane Yost, Joonho Lee, David Small,
  Daniel Levine, Susi Lehtola, Hugh Burton, Evgeny Epifanovsky
 -----------------------------------------------------------------------
 Exchange:     0.2000 Hartree-Fock + 0.0800 Slater + 0.7200 B88
 Correlation:  0.1900 VWN1RPA + 0.8100 LYP
 Using SG-1 standard quadrature grid
 using 12 threads for integral computing
 -------------------------------------------------------
 OpenMP Integral computing Module                
 Release: version 1.0, May 2013, Q-Chem Inc. Pittsburgh 
 -------------------------------------------------------
 -------------------------------------------------------
 OpenMP BLAS3 based DFT computing Module                
 Release: version 1.0, May 2013, Q-Chem Inc. Pittsburgh 
 -------------------------------------------------------
 A unrestricted SCF calculation will be
 performed using DIIS
 SCF converges when DIIS error is below 1.0e-06
 Alpha HF Exchange    Energy = -10.77897724887957
 Beta HF Exchange     Energy = -10.77897724887957
 DFT Correlation      Energy =  -3.13343377262640
 DFT Exchange         Energy = -85.10262704905070
 One-Electron (alpha) Energy = -2134.84411668356779
 One-Electron (beta)  Energy = -2134.84411668356779
 Total Coulomb        Energy = 1414.69647036144738
 ---------------------------------------
  Cycle       Energy         DIIS error
 ---------------------------------------
    1   -2696.3498138635      1.67e-01  
 Alpha HF Exchange    Energy = -10.81485181278076
 Beta HF Exchange     Energy = -10.81485181278074
 DFT Correlation      Energy =  -3.17452857334692
 DFT Exchange         Energy = -86.02836160576348
 One-Electron (alpha) Energy = -2141.76844748215444
 One-Electron (beta)  Energy = -2141.76844748215399
 Total Coulomb        Energy = 1433.64705301128242
    2   -2692.2864712961      9.63e-03  
 Alpha HF Exchange    Energy = -10.71489248625008
 Beta HF Exchange     Energy = -10.71489248625006
 DFT Correlation      Energy =  -3.13901382433699
 DFT Exchange         Energy = -85.21416853640149
 One-Electron (alpha) Energy = -2132.20410188327423
 One-Electron (beta)  Energy = -2132.20410188327241
 Total Coulomb        Energy = 1413.47730963188019
    3   -2692.2778970063      4.60e-03  
 Alpha HF Exchange    Energy = -10.79066350766982
 Beta HF Exchange     Energy = -10.79066350766983
 DFT Correlation      Energy =  -3.16750578445752
 DFT Exchange         Energy = -85.83084957683290
 One-Electron (alpha) Energy = -2139.39890462315861
 One-Electron (beta)  Energy = -2139.39890462316043
 Total Coulomb        Energy = 1428.58880273562249
    4   -2692.3527244257      2.85e-03  
 Alpha HF Exchange    Energy = -10.76658126095925
 Beta HF Exchange     Energy = -10.76658126095925
 DFT Correlation      Energy =  -3.15729066457587
 DFT Exchange         Energy = -85.63170591055194
 One-Electron (alpha) Energy = -2137.32195905958815
 One-Electron (beta)  Energy = -2137.32195905958770
 Total Coulomb        Energy = 1424.12965385507800
    5   -2692.4004588995      5.60e-04  
 Alpha HF Exchange    Energy = -10.76460996785076
 Beta HF Exchange     Energy = -10.76460996785075
 DFT Correlation      Energy =  -3.15743912695813
 DFT Exchange         Energy = -85.61775276921153
 One-Electron (alpha) Energy = -2137.08989502645409
 One-Electron (beta)  Energy = -2137.08989502645318
 Total Coulomb        Energy = 1423.64609954437401
    6   -2692.4021378788      6.79e-05  
 Alpha HF Exchange    Energy = -10.76415247152291
 Beta HF Exchange     Energy = -10.76415247152291
 DFT Correlation      Energy =  -3.15722710829242
 DFT Exchange         Energy = -85.61394956498251
 One-Electron (alpha) Energy = -2137.02768394148279
 One-Electron (beta)  Energy = -2137.02768394148234
 Total Coulomb        Energy = 1423.51671989511374
    7   -2692.4021651426      2.28e-05  
 Alpha HF Exchange    Energy = -10.76423405747923
 Beta HF Exchange     Energy = -10.76423405747922
 DFT Correlation      Energy =  -3.15722974169236
 DFT Exchange         Energy = -85.61456741239698
 One-Electron (alpha) Energy = -2137.04408498501789
 One-Electron (beta)  Energy = -2137.04408498501834
 Total Coulomb        Energy = 1423.55030259891987
    8   -2692.4021681786      6.00e-06  
 Alpha HF Exchange    Energy = -10.76424086282343
 Beta HF Exchange     Energy = -10.76424086282343
 DFT Correlation      Energy =  -3.15723747300340
 DFT Exchange         Energy = -85.61463108774458
 One-Electron (alpha) Energy = -2137.04400978575131
 One-Electron (beta)  Energy = -2137.04400978575131
 Total Coulomb        Energy = 1423.55023701361597
    9   -2692.4021683827      5.89e-07  Convergence criterion met
 ---------------------------------------
 SCF time:   CPU 26.69s  wall 2.00s 
<S^2> =         -0.000000000
 Alpha HF Exchange    Energy = -10.76424086282343
 Beta HF Exchange     Energy = -10.76424086282343
 DFT Correlation      Energy =  -3.15723747300340
 DFT Exchange         Energy = -85.61463108774458
 One-Electron (alpha) Energy = -2137.04400978575131
 One-Electron (beta)  Energy = -2137.04400978575131
 Total Coulomb        Energy = 1423.55023701361597
 Nuclear repulsion Energy = 268.43596446159495
 SCF   energy in the final basis set =    -2692.4021683827
 Total energy in the final basis set =    -2692.4021683827
 
 --------------------------------------------------------------
 
                    Orbital Energies (a.u.)
 --------------------------------------------------------------
 
 Alpha MOs
 -- Occupied --
******* -62.506 -56.327 -56.324 -56.324 -10.232 -10.187 -10.187
 -8.696  -6.526  -6.514  -6.513  -2.620  -2.616  -2.616  -2.606
 -2.606  -0.882  -0.735  -0.699  -0.582  -0.482  -0.450  -0.435
 -0.396  -0.373  -0.362  -0.358  -0.266  -0.266
 -- Virtual --
  0.057   0.097   0.128   0.146   0.147   0.166   0.174   0.185
  0.193   0.215   0.255   0.355   0.370   0.380   0.480   0.481
  0.493   0.497   0.577   0.603   0.625   0.656   0.700   0.733
  0.762   0.806   0.850   0.854   0.870   0.876   0.906   0.910
  0.946   0.953   1.025   1.105   1.342   1.395   1.423   1.544
  1.545   1.746   1.803   1.822   1.836   1.876   1.915   2.035
  2.039   2.070   2.086   2.096   2.111   2.123   2.272   2.308
  2.349   2.390   2.517   2.549   2.629   2.662   2.702   2.721
  2.861   2.866   2.888   2.909   3.169   3.214   3.306   3.412
  3.452   3.463   3.497   4.256   4.469   4.581   4.754   4.769
  4.879   4.892   4.984   6.313  90.425
 
 Beta MOs
 -- Occupied --
******* -62.506 -56.327 -56.324 -56.324 -10.232 -10.187 -10.187
 -8.696  -6.526  -6.514  -6.513  -2.620  -2.616  -2.616  -2.606
 -2.606  -0.882  -0.735  -0.699  -0.582  -0.482  -0.450  -0.435
 -0.396  -0.373  -0.362  -0.358  -0.266  -0.266
 -- Virtual --
  0.057   0.097   0.128   0.146   0.147   0.166   0.174   0.185
  0.193   0.215   0.255   0.355   0.370   0.380   0.480   0.481
  0.493   0.497   0.577   0.603   0.625   0.656   0.700   0.733
  0.762   0.806   0.850   0.854   0.870   0.876   0.906   0.910
  0.946   0.953   1.025   1.105   1.342   1.395   1.423   1.544
  1.545   1.746   1.803   1.822   1.836   1.876   1.915   2.035
  2.039   2.070   2.086   2.096   2.111   2.123   2.272   2.308
  2.349   2.390   2.517   2.549   2.629   2.662   2.702   2.721
  2.861   2.866   2.888   2.909   3.169   3.214   3.306   3.412
  3.452   3.463   3.497   4.256   4.469   4.581   4.754   4.769
  4.879   4.892   4.984   6.313  90.425
 --------------------------------------------------------------
 
          Ground-State Mulliken Net Atomic Charges

     Atom                 Charge (a.u.)    Spin (a.u.)
  --------------------------------------------------------
      1 Br                   -0.080627      -0.000000
      2 C                    -0.118107       0.000000
      3 C                    -0.312588      -0.000000
      4 C                    -0.312581       0.000000
      5 H                     0.132899       0.000000
      6 H                     0.120846      -0.000000
      7 H                     0.104073       0.000000
      8 H                     0.120584       0.000000
      9 H                     0.120848      -0.000000
     10 H                     0.104071       0.000000
     11 H                     0.120583      -0.000000
  --------------------------------------------------------
  Sum of atomic charges =    -0.000000
  Sum of spin   charges =     0.000000

 -----------------------------------------------------------------
                    Cartesian Multipole Moments
 -----------------------------------------------------------------
    Charge (ESU x 10^10)
                -0.0000
    Dipole Moment (Debye)
         X      -1.6776      Y       0.0004      Z       0.3654
       Tot       1.7170
    Quadrupole Moments (Debye-Ang)
        XX     -40.1770     XY       0.0006     YY     -38.2958
        XZ      -0.1352     YZ      -0.0000     ZZ     -38.2050
    Octopole Moments (Debye-Ang^2)
       XXX     -46.0919    XXY       0.0037    XYY     -16.2106
       YYY       0.0136    XXZ      -0.2171    XYZ       0.0005
       YYZ       1.2751    XZZ     -16.3926    YZZ       0.0045
       ZZZ       2.5450
    Hexadecapole Moments (Debye-Ang^3)
      XXXX    -363.5592   XXXY       0.0140   XXYY    -102.8223
      XYYY       0.0257   YYYY    -211.2498   XXXZ      -8.3876
      XXYZ       0.0021   XYYZ      -0.2450   YYYZ       0.0008
      XXZZ     -77.9105   XYZZ       0.0079   YYZZ     -47.9765
      XZZZ      -0.4120   YZZZ       0.0009   ZZZZ     -68.8468
 -----------------------------------------------------------------
 Calculating analytic gradient of the SCF energy
 Gradient of SCF Energy
            1           2           3           4           5           6
    1  -0.1610847   0.1291352   0.0117974   0.0118111   0.0103996  -0.0005412
    2   0.0000427  -0.0000211   0.0037976  -0.0038057  -0.0000042  -0.0006244
    3   0.0387303  -0.0321227  -0.0032931  -0.0032829  -0.0016476   0.0000041
            7           8           9          10          11
    1   0.0001208  -0.0006049  -0.0005376   0.0001095  -0.0006055
    2   0.0004425  -0.0008972   0.0006207  -0.0004480   0.0008970
    3   0.0006399   0.0001670   0.0000010   0.0006374   0.0001667
 Max gradient component =       1.611E-01
 RMS gradient           =       3.717E-02
 Gradient time:  CPU 11.44 s  wall 1.00 s
 Geometry Optimization Parameters
   NAtoms,    NIC,     NZ,  NCons,   NDum,   NFix, NCnnct, MaxDiis
       11      68       0       1       0       0       0       0

 Cartesian Hessian Update
 Hessian Updated using BFGS Update


** CONSTRAINED OPTIMIZATION IN DELOCALIZED INTERNAL COORDINATES **
   Searching for a Minimum

   Optimization Cycle:   3

                       Coordinates (Angstroms)
     ATOM                X               Y               Z
      1  Br        1.5487962514   -0.0004116623   -0.0408998982
      2  C        -0.1028504461    0.0000365358    0.3708973762
      3  C        -0.7804399186   -1.2667618869   -0.1521275217
      4  C        -0.7797707235    1.2671462948   -0.1521485445
      5  H        -0.1278383366    0.0000334257    1.4640626481
      6  H        -0.3012786731   -2.1672983325    0.2425475372
      7  H        -1.8351183194   -1.2861848975    0.1477494958
      8  H        -0.7355944039   -1.3112661795   -1.2447569578
      9  H        -0.3001684821    2.1674416935    0.2425239885
     10  H        -1.8344847677    1.2870544903    0.1476306812
     11  H        -0.7348521804    1.3116105185   -1.2447788048
   Point Group: c1    Number of degrees of freedom:    27


   Energy is  -2692.402168383

              Constraints and their Current Values
                                        Value     Constraint
   Distance(Angs):        1   2             1.702209     1.700000
 Hessian Updated using BFGS Update

   Using Lagrange Multiplier Algorithm


 25 Hessian modes will be used to form the next step
  Hessian Eigenvalues:
    -0.807891    0.107909    0.107911    0.175257    0.196452    0.197456
     0.197646    0.199272    0.199289    0.270116    0.382405    0.383687
     0.384522    0.428898    0.553145    0.719997    0.730957    0.818894
     0.818936    0.819370    0.819552    0.820768    0.821005    0.822937
     1.259548

 Minimum Search - Taking P-RFO Step
 Searching for Lamda that Maximizes Along the Constraint modes Only
 Value Taken    Lamda =   0.00048915
 Searching for Lamda that Minimizes Along All other modes
 Value Taken    Lamda =  -0.00150116
 Step Taken.  Stepsize is  0.077588

                             Maximum     Tolerance    Cnvgd?
         Gradient            0.028511       0.000300      NO
         Displacement        0.053224       0.001200      NO
         Energy change      0.023123       0.000001      NO


 New Cartesian Coordinates Obtained by Inverse Iteration

 Displacement from previous Coordinates is:  0.067319
 ----------------------------------------------------------------
             Standard Nuclear Orientation (Angstroms)
    I     Atom           X                Y                Z
 ----------------------------------------------------------------
    1      Br      1.5664152052    -0.0004209831    -0.0369267052
    2      C      -0.0853888812     0.0000246113     0.3650089939
    3      C      -0.7824641533    -1.2646145026    -0.1518503139
    4      C      -0.7818006802     1.2649963788    -0.1518750658
    5      H      -0.1316164768     0.0000321988     1.4586291644
    6      H      -0.3103480321    -2.1676906405     0.2448091323
    7      H      -1.8371649798    -1.2731168251     0.1486195416
    8      H      -0.7380930859    -1.3100647028    -1.2444905382
    9      H      -0.3092489922     2.1678406998     0.2447841161
   10      H      -1.8365294709     1.2740011719     0.1485076615
   11      H      -0.7373604528     1.3104125934    -1.2445159867
 ----------------------------------------------------------------
 Nuclear Repulsion Energy =   267.7283485815 hartrees
 There are       30 alpha and       30 beta electrons

                       Distance Matrix (Angstroms)
             Br(  1)   C (  2)   C (  3)   C (  4)   H (  5)   H (  6)
   C (  2)  1.700003
   C (  3)  2.669949  1.533744
   C (  4)  2.669946  1.533725  2.529611
   H (  5)  2.262742  1.094597  2.148622  2.148627
   H (  6)  2.880742  2.182669  1.093517  3.487544  2.490849
   H (  7)  3.638480  2.176335  1.096699  2.765160  2.499186  1.772198
   H (  8)  2.912754  2.175510  1.094485  2.797617  3.064478  1.771017
   H (  9)  2.880770  2.182658  3.487549  1.093513  2.490857  4.335531
   H ( 10)  3.638485  2.176323  2.765111  1.096706  2.499229  3.766131
   H ( 11)  2.912720  2.175489  2.797627  1.094487  3.064477  3.807575
             H (  7)   H (  8)   H (  9)   H ( 10)
   H (  8)  1.774846
   H (  9)  3.766160  3.807581
   H ( 10)  2.547118  3.134390  1.772231
   H ( 11)  3.134489  2.620477  1.771010  1.774828
 
 Applying Cartesian multipole field
    Component          Value
    ---------          -----
     (2,0,0)        1.00000E-11
     (0,2,0)        2.00000E-11
     (0,0,2)       -3.00000E-10
 Nucleus-field energy     =    -0.0000000008 hartrees
 Requested basis set is 6-31G(d,p)
 There are 41 shells and 115 basis functions
 A cutoff of  1.0D-14 yielded    845 shell pairs
 There are      6737 function pairs
 Smallest overlap matrix eigenvalue = 7.22E-04
 Guess from superposition of atomic densities
 Warning:  Energy on first SCF cycle will be non-variational
 SAD guess density has 59.972873 electrons

 -----------------------------------------------------------------------
  General SCF calculation program by
  Eric Jon Sundstrom, Paul Horn, Yuezhi Mao, Dmitri Zuev, Alec White,
  David Stuck, Shaama M.S., Shane Yost, Joonho Lee, David Small,
  Daniel Levine, Susi Lehtola, Hugh Burton, Evgeny Epifanovsky
 -----------------------------------------------------------------------
 Exchange:     0.2000 Hartree-Fock + 0.0800 Slater + 0.7200 B88
 Correlation:  0.1900 VWN1RPA + 0.8100 LYP
 Using SG-1 standard quadrature grid
 using 12 threads for integral computing
 -------------------------------------------------------
 OpenMP Integral computing Module                
 Release: version 1.0, May 2013, Q-Chem Inc. Pittsburgh 
 -------------------------------------------------------
 -------------------------------------------------------
 OpenMP BLAS3 based DFT computing Module                
 Release: version 1.0, May 2013, Q-Chem Inc. Pittsburgh 
 -------------------------------------------------------
 A unrestricted SCF calculation will be
 performed using DIIS
 SCF converges when DIIS error is below 1.0e-06
 Alpha HF Exchange    Energy = -10.77774282892673
 Beta HF Exchange     Energy = -10.77774282892673
 DFT Correlation      Energy =  -3.13311330245051
 DFT Exchange         Energy = -85.10045399699308
 One-Electron (alpha) Energy = -2134.13950704909257
 One-Electron (beta)  Energy = -2134.13950704909257
 Total Coulomb        Energy = 1414.00114628666870
 ---------------------------------------
  Cycle       Energy         DIIS error
 ---------------------------------------
    1   -2696.3385721882      1.67e-01  
 Alpha HF Exchange    Energy = -10.81428403622304
 Beta HF Exchange     Energy = -10.81428403622303
 DFT Correlation      Energy =  -3.17414935509662
 DFT Exchange         Energy = -86.02431430891622
 One-Electron (alpha) Energy = -2141.01836084296792
 One-Electron (beta)  Energy = -2141.01836084296519
 Total Coulomb        Energy = 1432.84808643241149
    2   -2692.2873184093      9.63e-03  
 Alpha HF Exchange    Energy = -10.71472531192417
 Beta HF Exchange     Energy = -10.71472531192417
 DFT Correlation      Energy =  -3.13875462336455
 DFT Exchange         Energy = -85.21314030202716
 One-Electron (alpha) Energy = -2131.53462228783337
 One-Electron (beta)  Energy = -2131.53462228783246
 Total Coulomb        Energy = 1412.84324172727452
    3   -2692.2789998170      4.59e-03  
 Alpha HF Exchange    Energy = -10.79012521700204
 Beta HF Exchange     Energy = -10.79012521700206
 DFT Correlation      Energy =  -3.16714256903160
 DFT Exchange         Energy = -85.82705950031232
 One-Electron (alpha) Energy = -2138.65283007964535
 One-Electron (beta)  Energy = -2138.65283007964854
 Total Coulomb        Energy = 1427.79865400733183
    4   -2692.3531100747      2.85e-03  
 Alpha HF Exchange    Energy = -10.76617286948744
 Beta HF Exchange     Energy = -10.76617286948744
 DFT Correlation      Energy =  -3.15695813330827
 DFT Exchange         Energy = -85.62885512604430
 One-Electron (alpha) Energy = -2136.60479565899186
 One-Electron (beta)  Energy = -2136.60479565899141
 Total Coulomb        Energy = 1423.39857364142836
    5   -2692.4008280942      5.57e-04  
 Alpha HF Exchange    Energy = -10.76418647333387
 Beta HF Exchange     Energy = -10.76418647333387
 DFT Correlation      Energy =  -3.15710160702713
 DFT Exchange         Energy = -85.61478477737055
 One-Electron (alpha) Energy = -2136.37152062488531
 One-Electron (beta)  Energy = -2136.37152062488622
 Total Coulomb        Energy = 1422.91246966736321
    6   -2692.4024823328      6.78e-05  
 Alpha HF Exchange    Energy = -10.76372637036562
 Beta HF Exchange     Energy = -10.76372637036562
 DFT Correlation      Energy =  -3.15688971697242
 DFT Exchange         Energy = -85.61096210548034
 One-Electron (alpha) Energy = -2136.30821875054517
 One-Electron (beta)  Energy = -2136.30821875054562
 Total Coulomb        Energy = 1422.78088412174952
    7   -2692.4025093619      2.35e-05  
 Alpha HF Exchange    Energy = -10.76380902143911
 Beta HF Exchange     Energy = -10.76380902143911
 DFT Correlation      Energy =  -3.15689248693043
 DFT Exchange         Energy = -85.61158825050465
 One-Electron (alpha) Energy = -2136.32506464440212
 One-Electron (beta)  Energy = -2136.32506464440303
 Total Coulomb        Energy = 1422.81536689713948
    8   -2692.4025125913      5.96e-06  
 Alpha HF Exchange    Energy = -10.76381663052241
 Beta HF Exchange     Energy = -10.76381663052241
 DFT Correlation      Energy =  -3.15690031539267
 DFT Exchange         Energy = -85.61165801875256
 One-Electron (alpha) Energy = -2136.32512339288087
 One-Electron (beta)  Energy = -2136.32512339288178
 Total Coulomb        Energy = 1422.81557700611256
    9   -2692.4025127942      5.86e-07  Convergence criterion met
 ---------------------------------------
 SCF time:   CPU 26.65s  wall 3.00s 
<S^2> =         -0.000000000
 Alpha HF Exchange    Energy = -10.76381663052241
 Beta HF Exchange     Energy = -10.76381663052241
 DFT Correlation      Energy =  -3.15690031539267
 DFT Exchange         Energy = -85.61165801875256
 One-Electron (alpha) Energy = -2136.32512339288087
 One-Electron (beta)  Energy = -2136.32512339288178
 Total Coulomb        Energy = 1422.81557700611256
 Nuclear repulsion Energy = 267.72834858065431
 SCF   energy in the final basis set =    -2692.4025127942
 Total energy in the final basis set =    -2692.4025127942
 
 --------------------------------------------------------------
 
                    Orbital Energies (a.u.)
 --------------------------------------------------------------
 
 Alpha MOs
 -- Occupied --
******* -62.508 -56.328 -56.325 -56.325 -10.232 -10.187 -10.187
 -8.697  -6.527  -6.515  -6.515  -2.622  -2.617  -2.617  -2.607
 -2.607  -0.881  -0.736  -0.698  -0.581  -0.481  -0.449  -0.434
 -0.395  -0.373  -0.360  -0.359  -0.267  -0.267
 -- Virtual --
  0.057   0.097   0.129   0.146   0.148   0.165   0.174   0.185
  0.192   0.214   0.253   0.354   0.369   0.379   0.481   0.481
  0.493   0.499   0.580   0.602   0.623   0.655   0.699   0.730
  0.763   0.806   0.849   0.853   0.872   0.875   0.908   0.910
  0.945   0.954   1.024   1.103   1.343   1.396   1.419   1.544
  1.546   1.744   1.802   1.814   1.836   1.874   1.913   2.035
  2.039   2.069   2.090   2.095   2.109   2.123   2.272   2.313
  2.350   2.387   2.518   2.546   2.628   2.655   2.701   2.721
  2.860   2.869   2.886   2.908   3.168   3.215   3.302   3.412
  3.449   3.462   3.499   4.254   4.469   4.580   4.752   4.766
  4.877   4.889   4.983   6.312  90.422
 
 Beta MOs
 -- Occupied --
******* -62.508 -56.328 -56.325 -56.325 -10.232 -10.187 -10.187
 -8.697  -6.527  -6.515  -6.515  -2.622  -2.617  -2.617  -2.607
 -2.607  -0.881  -0.736  -0.698  -0.581  -0.481  -0.449  -0.434
 -0.395  -0.373  -0.360  -0.359  -0.267  -0.267
 -- Virtual --
  0.057   0.097   0.129   0.146   0.148   0.165   0.174   0.185
  0.192   0.214   0.253   0.354   0.369   0.379   0.481   0.481
  0.493   0.499   0.580   0.602   0.623   0.655   0.699   0.730
  0.763   0.806   0.849   0.853   0.872   0.875   0.908   0.910
  0.945   0.954   1.024   1.103   1.343   1.396   1.419   1.544
  1.546   1.744   1.802   1.814   1.836   1.874   1.913   2.035
  2.039   2.069   2.090   2.095   2.109   2.123   2.272   2.313
  2.350   2.387   2.518   2.546   2.628   2.655   2.701   2.721
  2.860   2.869   2.886   2.908   3.168   3.215   3.302   3.412
  3.449   3.462   3.499   4.254   4.469   4.580   4.752   4.766
  4.877   4.889   4.983   6.312  90.422
 --------------------------------------------------------------
 
          Ground-State Mulliken Net Atomic Charges

     Atom                 Charge (a.u.)    Spin (a.u.)
  --------------------------------------------------------
      1 Br                   -0.076966      -0.000000
      2 C                    -0.118276       0.000000
      3 C                    -0.312839       0.000000
      4 C                    -0.312835      -0.000000
      5 H                     0.131904      -0.000000
      6 H                     0.119880      -0.000000
      7 H                     0.104734      -0.000000
      8 H                     0.119892       0.000000
      9 H                     0.119880      -0.000000
     10 H                     0.104734       0.000000
     11 H                     0.119891       0.000000
  --------------------------------------------------------
  Sum of atomic charges =    -0.000000
  Sum of spin   charges =    -0.000000

 -----------------------------------------------------------------
                    Cartesian Multipole Moments
 -----------------------------------------------------------------
    Charge (ESU x 10^10)
                 0.0000
    Dipole Moment (Debye)
         X      -1.6568      Y       0.0004      Z       0.3603
       Tot       1.6955
    Quadrupole Moments (Debye-Ang)
        XX     -40.0819     XY       0.0005     YY     -38.3523
        XZ      -0.1547     YZ      -0.0000     ZZ     -38.2490
    Octopole Moments (Debye-Ang^2)
       XXX     -47.0564    XXY       0.0040    XYY     -16.5584
       YYY       0.0143    XXZ      -0.2221    XYZ       0.0005
       YYZ       1.2707    XZZ     -16.7505    YZZ       0.0047
       ZZZ       2.3678
    Hexadecapole Moments (Debye-Ang^3)
      XXXX    -368.6962   XXXY       0.0152   XXYY    -103.6964
      XYYY       0.0267   YYYY    -210.9553   XXXZ      -8.7362
      XXYZ       0.0022   XYYZ      -0.4212   YYYZ       0.0011
      XXZZ     -78.9237   XYZZ       0.0084   YYZZ     -47.9038
      XZZZ      -0.8738   YZZZ       0.0011   ZZZZ     -68.7839
 -----------------------------------------------------------------
 Calculating analytic gradient of the SCF energy
 Gradient of SCF Energy
            1           2           3           4           5           6
    1  -0.1594386   0.1378714   0.0081517   0.0081583   0.0080119  -0.0005398
    2   0.0000421  -0.0000293   0.0024907  -0.0024959  -0.0000033  -0.0002387
    3   0.0382906  -0.0339557  -0.0024121  -0.0024041  -0.0011231   0.0001165
            7           8           9          10          11
    1  -0.0003958  -0.0004398  -0.0005381  -0.0004006  -0.0004406
    2  -0.0000337  -0.0003904   0.0002373   0.0000304   0.0003907
    3   0.0004024   0.0002862   0.0001142   0.0003993   0.0002857
 Max gradient component =       1.594E-01
 RMS gradient           =       3.785E-02
 Gradient time:  CPU 11.39 s  wall 0.99 s
 Geometry Optimization Parameters
   NAtoms,    NIC,     NZ,  NCons,   NDum,   NFix, NCnnct, MaxDiis
       11      68       0       1       0       0       0       0

 Cartesian Hessian Update
 Hessian Updated using BFGS Update


** CONSTRAINED OPTIMIZATION IN DELOCALIZED INTERNAL COORDINATES **
   Searching for a Minimum

   Optimization Cycle:   4

                       Coordinates (Angstroms)
     ATOM                X               Y               Z
      1  Br        1.5664152052   -0.0004209831   -0.0369267052
      2  C        -0.0853888812    0.0000246113    0.3650089939
      3  C        -0.7824641533   -1.2646145026   -0.1518503139
      4  C        -0.7818006802    1.2649963788   -0.1518750658
      5  H        -0.1316164768    0.0000321988    1.4586291644
      6  H        -0.3103480321   -2.1676906405    0.2448091323
      7  H        -1.8371649798   -1.2731168251    0.1486195416
      8  H        -0.7380930859   -1.3100647028   -1.2444905382
      9  H        -0.3092489922    2.1678406998    0.2447841161
     10  H        -1.8365294709    1.2740011719    0.1485076615
     11  H        -0.7373604528    1.3104125934   -1.2445159867
   Point Group: c1    Number of degrees of freedom:    27


   Energy is  -2692.402512794

              Constraints and their Current Values
                                        Value     Constraint
   Distance(Angs):        1   2             1.700003     1.700000
 Hessian Updated using BFGS Update

   Using Lagrange Multiplier Algorithm


 26 Hessian modes will be used to form the next step
  Hessian Eigenvalues:
    -0.815158    0.059742    0.107911    0.108049    0.197354    0.197456
     0.198043    0.199220    0.199289    0.270116    0.381358    0.383608
     0.383682    0.388646    0.428898    0.532830    0.696147    0.730956
     0.818935    0.818937    0.819507    0.819571    0.820907    0.821504
     0.822229    1.231359

 Minimum Search - Taking P-RFO Step
 Searching for Lamda that Maximizes Along the Constraint modes Only
 Value Taken    Lamda =   0.00000904
 Searching for Lamda that Minimizes Along All other modes
 Value Taken    Lamda =  -0.00181580
 Step Taken.  Stepsize is  0.168608

                             Maximum     Tolerance    Cnvgd?
         Gradient            0.007027       0.000300      NO
         Displacement        0.119953       0.001200      NO
         Energy change     -0.000344       0.000001      NO


 New Cartesian Coordinates Obtained by Inverse Iteration

 Displacement from previous Coordinates is:  0.154445
 ----------------------------------------------------------------
             Standard Nuclear Orientation (Angstroms)
    I     Atom           X                Y                Z
 ----------------------------------------------------------------
    1      Br      1.6068163849    -0.0004355319    -0.0321868409
    2      C      -0.0490942446     0.0000024964     0.3524885038
    3      C      -0.7861727344    -1.2593431552    -0.1510428360
    4      C      -0.7855212082     1.2597187234    -0.1510752565
    5      H      -0.1476761042     0.0000379375     1.4454103926
    6      H      -0.3296300299    -2.1679753276     0.2507042875
    7      H      -1.8391923810    -1.2404373028     0.1518595285
    8      H      -0.7433694588    -1.3100901353    -1.2439372330
    9      H      -0.3285443606     2.1681316335     0.2506773959
   10      H      -1.8385598015     1.2413508890     0.1517718278
   11      H      -0.7426560618     1.3104397730    -1.2439697699
 ----------------------------------------------------------------
 Nuclear Repulsion Energy =   265.9958249050 hartrees
 There are       30 alpha and       30 beta electrons

                       Distance Matrix (Angstroms)
             Br(  1)   C (  2)   C (  3)   C (  4)   H (  5)   H (  6)
   C (  2)  1.700005
   C (  3)  2.706542  1.543626
   C (  4)  2.706548  1.543628  2.519062
   H (  5)  2.293804  1.097359  2.131286  2.131293
   H (  6)  2.920288  2.188421  1.093364  3.481142  2.482078
   H (  7)  3.666941  2.187097  1.095882  2.729977  2.464403  1.774507
   H (  8)  2.950747  2.178746  1.094909  2.792855  3.050226  1.772315
   H (  9)  2.920328  2.188434  3.481147  1.093365  2.482082  4.336107
   H ( 10)  3.666946  2.187103  2.729961  1.095876  2.464436  3.729633
   H ( 11)  2.950734  2.178750  2.792878  1.094910  3.050233  3.808413
             H (  7)   H (  8)   H (  9)   H ( 10)
   H (  8)  1.775930
   H (  9)  3.729633  3.808409
   H ( 10)  2.481788  3.107619  1.774500
   H ( 11)  3.107685  2.620530  1.772313  1.775915
 
 Applying Cartesian multipole field
    Component          Value
    ---------          -----
     (2,0,0)        1.00000E-11
     (0,2,0)        2.00000E-11
     (0,0,2)       -3.00000E-10
 Nucleus-field energy     =    -0.0000000006 hartrees
 Requested basis set is 6-31G(d,p)
 There are 41 shells and 115 basis functions
 A cutoff of  1.0D-14 yielded    845 shell pairs
 There are      6737 function pairs
 Smallest overlap matrix eigenvalue = 7.22E-04
 Guess from superposition of atomic densities
 Warning:  Energy on first SCF cycle will be non-variational
 SAD guess density has 59.972873 electrons

 -----------------------------------------------------------------------
  General SCF calculation program by
  Eric Jon Sundstrom, Paul Horn, Yuezhi Mao, Dmitri Zuev, Alec White,
  David Stuck, Shaama M.S., Shane Yost, Joonho Lee, David Small,
  Daniel Levine, Susi Lehtola, Hugh Burton, Evgeny Epifanovsky
 -----------------------------------------------------------------------
 Exchange:     0.2000 Hartree-Fock + 0.0800 Slater + 0.7200 B88
 Correlation:  0.1900 VWN1RPA + 0.8100 LYP
 Using SG-1 standard quadrature grid
 using 12 threads for integral computing
 -------------------------------------------------------
 OpenMP Integral computing Module                
 Release: version 1.0, May 2013, Q-Chem Inc. Pittsburgh 
 -------------------------------------------------------
 -------------------------------------------------------
 OpenMP BLAS3 based DFT computing Module                
 Release: version 1.0, May 2013, Q-Chem Inc. Pittsburgh 
 -------------------------------------------------------
 A unrestricted SCF calculation will be
 performed using DIIS
 SCF converges when DIIS error is below 1.0e-06
 Alpha HF Exchange    Energy = -10.77476740808098
 Beta HF Exchange     Energy = -10.77476740808098
 DFT Correlation      Energy =  -3.13236618333068
 DFT Exchange         Energy = -85.09495688715324
 One-Electron (alpha) Energy = -2132.41678142883984
 One-Electron (beta)  Energy = -2132.41678142883984
 Total Coulomb        Energy = 1412.30523602010248
 ---------------------------------------
  Cycle       Energy         DIIS error
 ---------------------------------------
    1   -2696.3093598198      1.67e-01  
 Alpha HF Exchange    Energy = -10.81289092962155
 Beta HF Exchange     Energy = -10.81289092962154
 DFT Correlation      Energy =  -3.17325463290838
 DFT Exchange         Energy = -86.01440456957653
 One-Electron (alpha) Energy = -2139.19517986808023
 One-Electron (beta)  Energy = -2139.19517986808069
 Total Coulomb        Energy = 1430.91866820244991
    2   -2692.2893076910      9.62e-03  
 Alpha HF Exchange    Energy = -10.71422394606090
 Beta HF Exchange     Energy = -10.71422394606091
 DFT Correlation      Energy =  -3.13814471122918
 DFT Exchange         Energy = -85.21002654224301
 One-Electron (alpha) Energy = -2129.88920749872250
 One-Electron (beta)  Energy = -2129.88920749872295
 Total Coulomb        Energy = 1411.27753161448118
    3   -2692.2816776242      4.55e-03  
 Alpha HF Exchange    Energy = -10.78879239070264
 Beta HF Exchange     Energy = -10.78879239070265
 DFT Correlation      Energy =  -3.16627584970681
 DFT Exchange         Energy = -85.81767521974778
 One-Electron (alpha) Energy = -2136.83609458263618
 One-Electron (beta)  Energy = -2136.83609458263618
 Total Coulomb        Energy = 1425.88359737117844
    4   -2692.3543027405      2.83e-03  
 Alpha HF Exchange    Energy = -10.76512572338849
 Beta HF Exchange     Energy = -10.76512572338849
 DFT Correlation      Energy =  -3.15617092300173
 DFT Exchange         Energy = -85.62157007913817
 One-Electron (alpha) Energy = -2134.85490714752586
 One-Electron (beta)  Energy = -2134.85490714752495
 Total Coulomb        Energy = 1421.62018443750048
    5   -2692.4017974021      5.51e-04  
 Alpha HF Exchange    Energy = -10.76311784095531
 Beta HF Exchange     Energy = -10.76311784095531
 DFT Correlation      Energy =  -3.15630750476957
 DFT Exchange         Energy = -85.60734166567576
 One-Electron (alpha) Energy = -2134.61800981715896
 One-Electron (beta)  Energy = -2134.61800981715760
 Total Coulomb        Energy = 1421.12668338164326
    6   -2692.4033962006      6.78e-05  
 Alpha HF Exchange    Energy = -10.76265208834884
 Beta HF Exchange     Energy = -10.76265208834883
 DFT Correlation      Energy =  -3.15609510265529
 DFT Exchange         Energy = -85.60347353033561
 One-Electron (alpha) Energy = -2134.55277173004833
 One-Electron (beta)  Energy = -2134.55277173004697
 Total Coulomb        Energy = 1420.99116840186366
    7   -2692.4034229635      2.51e-05  
 Alpha HF Exchange    Energy = -10.76273631024388
 Beta HF Exchange     Energy = -10.76273631024387
 DFT Correlation      Energy =  -3.15609826703600
 DFT Exchange         Energy = -85.60411303757037
 One-Electron (alpha) Energy = -2134.57039648978935
 One-Electron (beta)  Energy = -2134.57039648978798
 Total Coulomb        Energy = 1421.02722536476404
    8   -2692.4034266355      5.83e-06  
 Alpha HF Exchange    Energy = -10.76274551532893
 Beta HF Exchange     Energy = -10.76274551532894
 DFT Correlation      Energy =  -3.15610618871308
 DFT Exchange         Energy = -85.60419465969289
 One-Electron (alpha) Energy = -2134.57074975373416
 One-Electron (beta)  Energy = -2134.57074975373507
 Total Coulomb        Energy = 1421.02803964782197
    9   -2692.4034268343      5.82e-07  Convergence criterion met
 ---------------------------------------
 SCF time:   CPU 25.89s  wall 2.00s 
<S^2> =         -0.000000000
 Alpha HF Exchange    Energy = -10.76274551532893
 Beta HF Exchange     Energy = -10.76274551532894
 DFT Correlation      Energy =  -3.15610618871308
 DFT Exchange         Energy = -85.60419465969289
 One-Electron (alpha) Energy = -2134.57074975373416
 One-Electron (beta)  Energy = -2134.57074975373507
 Total Coulomb        Energy = 1421.02803964782197
 Nuclear repulsion Energy = 265.99582490440594
 SCF   energy in the final basis set =    -2692.4034268343
 Total energy in the final basis set =    -2692.4034268343
 
 --------------------------------------------------------------
 
                    Orbital Energies (a.u.)
 --------------------------------------------------------------
 
 Alpha MOs
 -- Occupied --
******* -62.510 -56.331 -56.328 -56.328 -10.233 -10.186 -10.186
 -8.700  -6.530  -6.517  -6.517  -2.624  -2.620  -2.620  -2.610
 -2.610  -0.878  -0.738  -0.695  -0.580  -0.479  -0.448  -0.431
 -0.394  -0.374  -0.361  -0.358  -0.269  -0.268
 -- Virtual --
  0.057   0.094   0.131   0.146   0.148   0.164   0.174   0.187
  0.191   0.212   0.249   0.352   0.367   0.377   0.479   0.485
  0.494   0.503   0.586   0.602   0.620   0.653   0.695   0.724
  0.764   0.805   0.847   0.850   0.872   0.877   0.909   0.912
  0.943   0.955   1.021   1.100   1.340   1.402   1.409   1.543
  1.551   1.742   1.798   1.799   1.834   1.870   1.910   2.035
[...]
     11  H        -0.7509093220    1.3111535393   -1.2471628337
   Point Group: c1    Number of degrees of freedom:    27


   Energy is  -2692.403478628

              Constraints and their Current Values
                                        Value     Constraint
   Distance(Angs):        1   2             1.700000     1.700000
 Hessian Updated using BFGS Update

 24 Hessian modes will be used to form the next step
  Hessian Eigenvalues:
     0.004309    0.055746    0.107910    0.139262    0.190904    0.197456
     0.198656    0.199288    0.267720    0.270116    0.333285    0.382243
     0.383682    0.428898    0.492309    0.668883    0.730956    0.798724
     0.818936    0.819003    0.819546    0.820386    0.820921    0.821808

 Minimum Search - Taking Simple RFO Step
 Searching for Lamda that Minimizes Along All modes
 Value Taken    Lamda =  -0.00000120
 Step Taken.  Stepsize is  0.007274

                             Maximum     Tolerance    Cnvgd?
         Gradient           0.000259      0.000300     YES
         Displacement       0.004535      0.001200      NO
         Energy change     -0.000003      0.000001      NO


 New Cartesian Coordinates Obtained by Inverse Iteration

 Displacement from previous Coordinates is:  0.008430
 ----------------------------------------------------------------
             Standard Nuclear Orientation (Angstroms)
    I     Atom           X                Y                Z
 ----------------------------------------------------------------
    1      Br      1.6048174016    -0.0004203619    -0.0196409582
    2      C      -0.0534088570     0.0000052432     0.3549061123
    3      C      -0.7839102013    -1.2619278799    -0.1535442535
    4      C      -0.7832681956     1.2622998874    -0.1535658966
    5      H      -0.1701324801     0.0000449300     1.4464968133
    6      H      -0.3158539149    -2.1698540716     0.2375360136
    7      H      -1.8319725328    -1.2486733297     0.1628178498
    8      H      -0.7522252232    -1.3089659724    -1.2472928546
    9      H      -0.3147122349     2.1699928879     0.2374577046
   10      H      -1.8313236639     1.2496206613     0.1628469902
   11      H      -0.7516100978     1.3092780058    -1.2473175210
 ----------------------------------------------------------------
 Nuclear Repulsion Energy =   266.0077042311 hartrees
 There are       30 alpha and       30 beta electrons

                       Distance Matrix (Angstroms)
             Br(  1)   C (  2)   C (  3)   C (  4)   H (  5)   H (  6)
   C (  2)  1.700000
   C (  3)  2.704691  1.544224
   C (  4)  2.704691  1.544223  2.524228
   H (  5)  2.302174  1.097814  2.128246  2.128244
   H (  6)  2.908876  2.188822  1.093778  3.485845  2.488229
   H (  7)  3.661004  2.181601  1.094849  2.739501  2.443121  1.775605
   H (  8)  2.962275  2.183756  1.095218  2.794389  3.051040  1.770950
   H (  9)  2.908846  2.188817  3.485844  1.093778  2.488243  4.339847
   H ( 10)  3.661007  2.181606  2.739535  1.094851  2.443103  3.740994
   H ( 11)  2.962305  2.183758  2.794366  1.095218  3.051040  3.807760
             H (  7)   H (  8)   H (  9)   H ( 10)
   H (  8)  1.777049
   H (  9)  3.740980  3.807763
   H ( 10)  2.498294  3.114372  1.775602
   H ( 11)  3.114286  2.618244  1.770951  1.777049
 
 Applying Cartesian multipole field
    Component          Value
    ---------          -----
     (2,0,0)        1.00000E-11
     (0,2,0)        2.00000E-11
     (0,0,2)       -3.00000E-10
 Nucleus-field energy     =    -0.0000000006 hartrees
 Requested basis set is 6-31G(d,p)
 There are 41 shells and 115 basis functions
 A cutoff of  1.0D-14 yielded    845 shell pairs
 There are      6737 function pairs
 Smallest overlap matrix eigenvalue = 7.22E-04
 Guess from superposition of atomic densities
 Warning:  Energy on first SCF cycle will be non-variational
 SAD guess density has 59.972873 electrons

 -----------------------------------------------------------------------
  General SCF calculation program by
  Eric Jon Sundstrom, Paul Horn, Yuezhi Mao, Dmitri Zuev, Alec White,
  David Stuck, Shaama M.S., Shane Yost, Joonho Lee, David Small,
  Daniel Levine, Susi Lehtola, Hugh Burton, Evgeny Epifanovsky
 -----------------------------------------------------------------------
 Exchange:     0.2000 Hartree-Fock + 0.0800 Slater + 0.7200 B88
 Correlation:  0.1900 VWN1RPA + 0.8100 LYP
 Using SG-1 standard quadrature grid
 using 12 threads for integral computing
 -------------------------------------------------------
 OpenMP Integral computing Module                
 Release: version 1.0, May 2013, Q-Chem Inc. Pittsburgh 
 -------------------------------------------------------
 -------------------------------------------------------
 OpenMP BLAS3 based DFT computing Module                
 Release: version 1.0, May 2013, Q-Chem Inc. Pittsburgh 
 -------------------------------------------------------
 A unrestricted SCF calculation will be
 performed using DIIS
 SCF converges when DIIS error is below 1.0e-06
 Alpha HF Exchange    Energy = -10.77462955011420
 Beta HF Exchange     Energy = -10.77462955011420
 DFT Correlation      Energy =  -3.13233174934063
 DFT Exchange         Energy = -85.09470527067984
 One-Electron (alpha) Energy = -2132.42903695503537
 One-Electron (beta)  Energy = -2132.42903695503537
 Total Coulomb        Energy = 1412.31849505411401
 ---------------------------------------
  Cycle       Energy         DIIS error
 ---------------------------------------
    1   -2696.3081707457      1.67e-01  
 Alpha HF Exchange    Energy = -10.81285588797220
 Beta HF Exchange     Energy = -10.81285588797219
 DFT Correlation      Energy =  -3.17322555866813
 DFT Exchange         Energy = -86.01416954233287
 One-Electron (alpha) Energy = -2139.21039509478351
 One-Electron (beta)  Energy = -2139.21039509478305
 Total Coulomb        Energy = 1430.93682871867213
    2   -2692.2893641174      9.62e-03  
 Alpha HF Exchange    Energy = -10.71418306102952
 Beta HF Exchange     Energy = -10.71418306102952
 DFT Correlation      Energy =  -3.13811955376882
 DFT Exchange         Energy = -85.20976022523337
 One-Electron (alpha) Energy = -2129.90197383617397
 One-Electron (beta)  Energy = -2129.90197383617397
 Total Coulomb        Energy = 1411.29061052662109
    3   -2692.2818788163      4.54e-03  
 Alpha HF Exchange    Energy = -10.78875823533487
 Beta HF Exchange     Energy = -10.78875823533486
 DFT Correlation      Energy =  -3.16623820225251
 DFT Exchange         Energy = -85.81742617908037
 One-Electron (alpha) Energy = -2136.85192688572261
 One-Electron (beta)  Energy = -2136.85192688572124
 Total Coulomb        Energy = 1425.90281103401412
    4   -2692.3545193590      2.83e-03  
 Alpha HF Exchange    Energy = -10.76507220643139
 Beta HF Exchange     Energy = -10.76507220643139
 DFT Correlation      Energy =  -3.15613898644318
 DFT Exchange         Energy = -85.62119506313944
 One-Electron (alpha) Energy = -2134.86718321568287
 One-Electron (beta)  Energy = -2134.86718321568242
 Total Coulomb        Energy = 1421.63228122422379
    5   -2692.4018594391      5.49e-04  
 Alpha HF Exchange    Energy = -10.76308025375490
 Beta HF Exchange     Energy = -10.76308025375490
 DFT Correlation      Energy =  -3.15627747870268
 DFT Exchange         Energy = -85.60708761100670
 One-Electron (alpha) Energy = -2134.63208417752503
 One-Electron (beta)  Energy = -2134.63208417752503
 Total Coulomb        Energy = 1421.14254102927634
    6   -2692.4034486925      6.79e-05  
 Alpha HF Exchange    Energy = -10.76261476980636
 Beta HF Exchange     Energy = -10.76261476980636
 DFT Correlation      Energy =  -3.15606527721096
 DFT Exchange         Energy = -85.60322134472531
 One-Electron (alpha) Energy = -2134.56695088291053
 One-Electron (beta)  Energy = -2134.56695088291053
 Total Coulomb        Energy = 1421.00723813912782
    7   -2692.4034755578      2.50e-05  
 Alpha HF Exchange    Energy = -10.76269847709920
 Beta HF Exchange     Energy = -10.76269847709920
 DFT Correlation      Energy =  -3.15606824393546
 DFT Exchange         Energy = -85.60385679262214
 One-Electron (alpha) Energy = -2134.58448269096834
 One-Electron (beta)  Energy = -2134.58448269097016
 Total Coulomb        Energy = 1421.04310392460729
    8   -2692.4034792176      5.81e-06  
 Alpha HF Exchange    Energy = -10.76270759147063
 Beta HF Exchange     Energy = -10.76270759147062
 DFT Correlation      Energy =  -3.15607613557090
 DFT Exchange         Energy = -85.60393771439436
 One-Electron (alpha) Energy = -2134.58482381241674
 One-Electron (beta)  Energy = -2134.58482381241538
 Total Coulomb        Energy = 1421.04389301197125
    9   -2692.4034794153      5.82e-07  Convergence criterion met
 ---------------------------------------
 SCF time:   CPU 26.95s  wall 2.00s 
<S^2> =          0.000000000
 Alpha HF Exchange    Energy = -10.76270759147063
 Beta HF Exchange     Energy = -10.76270759147062
 DFT Correlation      Energy =  -3.15607613557090
 DFT Exchange         Energy = -85.60393771439436
 One-Electron (alpha) Energy = -2134.58482381241674
 One-Electron (beta)  Energy = -2134.58482381241538
 Total Coulomb        Energy = 1421.04389301197125
 Nuclear repulsion Energy = 266.00770423046038
 SCF   energy in the final basis set =    -2692.4034794153
 Total energy in the final basis set =    -2692.4034794153
 
 --------------------------------------------------------------
 
                    Orbital Energies (a.u.)
 --------------------------------------------------------------
 
 Alpha MOs
 -- Occupied --
******* -62.510 -56.331 -56.327 -56.327 -10.233 -10.186 -10.186
 -8.699  -6.529  -6.517  -6.517  -2.624  -2.620  -2.619  -2.610
 -2.610  -0.878  -0.737  -0.695  -0.580  -0.479  -0.448  -0.431
 -0.394  -0.373  -0.362  -0.358  -0.268  -0.268
 -- Virtual --
  0.057   0.095   0.131   0.146   0.148   0.164   0.174   0.187
  0.191   0.212   0.249   0.351   0.368   0.377   0.479   0.485
  0.493   0.502   0.585   0.604   0.620   0.652   0.695   0.724
  0.764   0.803   0.846   0.851   0.873   0.879   0.909   0.913
  0.943   0.955   1.021   1.102   1.339   1.401   1.407   1.543
  1.551   1.744   1.796   1.801   1.832   1.871   1.909   2.033
  2.038   2.069   2.093   2.100   2.104   2.124   2.273   2.322
  2.350   2.384   2.522   2.543   2.622   2.639   2.698   2.721
  2.861   2.875   2.879   2.906   3.167   3.218   3.293   3.411
  3.442   3.461   3.501   4.252   4.470   4.578   4.747   4.761
  4.872   4.882   4.980   6.308  90.415
 
 Beta MOs
 -- Occupied --
******* -62.510 -56.331 -56.327 -56.327 -10.233 -10.186 -10.186
 -8.699  -6.529  -6.517  -6.517  -2.624  -2.620  -2.619  -2.610
 -2.610  -0.878  -0.737  -0.695  -0.580  -0.479  -0.448  -0.431
 -0.394  -0.373  -0.362  -0.358  -0.268  -0.268
 -- Virtual --
  0.057   0.095   0.131   0.146   0.148   0.164   0.174   0.187
  0.191   0.212   0.249   0.351   0.368   0.377   0.479   0.485
  0.493   0.502   0.585   0.604   0.620   0.652   0.695   0.724
  0.764   0.803   0.846   0.851   0.873   0.879   0.909   0.913
  0.943   0.955   1.021   1.102   1.339   1.401   1.407   1.543
  1.551   1.744   1.796   1.801   1.832   1.871   1.909   2.033
  2.038   2.069   2.093   2.100   2.104   2.124   2.273   2.322
  2.350   2.384   2.522   2.543   2.622   2.639   2.698   2.721
  2.861   2.875   2.879   2.906   3.167   3.218   3.293   3.411
  3.442   3.461   3.501   4.252   4.470   4.578   4.747   4.761
  4.872   4.882   4.980   6.308  90.415
 --------------------------------------------------------------
 
          Ground-State Mulliken Net Atomic Charges

     Atom                 Charge (a.u.)    Spin (a.u.)
  --------------------------------------------------------
      1 Br                   -0.069699       0.000000
      2 C                    -0.119472      -0.000000
      3 C                    -0.313090       0.000000
      4 C                    -0.313091      -0.000000
      5 H                     0.130225      -0.000000
      6 H                     0.118297      -0.000000
      7 H                     0.105910      -0.000000
      8 H                     0.118356      -0.000000
      9 H                     0.118298       0.000000
     10 H                     0.105910       0.000000
     11 H                     0.118355       0.000000
  --------------------------------------------------------
  Sum of atomic charges =     0.000000
  Sum of spin   charges =    -0.000000

 -----------------------------------------------------------------
                    Cartesian Multipole Moments
 -----------------------------------------------------------------
    Charge (ESU x 10^10)
                 0.0000
    Dipole Moment (Debye)
         X      -1.6177      Y       0.0004      Z       0.3375
       Tot       1.6525
    Quadrupole Moments (Debye-Ang)
        XX     -39.8948     XY       0.0004     YY     -38.4687
        XZ      -0.2585     YZ       0.0001     ZZ     -38.3414
    Octopole Moments (Debye-Ang^2)
       XXX     -49.0543    XXY       0.0042    XYY     -17.2309
       YYY       0.0145    XXZ      -0.3576    XYZ       0.0003
       YYZ       1.0311    XZZ     -17.6206    YZZ       0.0049
       ZZZ       1.4858
    Hexadecapole Moments (Debye-Ang^3)
      XXXX    -379.8571   XXXY       0.0163   XXYY    -105.7873
      XYYY       0.0278   YYYY    -210.7178   XXXZ     -10.2499
      XXYZ       0.0024   XYYZ      -1.0173   YYYZ       0.0012
      XXZZ     -81.0653   XYZZ       0.0086   YYZZ     -47.8512
      XZZZ      -2.6808   YZZZ       0.0013   ZZZZ     -68.7639
 -----------------------------------------------------------------
 Calculating analytic gradient of the SCF energy
 Gradient of SCF Energy
            1           2           3           4           5           6
    1  -0.1521385   0.1522116  -0.0000579  -0.0000584   0.0001106   0.0000346
    2   0.0000391  -0.0000392   0.0000974  -0.0000976   0.0000000   0.0000208
    3   0.0342467  -0.0344345  -0.0001015  -0.0001022  -0.0000594   0.0000028
            7           8           9          10          11
    1  -0.0000286  -0.0000396   0.0000342  -0.0000284  -0.0000395
    2  -0.0000538  -0.0000307  -0.0000207   0.0000538   0.0000309
    3   0.0001514   0.0000707   0.0000033   0.0001516   0.0000710
 Max gradient component =       1.522E-01
 RMS gradient           =       3.841E-02
 Gradient time:  CPU 11.65 s  wall 1.11 s
 Geometry Optimization Parameters
   NAtoms,    NIC,     NZ,  NCons,   NDum,   NFix, NCnnct, MaxDiis
       11      68       0       1       0       0       0       0

 Cartesian Hessian Update
 Hessian Updated using BFGS Update


** CONSTRAINED OPTIMIZATION IN DELOCALIZED INTERNAL COORDINATES **
   Searching for a Minimum

   Optimization Cycle:  12

                       Coordinates (Angstroms)
     ATOM                X               Y               Z
      1  Br        1.6048174016   -0.0004203619   -0.0196409582
      2  C        -0.0534088570    0.0000052432    0.3549061123
      3  C        -0.7839102013   -1.2619278799   -0.1535442535
      4  C        -0.7832681956    1.2622998874   -0.1535658966
      5  H        -0.1701324801    0.0000449300    1.4464968133
      6  H        -0.3158539149   -2.1698540716    0.2375360136
      7  H        -1.8319725328   -1.2486733297    0.1628178498
      8  H        -0.7522252232   -1.3089659724   -1.2472928546
      9  H        -0.3147122349    2.1699928879    0.2374577046
     10  H        -1.8313236639    1.2496206613    0.1628469902
     11  H        -0.7516100978    1.3092780058   -1.2473175210
   Point Group: c1    Number of degrees of freedom:    27


   Energy is  -2692.403479415

              Constraints and their Current Values
                                        Value     Constraint
   Distance(Angs):        1   2             1.700000     1.700000
 Hessian Updated using BFGS Update

 26 Hessian modes will be used to form the next step
  Hessian Eigenvalues:
     0.004715    0.055309    0.100174    0.107911    0.173039    0.197456
     0.198429    0.199288    0.270116    0.272522    0.323966    0.382358
     0.383682    0.383682    0.383682    0.428898    0.493055    0.667645
     0.730956    0.785464    0.818754    0.818936    0.819546    0.820889
     0.820961    0.821851

 Minimum Search - Taking Simple RFO Step
 Searching for Lamda that Minimizes Along All modes
 Value Taken    Lamda =   0.00000000
 Step Taken.  Stepsize is  0.001837

                             Maximum     Tolerance    Cnvgd?
         Gradient           0.000107      0.000300     YES
         Displacement       0.000886      0.001200     YES
         Energy change     -0.000001      0.000001     YES


                       Distance Matrix (Angstroms)
             Br(  1)   C (  2)   C (  3)   C (  4)   H (  5)   H (  6)
   C (  2)  1.700000
   C (  3)  2.704691  1.544224
   C (  4)  2.704691  1.544223  2.524228
   H (  5)  2.302174  1.097814  2.128246  2.128244
   H (  6)  2.908876  2.188822  1.093778  3.485845  2.488229
   H (  7)  3.661004  2.181601  1.094849  2.739501  2.443121  1.775605
   H (  8)  2.962275  2.183756  1.095218  2.794389  3.051040  1.770950
   H (  9)  2.908846  2.188817  3.485844  1.093778  2.488243  4.339847
   H ( 10)  3.661007  2.181606  2.739535  1.094851  2.443103  3.740994
   H ( 11)  2.962305  2.183758  2.794366  1.095218  3.051040  3.807760
             H (  7)   H (  8)   H (  9)   H ( 10)
   H (  8)  1.777049
   H (  9)  3.740980  3.807763
   H ( 10)  2.498294  3.114372  1.775602
   H ( 11)  3.114286  2.618244  1.770951  1.777049
 
 Final energy is   -2692.40347941531     


 ******************************
 **  OPTIMIZATION CONVERGED  **
 ******************************

                       Coordinates (Angstroms)
     ATOM                X               Y               Z
      1  Br        1.6048174016   -0.0004203619   -0.0196409582
      2  C        -0.0534088570    0.0000052432    0.3549061123
      3  C        -0.7839102013   -1.2619278799   -0.1535442535
      4  C        -0.7832681956    1.2622998874   -0.1535658966
      5  H        -0.1701324801    0.0000449300    1.4464968133
      6  H        -0.3158539149   -2.1698540716    0.2375360136
      7  H        -1.8319725328   -1.2486733297    0.1628178498
      8  H        -0.7522252232   -1.3089659724   -1.2472928546
      9  H        -0.3147122349    2.1699928879    0.2374577046
     10  H        -1.8313236639    1.2496206613    0.1628469902
     11  H        -0.7516100978    1.3092780058   -1.2473175210

Z-matrix Print:
$molecule
0 1
Br
C  1 1.700000
H  2 1.097814 1 108.831372
C  2 1.544223 1 112.872568 3 117.493795 0
H  4 1.093778 2 110.988171 1 -56.235950 0
H  4 1.094851 2 110.353448 1 -176.482866 0
H  4 1.095218 2 110.501602 1 63.554411 0
C  2 1.544224 1 112.872514 3 -117.493820 0
H  8 1.093778 2 110.988522 1 56.239038 0
H  8 1.094849 2 110.353066 1 176.486391 0
H  8 1.095218 2 110.501349 1 -63.551293 0
$end

PES scan, value:    1.7000 energy: -2692.4034794153
------- Summary of potential scan: ------ 
    1.7000     -2692.4034794153
----------------------------------------- 
Archival summary:
1\1\hpc0242\JobtypUnspecified\ProcedureUnspecified\6-31G**\r137\knomura\WedMar1313:54:352019WedMar1313:54:352019\0\\#,JobtypUnspecified,ProcedureUnspecified,6-31G**,\\0,1\Br\C,1,1.7\H,2,1.09781,1,108.831\C,2,1.54422,1,112.873,3,117.494,0\H,4,1.09378,2,110.988,1,-56.2359,0\H,4,1.09485,2,110.353,1,-176.483,0\H,4,1.09522,2,110.502,1,63.5544,0\C,2,1.54422,1,112.873,3,-117.494,0\H,8,1.09378,2,110.989,1,56.239,0\H,8,1.09485,2,110.353,1,176.486,0\H,8,1.09522,2,110.501,1,-63.5513,0\\\@

 Total job time:  45.24s(wall), 516.70s(cpu) 
 Wed Mar 13 13:54:35 2019

        *************************************************************
        *                                                           *
        *  Thank you very much for using Q-Chem.  Have a nice day.  *
        *                                                           *
        *************************************************************


