
Running Job 1 of 1 halogens/Bromine/01/Br_2.xyz.data/inputs/bond_triplet_2.4.in
qchem halogens/Bromine/01/Br_2.xyz.data/inputs/bond_triplet_2.4.in_23587.0 /staging/scratch/2868759/qchem23587/ 1
/usr/usc/qchem/5.1.1/exe/qcprog.exe_s halogens/Bromine/01/Br_2.xyz.data/inputs/bond_triplet_2.4.in_23587.0 /staging/scratch/2868759/qchem23587/
Check license passed

                  Welcome to Q-Chem
     A Quantum Leap Into The Future Of Chemistry


 Q-Chem 5.1, Q-Chem, Inc., Pleasanton, CA (2018)

 Yihan Shao,  Zhengting Gan,  E. Epifanovsky,  A. T. B. Gilbert,  M. Wormit,  
 J. Kussmann,  A. W. Lange,  A. Behn,  Jia Deng,  Xintian Feng,  D. Ghosh,  
 M. Goldey,  P. R. Horn,  L. D. Jacobson,  I. Kaliman,  T. Kus,  A. Landau,  
 Jie Liu,  E. I. Proynov,  R. M. Richard,  R. P. Steele,  E. J. Sundstrom,  
 H. L. Woodcock III,  P. M. Zimmerman,  D. Zuev,  B. Albrecht,  E. Alguire,  
 S. A. Baeppler,  D. Barton,  Z. Benda,  Y. A. Bernard,  E. J. Berquist,  
 K. B. Bravaya,  H. Burton,  D. Casanova,  Chun-Min Chang,  Yunqing Chen,  
 A. Chien,  K. D. Closser,  M. P. Coons,  S. Coriani,  S. Dasgupta,  
 A. L. Dempwolff,  M. Diedenhofen,  Hainam Do,  R. G. Edgar,  Po-Tung Fang,  
 S. Faraji,  S. Fatehi,  Qingguo Feng,  K. D. Fenk,  J. Fosso-Tande,  
 Qinghui Ge,  A. Ghysels,  G. Gidofalvi,  J. Gomes,  J. Gonthier,  A. Gunina,  
 D. Hait,  M. W. D. Hanson-Heine,  P. H. P. Harbach,  A. W. Hauser,  
 J. E. Herr,  E. G. Hohenstein,  Z. C. Holden,  Kerwin Hui,  B. C. Huynh,  
 T.-C. Jagau,  Hyunjun Ji,  B. Kaduk,  K. Khistyaev,  Jaehoon Kim,  
 P. Klunzinger,  K. Koh,  D. Kosenkov,  L. Koulias,  T. Kowalczyk,  
 C. M. Krauter,  A. Kunitsa,  Ka Un Lao,  A. Laurent,  K. V. Lawler,  
 Joonho Lee,  D. Lefrancois,  S. Lehtola,  D. S. Levine,  Yi-Pei Li,  
 You-Sheng Lin,  Fenglai Liu,  E. Livshits,  A. Luenser,  P. Manohar,  
 E. Mansoor,  S. F. Manzer,  Shan-Ping Mao,  Yuezhi Mao,  N. Mardirossian,  
 A. V. Marenich,  T. Markovich,  L. A. Martinez-Martinez,  S. A. Maurer,  
 N. J. Mayhall,  S. C. McKenzie,  J.-M. Mewes,  A. F. Morrison,  
 J. W. Mullinax,  K. Nanda,  T. S. Nguyen-Beck,  R. Olivares-Amaya,  
 J. A. Parkhill,  T. M. Perrine,  F. Plasser,  P. Pokhilko,  S. Prager,  
 A. Prociuk,  E. Ramos,  D. R. Rehn,  F. Rob,  M. Schneider,  N. Sergueev,  
 S. M. Sharada,  S. Sharma,  D. W. Small,  T. Stauch,  T. Stein,  
 Yu-Chuan Su,  A. J. W. Thom,  A. Tkatchenko,  T. Tsuchimochi,  N. M. Tubman,  
 L. Vogt,  M. L. Vidal,  O. Vydrov,  M. A. Watson,  J. Wenzel,  
 M. de Wergifosse,  T. A. Wesolowski,  A. White,  J. Witte,  A. Yamada,  
 Jun Yang,  K. Yao,  S. Yeganeh,  S. R. Yost,  Zhi-Qiang You,  A. Zech,  
 Igor Ying Zhang,  Xing Zhang,  Yan Zhao,  Ying Zhu,  B. R. Brooks,  
 G. K. L. Chan,  C. J. Cramer,  M. S. Gordon,  W. J. Hehre,  A. Klamt,  
 M. W. Schmidt,  C. D. Sherrill,  D. G. Truhlar,  A. Aspuru-Guzik,  R. Baer,  
 A. T. Bell,  N. A. Besley,  Jeng-Da Chai,  A. E. DePrince, III,  
 R. A. DiStasio Jr.,  A. Dreuw,  B. D. Dunietz,  T. R. Furlani,  
 Chao-Ping Hsu,  Yousung Jung,  Jing Kong,  D. S. Lambrecht,  WanZhen Liang,  
 C. Ochsenfeld,  V. A. Rassolov,  L. V. Slipchenko,  J. E. Subotnik,  
 T. Van Voorhis,  J. M. Herbert,  A. I. Krylov,  P. M. W. Gill,  M. Head-Gordon

 Contributors to earlier versions of Q-Chem not listed above: 
 R. D. Adamson,  B. Austin,  J. Baker,  G. J. O. Beran,  K. Brandhorst,  
 S. T. Brown,  E. F. C. Byrd,  A. K. Chakraborty,  C.-L. Cheng,  
 Siu Hung Chien,  D. M. Chipman,  D. L. Crittenden,  H. Dachsel,  
 R. J. Doerksen,  A. D. Dutoi,  L. Fusti-Molnar,  W. A. Goddard III,  
 A. Golubeva-Zadorozhnaya,  S. R. Gwaltney,  G. Hawkins,  A. Heyden,  
 S. Hirata,  G. Kedziora,  F. J. Keil,  C. Kelley,  Jihan Kim,  R. A. King,  
 R. Z. Khaliullin,  P. P. Korambath,  W. Kurlancheek,  A. M. Lee,  M. S. Lee,  
 S. V. Levchenko,  Ching Yeh Lin,  D. Liotard,  R. C. Lochan,  I. Lotan,  
 P. E. Maslen,  N. Nair,  D. P. O'Neill,  D. Neuhauser,  E. Neuscamman,  
 C. M. Oana,  R. Olson,  B. Peters,  R. Peverati,  P. A. Pieniazek,  
 Y. M. Rhee,  J. Ritchie,  M. A. Rohrdanz,  E. Rosta,  N. J. Russ,  
 H. F. Schaefer III,  N. E. Schultz,  N. Shenvi,  A. C. Simmonett,  A. Sodt,  
 D. Stuck,  K. S. Thanthiriwatte,  V. Vanovschi,  Tao Wang,  A. Warshel,  
 C. F. Williams,  Q. Wu,  X. Xu,  W. Zhang

 Please cite Q-Chem as follows:
 Y. Shao et al., Mol. Phys. 113, 184-215 (2015)
 DOI: 10.1080/00268976.2014.952696

 Q-Chem 5.1.1 for Intel X86 EM64T Linux

 Parts of Q-Chem use Armadillo 8.300.2 (Tropical Shenanigans).
 http://arma.sourceforge.net/

 Q-Chem begins on Wed Mar 13 15:27:41 2019  

Host: 
0

     Scratch files written to /staging/scratch/2868759/qchem23587//
 Aug318 |scratch|qcdevops|jenkins|workspace|build_RNUM 6013   
Processing $rem in /usr/usc/qchem/5.1.1/config/preferences.
 MEM_TOTAL  2000 
Input Ideriv = 2
Curr. Ideriv = -1
Max.  Ideriv = 2

Checking the input file for inconsistencies... 	...done.

--------------------------------------------------------------
User input:
--------------------------------------------------------------

$comment
potential surface scanner
$end

$rem
JOBTYPE  PES_SCAN
UNRESTRICTED TRUE
SYM_IGNORE  TRUE
GEOM_OPT_MAX_CYCLES 400
SCF_MAX_CYCLES 400
METHOD   B3LYP
BASIS   6-31G**
PDB_PRINT 2
SCF_CONVERGENCE 6
THRESH 14
SCF_PRINT 1
$end
$molecule
0 3
Br 2.090552 0.001539 0.989761
C -0.260928 0.000180 0.140913
C -0.882381 -1.306600 -0.217684
C -0.870390 1.305138 -0.244014
H 0.220891 0.007976 1.161143
H -0.225964 -2.147565 0.025448
H -1.845118 -1.474849 0.294326
H -1.092191 -1.336317 -1.295099
H -0.202299 2.143927 -0.026383
H -1.826460 1.496541 0.272229
H -1.089315 1.311432 -1.319937
$end
$scan
stre 1 2 2.400000 2.401000 0.100000
$end
--------------------------------------------------------------
 ----------------------------------------------------------------
             Standard Nuclear Orientation (Angstroms)
    I     Atom           X                Y                Z
 ----------------------------------------------------------------
    1      Br      2.0905520000     0.0015390000     0.9897610000
    2      C      -0.2609280000     0.0001800000     0.1409130000
    3      C      -0.8823810000    -1.3066000000    -0.2176840000
    4      C      -0.8703900000     1.3051380000    -0.2440140000
    5      H       0.2208910000     0.0079760000     1.1611430000
    6      H      -0.2259640000    -2.1475650000     0.0254480000
    7      H      -1.8451180000    -1.4748490000     0.2943260000
    8      H      -1.0921910000    -1.3363170000    -1.2950990000
    9      H      -0.2022990000     2.1439270000    -0.0263830000
   10      H      -1.8264600000     1.4965410000     0.2722290000
   11      H      -1.0893150000     1.3114320000    -1.3199370000
 ----------------------------------------------------------------
 Nuclear Repulsion Energy =   222.5676403151 hartrees
 There are       31 alpha and       29 beta electrons
 Requested basis set is 6-31G(d,p)
 There are 41 shells and 115 basis functions

 Total QAlloc Memory Limit   2000 MB
 Mega-Array Size       188 MB
 MEM_STATIC part       192 MB
A total of 1 constraints
  
            1
    1   1.0100000
    2   1.0100000
    3   2.0100000
    4   2.4000000
    5   2.4010000
    6   0.1000000
    7   0.0000000
    8   0.0000000
    9   0.0000000
   10   0.0000000

                       Distance Matrix (Angstroms)
             Br(  1)   C (  2)   C (  3)   C (  4)   H (  5)   H (  6)
   C (  2)  2.500001
   C (  3)  3.465181  1.490795
   C (  4)  3.462477  1.490815  2.611898
   H (  5)  1.877510  1.128308  2.201473  2.201815
   H (  6)  3.303755  2.151131  1.094175  3.522649  2.477063
   H (  7)  4.260616  2.170001  1.103324  2.994701  2.686733  1.773838
   H (  8)  4.140084  2.130576  1.098056  2.851536  3.092642  1.775477
   H (  9)  3.298415  2.151064  3.522108  1.094201  2.480241  4.291870
   H ( 10)  4.253571  2.169615  2.998149  1.103273  2.682842  3.987731
   H ( 11)  4.142714  2.130655  2.848135  1.097988  3.093767  3.810524
             H (  7)   H (  8)   H (  9)   H ( 10)
   H (  8)  1.764189
   H (  9)  3.987135  3.809678
   H ( 10)  2.971531  3.319752  1.773747
   H ( 11)  3.307634  2.647867  1.775705  1.764268
 
 A cutoff of  1.0D-14 yielded    808 shell pairs
 There are      6446 function pairs
 
 -------------------------------------------------------
 OpenMP Integral Computing Module                       
 Release: version 1.0, May 2013, Q-Chem Inc. Pittsburgh 
 -------------------------------------------------------
 Integral Job Info:
 Integral job number is                      11
 Integral operator is                         1
 short-range coefficients                     0
 long-range coefficients              100000000
 Omega coefficients                           0
 if combine SR and LR in K                    0
 Integral screening is                        0
 Integral computing path is                   2
 max size of driver memory is            800000
 size of driver memory is                593474
 size of scratch memory is             15267112
 max col of scratch BK array               1296
 max len of scratch array in speh3          155
 max len of scratch index in speh4           18
 max int batch size is                      520
 min int batch size is                       52
 fixed nKL is                                52
 max L of basis functions is                  2
 order of int derivative is                   0
 number of shells is                         41
 number of basis is                         115
 number of cartesian basis is               115
 number of contracted shell pairs           808
 number of primitive shell pairs           3124
 maxK2 (contraction) of shell pair           36
 max number of K2 of shell pair               1
 max number of CS2 of shell pair             59
 max number of PS2 of shell pair            222
 mem total for path MDJ                  519708
 -------------------------------------------------------
 Smallest overlap matrix eigenvalue = 7.25E-04

 Scale SEOQF with 1.000000e-01/1.000000e-01/1.000000e-01

 Standard Electronic Orientation quadrupole field applied
 Nucleus-field energy     =     0.0000000045 hartrees
 Guess from superposition of atomic densities
 Warning:  Energy on first SCF cycle will be non-variational
 SAD guess density has 59.972873 electrons

 -----------------------------------------------------------------------
  General SCF calculation program by
  Eric Jon Sundstrom, Paul Horn, Yuezhi Mao, Dmitri Zuev, Alec White,
  David Stuck, Shaama M.S., Shane Yost, Joonho Lee, David Small,
  Daniel Levine, Susi Lehtola, Hugh Burton, Evgeny Epifanovsky
 -----------------------------------------------------------------------
 Exchange:     0.2000 Hartree-Fock + 0.0800 Slater + 0.7200 B88
 Correlation:  0.1900 VWN1RPA + 0.8100 LYP
 Using SG-1 standard quadrature grid
 using 12 threads for integral computing
 -------------------------------------------------------
 OpenMP Integral computing Module                
 Release: version 1.0, May 2013, Q-Chem Inc. Pittsburgh 
 -------------------------------------------------------
 -------------------------------------------------------
 OpenMP BLAS3 based DFT computing Module                
 Release: version 1.0, May 2013, Q-Chem Inc. Pittsburgh 
 -------------------------------------------------------
 A unrestricted SCF calculation will be
 performed using DIIS
 SCF converges when DIIS error is below 1.0e-06
 Alpha HF Exchange    Energy = -10.73171495489566
 Beta HF Exchange     Energy = -10.73171495489566
 DFT Correlation      Energy =  -3.11786418448745
 DFT Exchange         Energy = -85.01094505168101
 One-Electron (alpha) Energy = -2089.16508981684683
 One-Electron (beta)  Energy = -2089.16508981684683
 Total Coulomb        Energy = 1369.54750366041549
 ---------------------------------------
  Cycle       Energy         DIIS error
 ---------------------------------------
    1   -2695.8072747996      1.64e-01  
 Alpha HF Exchange    Energy = -10.90377000597145
 Beta HF Exchange     Energy = -10.68926704882438
 DFT Correlation      Energy =  -3.15129513017872
 DFT Exchange         Energy = -85.91344961776623
 One-Electron (alpha) Energy = -2114.81059783722594
 One-Electron (beta)  Energy = -2077.07901671721083
 Total Coulomb        Energy = 1387.78355050310392
    2   -2692.1962055344      9.58e-03  
 Alpha HF Exchange    Energy = -10.80402947072887
 Beta HF Exchange     Energy = -10.60023394708820
 DFT Correlation      Energy =  -3.11619670779569
 DFT Exchange         Energy = -85.13455296113059
 One-Electron (alpha) Energy = -2105.72259565951754
 One-Electron (beta)  Energy = -2067.44356050488295
 Total Coulomb        Energy = 1368.03863156314060
    3   -2692.2148973683      4.21e-03  
 Alpha HF Exchange    Energy = -10.88194088151188
 Beta HF Exchange     Energy = -10.67109284081422
 DFT Correlation      Energy =  -3.14100845669397
 DFT Exchange         Energy = -85.73204000110476
 One-Electron (alpha) Energy = -2112.83949171288077
 One-Electron (beta)  Energy = -2073.94742995575689
 Total Coulomb        Energy = 1382.36443220416868
    4   -2692.2809313249      2.41e-03  
 Alpha HF Exchange    Energy = -10.85697718471329
 Beta HF Exchange     Energy = -10.64773373562420
 DFT Correlation      Energy =  -3.13250976215876
 DFT Exchange         Energy = -85.53654034035132
 One-Electron (alpha) Energy = -2110.84789093454538
 One-Electron (beta)  Energy = -2072.13982558972975
 Total Coulomb        Energy = 1378.28412210113515
    5   -2692.3097151263      2.70e-04  
 Alpha HF Exchange    Energy = -10.85561014072848
 Beta HF Exchange     Energy = -10.64671802425873
 DFT Correlation      Energy =  -3.13237552466866
 DFT Exchange         Energy = -85.52704225343852
 One-Electron (alpha) Energy = -2110.61379690825333
 One-Electron (beta)  Energy = -2071.80716214186032
 Total Coulomb        Energy = 1377.70480827186452
    6   -2692.3102564017      7.78e-05  
 Alpha HF Exchange    Energy = -10.85526293546531
 Beta HF Exchange     Energy = -10.64662260097797
 DFT Correlation      Energy =  -3.13209122121317
 DFT Exchange         Energy = -85.52477781687028
 One-Electron (alpha) Energy = -2110.59249319851870
 One-Electron (beta)  Energy = -2071.78871480910993
 Total Coulomb        Energy = 1377.66202765555522
    7   -2692.3102946069      2.01e-05  
 Alpha HF Exchange    Energy = -10.85541092924310
 Beta HF Exchange     Energy = -10.64672756593198
 DFT Correlation      Energy =  -3.13209868352989
 DFT Exchange         Energy = -85.52568263273182
 One-Electron (alpha) Energy = -2110.61289712306916
 One-Electron (beta)  Energy = -2071.79847429609072
 Total Coulomb        Energy = 1377.69335285104125
    8   -2692.3102980599      1.20e-05  
 Alpha HF Exchange    Energy = -10.85541283901607
 Beta HF Exchange     Energy = -10.64677863333501
 DFT Correlation      Energy =  -3.13209180838646
 DFT Exchange         Energy = -85.52584153680925
 One-Electron (alpha) Energy = -2110.61474201733290
 One-Electron (beta)  Energy = -2071.80039156897283
 Total Coulomb        Energy = 1377.69731885813349
    9   -2692.3102992261      2.17e-06  
 Alpha HF Exchange    Energy = -10.85541319570616
 Beta HF Exchange     Energy = -10.64679227749143
 DFT Correlation      Energy =  -3.13208821195641
 DFT Exchange         Energy = -85.52587889081347
 One-Electron (alpha) Energy = -2110.61435264826150
 One-Electron (beta)  Energy = -2071.79938825735826
 Total Coulomb        Energy = 1377.69597386359646
   10   -2692.3102992983      4.41e-07  Convergence criterion met
 ---------------------------------------
 SCF time:   CPU 30.31s  wall 3.00s 
<S^2> =          2.006001654
 Alpha HF Exchange    Energy = -10.85541319570616
 Beta HF Exchange     Energy = -10.64679227749143
 DFT Correlation      Energy =  -3.13208821195641
 DFT Exchange         Energy = -85.52587889081347
 One-Electron (alpha) Energy = -2110.61435264826150
 One-Electron (beta)  Energy = -2071.79938825735826
 Total Coulomb        Energy = 1377.69597386359646
 Nuclear repulsion Energy = 222.56764031966401
 SCF   energy in the final basis set =    -2692.3102992983
 Total energy in the final basis set =    -2692.3102992983
 
 --------------------------------------------------------------
 
                    Orbital Energies (a.u.)
 --------------------------------------------------------------
 
 Alpha MOs
 -- Occupied --
******* -62.513 -56.336 -56.330 -56.330 -10.222 -10.196 -10.196
 -8.701  -6.534  -6.517  -6.517  -2.626  -2.622  -2.622  -2.609
 -2.609  -0.818  -0.763  -0.708  -0.600  -0.480  -0.448  -0.428
 -0.402  -0.392  -0.374  -0.304  -0.292  -0.279  -0.192
 -- Virtual --
  0.089   0.126   0.132   0.151   0.164   0.166   0.175   0.214
  0.239   0.263   0.316   0.335   0.346   0.462   0.482   0.537
  0.548   0.561   0.596   0.601   0.605   0.631   0.674   0.706
  0.727   0.779   0.796   0.840   0.849   0.856   0.864   0.912
  0.924   0.933   0.997   1.272   1.279   1.342   1.451   1.551
  1.637   1.765   1.788   1.825   1.854   1.873   1.978   2.029
  2.032   2.054   2.080   2.095   2.105   2.252   2.266   2.331
  2.354   2.477   2.547   2.616   2.635   2.702   2.705   2.826
  2.844   2.885   2.922   3.139   3.187   3.278   3.407   3.435
  3.438   3.453   4.169   4.467   4.550   4.717   4.723   4.761
  4.802   4.896   6.282  90.291
 
 Beta MOs
 -- Occupied --
******* -62.512 -56.331 -56.329 -56.329 -10.204 -10.196 -10.196
 -8.697  -6.525  -6.515  -6.515  -2.619  -2.617  -2.616  -2.608
 -2.608  -0.791  -0.732  -0.705  -0.566  -0.464  -0.428  -0.420
 -0.395  -0.372  -0.368  -0.284  -0.280
 -- Virtual --
 -0.170  -0.042   0.092   0.132   0.136   0.162   0.171   0.177
  0.177   0.230   0.254   0.275   0.338   0.342   0.350   0.477
  0.487   0.558   0.565   0.580   0.611   0.620   0.623   0.645
  0.704   0.730   0.735   0.800   0.812   0.849   0.856   0.866
  0.869   0.922   0.932   0.937   1.023   1.291   1.296   1.347
  1.482   1.553   1.649   1.779   1.811   1.846   1.878   1.904
  2.017   2.034   2.039   2.061   2.087   2.097   2.114   2.266
  2.270   2.338   2.364   2.500   2.565   2.637   2.645   2.707
  2.712   2.832   2.852   2.896   2.931   3.145   3.194   3.295
  3.410   3.444   3.446   3.457   4.194   4.467   4.565   4.722
  4.726   4.772   4.816   4.911   6.296  90.296
 --------------------------------------------------------------
 
          Ground-State Mulliken Net Atomic Charges

     Atom                 Charge (a.u.)    Spin (a.u.)
  --------------------------------------------------------
      1 Br                   -0.128624       0.811411
      2 C                    -0.087441       1.096298
      3 C                    -0.337324      -0.059657
      4 C                    -0.337231      -0.059692
      5 H                     0.129323       0.006484
      6 H                     0.133286       0.012146
      7 H                     0.118992       0.061078
      8 H                     0.128348       0.029437
      9 H                     0.133448       0.012418
     10 H                     0.119074       0.061035
     11 H                     0.128149       0.029043
  --------------------------------------------------------
  Sum of atomic charges =    -0.000000
  Sum of spin   charges =     2.000000

 -----------------------------------------------------------------
                    Cartesian Multipole Moments
 -----------------------------------------------------------------
    Charge (ESU x 10^10)
                -0.0000
    Dipole Moment (Debye)
         X      -2.3533      Y       0.0010      Z      -0.6830
       Tot       2.4504
    Quadrupole Moments (Debye-Ang)
        XX     -41.0072     XY       0.0006     YY     -38.1662
        XZ      -1.5043     YZ      -0.0100     ZZ     -39.7081
    Octopole Moments (Debye-Ang^2)
       XXX     -72.6695    XXY      -0.0464    XYY     -25.7003
       YYY      -0.0855    XXZ     -18.9522    XYZ      -0.0237
       YYZ     -16.8575    XZZ     -28.3606    YZZ      -0.0386
       ZZZ     -52.3339
    Hexadecapole Moments (Debye-Ang^3)
      XXXX    -597.5508   XXXY      -0.7263   XXYY    -143.7114
      XYYY      -0.5905   YYYY    -221.3142   XXXZ    -129.3718
      XXYZ       0.2283   XYYZ     -43.4754   YYYZ       0.6483
      XXZZ    -139.0041   XYZZ      -0.2071   YYZZ     -68.5836
      XZZZ    -130.3131   YZZZ       0.7715   ZZZZ    -181.7548
 -----------------------------------------------------------------
 Calculating analytic gradient of the SCF energy
 Gradient of SCF Energy
            1           2           3           4           5           6
    1  -0.0355015   0.0355703  -0.0000268  -0.0000194  -0.0000218  -0.0000205
    2  -0.0000280   0.0000290  -0.0000072   0.0000084  -0.0000102   0.0000000
    3  -0.0128597   0.0128147   0.0000806   0.0000775  -0.0000713   0.0000254
            7           8           9          10          11
    1  -0.0000240   0.0000244   0.0000009  -0.0000078   0.0000261
    2   0.0000279  -0.0000209  -0.0000027  -0.0000122   0.0000160
    3  -0.0000288  -0.0000097   0.0000100  -0.0000259  -0.0000127
 Max gradient component =       3.557E-02
 RMS gradient           =       9.302E-03
 Gradient time:  CPU 10.74 s  wall 1.00 s
 Geometry Optimization Parameters
   NAtoms,    NIC,     NZ,  NCons,   NDum,   NFix, NCnnct, MaxDiis
       11      75       0       1       0       0       0       0


** CONSTRAINED OPTIMIZATION IN DELOCALIZED INTERNAL COORDINATES **
   Searching for a Minimum

   Optimization Cycle:   1

                       Coordinates (Angstroms)
     ATOM                X               Y               Z
      1  Br        2.0905520000    0.0015390000    0.9897610000
      2  C        -0.2609280000    0.0001800000    0.1409130000
      3  C        -0.8823810000   -1.3066000000   -0.2176840000
      4  C        -0.8703900000    1.3051380000   -0.2440140000
      5  H         0.2208910000    0.0079760000    1.1611430000
      6  H        -0.2259640000   -2.1475650000    0.0254480000
      7  H        -1.8451180000   -1.4748490000    0.2943260000
      8  H        -1.0921910000   -1.3363170000   -1.2950990000
      9  H        -0.2022990000    2.1439270000   -0.0263830000
     10  H        -1.8264600000    1.4965410000    0.2722290000
     11  H        -1.0893150000    1.3114320000   -1.3199370000
   Point Group: c1    Number of degrees of freedom:    27


   Energy is  -2692.310299298

              Constraints and their Current Values
                                        Value     Constraint
   Distance(Angs):        1   2             2.500001     2.400000

 Attempting to Generate Delocalized Internal Coordinates

   Using Lagrange Multiplier Algorithm


 28 Hessian modes will be used to form the next step
  Hessian Eigenvalues:
    -0.973947    0.045000    0.045000    0.049083    0.065952    0.081279
     0.081310    0.082627    0.083409    0.083413    0.160000    0.160000
     0.160000    0.160000    0.160000    0.160000    0.160652    0.208513
     0.273140    0.333172    0.333227    0.333604    0.333626    0.338980
     0.339056    0.343316    0.343346    1.026750

 Minimum Search - Taking P-RFO Step
 Searching for Lamda that Maximizes Along the Constraint modes Only
 Value Taken    Lamda =   0.02615816
 Searching for Lamda that Minimizes Along All other modes
 Value Taken    Lamda =  -0.01058337
 Step Taken.  Stepsize is  0.185206

                             Maximum     Tolerance    Cnvgd?
         Gradient            0.188974       0.000300      NO
         Displacement        0.185197       0.001200      NO
         Energy change     *********       0.000001      NO


 New Cartesian Coordinates Obtained by Inverse Iteration

 Displacement from previous Coordinates is:  0.201224
 ----------------------------------------------------------------
             Standard Nuclear Orientation (Angstroms)
    I     Atom           X                Y                Z
 ----------------------------------------------------------------
    1      Br      2.0109499754     0.0013384270     0.9407593026
    2      C      -0.2558325332     0.0002182177     0.1462203288
    3      C      -0.8711843083    -1.3097361108    -0.2113121791
    4      C      -0.8591502170     1.3083215457    -0.2377170232
    5      H       0.1956791304     0.0079730860     1.1525427141
    6      H      -0.2124981459    -2.1476625389     0.0361560541
    7      H      -1.8350295427    -1.4803470519     0.2978340183
    8      H      -1.0771885197    -1.3428199720    -1.2893515948
    9      H      -0.1888330178     2.1441506628    -0.0155688416
   10      H      -1.8163828726     1.5019586991     0.2755391108
   11      H      -1.0741329487     1.3180070353    -1.3143988898
 ----------------------------------------------------------------
 Nuclear Repulsion Energy =   227.2427663623 hartrees
 There are       31 alpha and       29 beta electrons

                       Distance Matrix (Angstroms)
             Br(  1)   C (  2)   C (  3)   C (  4)   H (  5)   H (  6)
   C (  2)  2.401998
   C (  3)  3.369404  1.490794
   C (  4)  3.366673  1.490817  2.618218
   H (  5)  1.827595  1.102999  2.175926  2.176326
   H (  6)  3.221837  2.151135  1.094179  3.526612  2.461644
   H (  7)  4.171367  2.170005  1.103329  3.002637  2.658835  1.773808
   H (  8)  4.039400  2.130550  1.098044  2.860424  3.067194  1.775509
   H (  9)  3.216404  2.151072  3.526082  1.094205  2.464871  4.292190
   H ( 10)  4.164475  2.169623  3.006003  1.103278  2.655094  3.993681
   H ( 11)  4.041917  2.130632  2.857100  1.097978  3.068291  3.818020
             H (  7)   H (  8)   H (  9)   H ( 10)
   H (  8)  1.764198
   H (  9)  3.993140  3.817154
   H ( 10)  2.982447  3.329873  1.773717
   H ( 11)  3.317988  2.660947  1.775733  1.764278
 
 Applying Cartesian multipole field
    Component          Value
    ---------          -----
     (2,0,0)        1.00000E-11
     (0,2,0)        2.00000E-11
     (0,0,2)       -3.00000E-11
 Nucleus-field energy     =     0.0000000045 hartrees
 Requested basis set is 6-31G(d,p)
 There are 41 shells and 115 basis functions
 A cutoff of  1.0D-14 yielded    810 shell pairs
 There are      6458 function pairs
 Smallest overlap matrix eigenvalue = 7.24E-04
 Guess from superposition of atomic densities
 Warning:  Energy on first SCF cycle will be non-variational
 SAD guess density has 59.972873 electrons

 -----------------------------------------------------------------------
  General SCF calculation program by
  Eric Jon Sundstrom, Paul Horn, Yuezhi Mao, Dmitri Zuev, Alec White,
  David Stuck, Shaama M.S., Shane Yost, Joonho Lee, David Small,
  Daniel Levine, Susi Lehtola, Hugh Burton, Evgeny Epifanovsky
 -----------------------------------------------------------------------
 Exchange:     0.2000 Hartree-Fock + 0.0800 Slater + 0.7200 B88
 Correlation:  0.1900 VWN1RPA + 0.8100 LYP
 Using SG-1 standard quadrature grid
 using 12 threads for integral computing
 -------------------------------------------------------
 OpenMP Integral computing Module                
 Release: version 1.0, May 2013, Q-Chem Inc. Pittsburgh 
 -------------------------------------------------------
 -------------------------------------------------------
 OpenMP BLAS3 based DFT computing Module                
 Release: version 1.0, May 2013, Q-Chem Inc. Pittsburgh 
 -------------------------------------------------------
 A unrestricted SCF calculation will be
 performed using DIIS
 SCF converges when DIIS error is below 1.0e-06
 Alpha HF Exchange    Energy = -10.73711528359454
 Beta HF Exchange     Energy = -10.73711528359454
 DFT Correlation      Energy =  -3.11973474586621
 DFT Exchange         Energy = -85.02164645721669
 One-Electron (alpha) Energy = -2093.81938424030022
 One-Electron (beta)  Energy = -2093.81938424030022
 Total Coulomb        Energy = 1374.15165984390637
 ---------------------------------------
  Cycle       Energy         DIIS error
 ---------------------------------------
    1   -2695.8599540402      1.64e-01  
 Alpha HF Exchange    Energy = -10.90650579446537
 Beta HF Exchange     Energy = -10.69044914691915
 DFT Correlation      Energy =  -3.15341489279577
 DFT Exchange         Energy = -85.92889802154707
 One-Electron (alpha) Energy = -2119.77929750712701
 One-Electron (beta)  Energy = -2081.39718278587861
 Total Coulomb        Energy = 1392.42512853325479
    2   -2692.1878532487      9.58e-03  
 Alpha HF Exchange    Energy = -10.80611973109728
 Beta HF Exchange     Energy = -10.60156253070202
 DFT Correlation      Energy =  -3.11818449116097
 DFT Exchange         Energy = -85.14825724430007
 One-Electron (alpha) Energy = -2110.62233289293454
 One-Electron (beta)  Energy = -2071.91859230267255
 Total Coulomb        Energy = 1372.76722786407231
    3   -2692.2050549620      4.21e-03  
 Alpha HF Exchange    Energy = -10.88446928960553
 Beta HF Exchange     Energy = -10.67182867246969
 DFT Correlation      Energy =  -3.14335125725240
 DFT Exchange         Energy = -85.74590672088107
 One-Electron (alpha) Energy = -2117.76488361411111
 One-Electron (beta)  Energy = -2078.30425511458725
 Total Coulomb        Energy = 1387.00114042197652
    4   -2692.2707878802      2.42e-03  
 Alpha HF Exchange    Energy = -10.85928807012056
 Beta HF Exchange     Energy = -10.64897982176201
 DFT Correlation      Energy =  -3.13456339468669
 DFT Exchange         Energy = -85.55081309720779
 One-Electron (alpha) Energy = -2115.76769536337315
 One-Electron (beta)  Energy = -2076.59013104997348
 Total Coulomb        Energy = 1383.00787399403612
    5   -2692.3008304363      3.30e-04  
 Alpha HF Exchange    Energy = -10.85801138540330
 Beta HF Exchange     Energy = -10.64778565283651
 DFT Correlation      Energy =  -3.13452700860095
 DFT Exchange         Energy = -85.54128017416203
 One-Electron (alpha) Energy = -2115.53718626557202
 One-Electron (beta)  Energy = -2076.24418509299085
 Total Coulomb        Energy = 1382.41858481977170
    6   -2692.3016243930      7.36e-05  
 Alpha HF Exchange    Energy = -10.85757681682363
 Beta HF Exchange     Energy = -10.64766509149624
 DFT Correlation      Energy =  -3.13422905731443
 DFT Exchange         Energy = -85.53854210813850
 One-Electron (alpha) Energy = -2115.50040500935529
 One-Electron (beta)  Energy = -2076.21044827020296
 Total Coulomb        Energy = 1382.34443936366483
    7   -2692.3016606229      2.08e-05  
 Alpha HF Exchange    Energy = -10.85772743101573
 Beta HF Exchange     Energy = -10.64777129026022
 DFT Correlation      Energy =  -3.13423014727012
 DFT Exchange         Energy = -85.53945317831236
 One-Electron (alpha) Energy = -2115.52234362524268
 One-Electron (beta)  Energy = -2076.22426284679432
 Total Coulomb        Energy = 1382.38135775985211
    8   -2692.3016643923      1.18e-05  
 Alpha HF Exchange    Energy = -10.85772840086577
 Beta HF Exchange     Energy = -10.64782448633244
 DFT Correlation      Energy =  -3.13422502655350
 DFT Exchange         Energy = -85.53961526947290
 One-Electron (alpha) Energy = -2115.52306704660759
 One-Electron (beta)  Energy = -2076.22499184059825
 Total Coulomb        Energy = 1382.38302019130560
    9   -2692.3016655123      2.26e-06  
 Alpha HF Exchange    Energy = -10.85772829947324
 Beta HF Exchange     Energy = -10.64783891128319
 DFT Correlation      Energy =  -3.13422043377494
 DFT Exchange         Energy = -85.53965102384689
 One-Electron (alpha) Energy = -2115.52266070101314
 One-Electron (beta)  Energy = -2076.22405664457892
 Total Coulomb        Energy = 1382.38172405617865
   10   -2692.3016655910      4.60e-07  Convergence criterion met
 ---------------------------------------
 SCF time:   CPU 30.01s  wall 2.00s 
<S^2> =          2.005818867
 Alpha HF Exchange    Energy = -10.85772829947324
 Beta HF Exchange     Energy = -10.64783891128319
 DFT Correlation      Energy =  -3.13422043377494
 DFT Exchange         Energy = -85.53965102384689
 One-Electron (alpha) Energy = -2115.52266070101314
 One-Electron (beta)  Energy = -2076.22405664457892
 Total Coulomb        Energy = 1382.38172405617865
 Nuclear repulsion Energy = 227.24276636678064
 SCF   energy in the final basis set =    -2692.3016655910
 Total energy in the final basis set =    -2692.3016655910
 
 --------------------------------------------------------------
 
                    Orbital Energies (a.u.)
 --------------------------------------------------------------
 
 Alpha MOs
 -- Occupied --
******* -62.512 -56.335 -56.329 -56.329 -10.219 -10.195 -10.195
 -8.700  -6.533  -6.517  -6.516  -2.625  -2.622  -2.621  -2.609
 -2.609  -0.824  -0.763  -0.708  -0.604  -0.482  -0.448  -0.429
 -0.402  -0.393  -0.374  -0.308  -0.292  -0.276  -0.182
 -- Virtual --
  0.088   0.129   0.133   0.152   0.165   0.166   0.175   0.215
  0.242   0.261   0.309   0.332   0.349   0.456   0.481   0.539
  0.550   0.559   0.596   0.606   0.621   0.641   0.683   0.709
  0.727   0.779   0.811   0.840   0.852   0.859   0.865   0.912
  0.924   0.933   1.011   1.278   1.279   1.341   1.468   1.560
  1.643   1.786   1.795   1.827   1.855   1.874   2.003   2.029
  2.033   2.056   2.081   2.095   2.111   2.258   2.266   2.334
  2.355   2.493   2.547   2.634   2.645   2.703   2.705   2.833
  2.850   2.890   2.928   3.142   3.187   3.298   3.408   3.440
  3.450   3.456   4.173   4.467   4.559   4.718   4.724   4.774
  4.816   4.916   6.287  90.313
 
 Beta MOs
 -- Occupied --
******* -62.511 -56.330 -56.328 -56.328 -10.200 -10.196 -10.196
 -8.697  -6.524  -6.515  -6.514  -2.619  -2.616  -2.616  -2.607
 -2.607  -0.795  -0.734  -0.705  -0.569  -0.465  -0.428  -0.420
 -0.395  -0.374  -0.369  -0.285  -0.280
 -- Virtual --
 -0.166  -0.036   0.092   0.135   0.137   0.163   0.170   0.177
  0.179   0.231   0.258   0.273   0.332   0.340   0.354   0.470
  0.486   0.555   0.563   0.582   0.608   0.621   0.652   0.655
  0.709   0.730   0.739   0.800   0.825   0.852   0.861   0.868
  0.869   0.923   0.933   0.938   1.035   1.291   1.303   1.346
  1.498   1.563   1.656   1.806   1.810   1.850   1.879   1.907
  2.034   2.035   2.040   2.064   2.087   2.098   2.123   2.270
  2.272   2.342   2.366   2.513   2.566   2.654   2.656   2.709
  2.711   2.840   2.859   2.901   2.937   3.149   3.194   3.314
  3.411   3.446   3.457   3.467   4.197   4.468   4.575   4.723
  4.728   4.784   4.829   4.931   6.300  90.319
 --------------------------------------------------------------
 
          Ground-State Mulliken Net Atomic Charges

     Atom                 Charge (a.u.)    Spin (a.u.)
  --------------------------------------------------------
      1 Br                   -0.124970       0.820990
      2 C                    -0.097937       1.078356
      3 C                    -0.335644      -0.058016
      4 C                    -0.335545      -0.058069
      5 H                     0.136248       0.013067
      6 H                     0.132422       0.012601
      7 H                     0.118077       0.059839
      8 H                     0.128405       0.029478
      9 H                     0.132585       0.012879
     10 H                     0.118158       0.059800
     11 H                     0.128201       0.029076
  --------------------------------------------------------
  Sum of atomic charges =    -0.000000
  Sum of spin   charges =     2.000000

 -----------------------------------------------------------------
                    Cartesian Multipole Moments
 -----------------------------------------------------------------
    Charge (ESU x 10^10)
                -0.0000
    Dipole Moment (Debye)
         X      -2.3236      Y       0.0011      Z      -0.6562
       Tot       2.4144
    Quadrupole Moments (Debye-Ang)
        XX     -41.0910     XY      -0.0002     YY     -38.1642
        XZ      -1.5955     YZ      -0.0083     ZZ     -39.5648
    Octopole Moments (Debye-Ang^2)
       XXX     -69.3019    XXY      -0.0449    XYY     -24.2742
       YYY      -0.0759    XXZ     -18.5477    XYZ      -0.0229
       YYZ     -16.0059    XZZ     -27.0142    YZZ      -0.0336
       ZZZ     -49.5993
    Hexadecapole Moments (Debye-Ang^3)
      XXXX    -564.2577   XXXY      -0.7043   XXYY    -137.4111
      XYYY      -0.5613   YYYY    -222.3880   XXXZ    -121.1724
      XXYZ       0.2381   XYYZ     -39.9365   YYYZ       0.6745
      XXZZ    -131.1551   XYZZ      -0.1956   YYZZ     -66.7644
      XZZZ    -119.7397   YZZZ       0.7949   ZZZZ    -169.9226
 -----------------------------------------------------------------
 Calculating analytic gradient of the SCF energy
 Gradient of SCF Energy
            1           2           3           4           5           6
    1  -0.0520648   0.0497342   0.0015236   0.0015374  -0.0007287  -0.0002486
    2  -0.0000402   0.0001346  -0.0007042   0.0007017  -0.0001034  -0.0001188
    3  -0.0156392   0.0288705   0.0006638   0.0006501  -0.0145664  -0.0000701
            7           8           9          10          11
    1   0.0001181   0.0001106  -0.0002270   0.0001316   0.0001136
    2   0.0002826   0.0000217   0.0001160  -0.0002590  -0.0000310
    3   0.0001335  -0.0000471  -0.0000859   0.0001412  -0.0000503
 Max gradient component =       5.206E-02
 RMS gradient           =       1.402E-02
 Gradient time:  CPU 10.87 s  wall 0.99 s
 Geometry Optimization Parameters
   NAtoms,    NIC,     NZ,  NCons,   NDum,   NFix, NCnnct, MaxDiis
       11      75       0       1       0       0       0       0

 Cartesian Hessian Update
 Hessian Updated using BFGS Update


** CONSTRAINED OPTIMIZATION IN DELOCALIZED INTERNAL COORDINATES **
   Searching for a Minimum

   Optimization Cycle:   2

                       Coordinates (Angstroms)
     ATOM                X               Y               Z
      1  Br        2.0109499754    0.0013384270    0.9407593026
      2  C        -0.2558325332    0.0002182177    0.1462203288
      3  C        -0.8711843083   -1.3097361108   -0.2113121791
      4  C        -0.8591502170    1.3083215457   -0.2377170232
      5  H         0.1956791304    0.0079730860    1.1525427141
      6  H        -0.2124981459   -2.1476625389    0.0361560541
      7  H        -1.8350295427   -1.4803470519    0.2978340183
      8  H        -1.0771885197   -1.3428199720   -1.2893515948
      9  H        -0.1888330178    2.1441506628   -0.0155688416
     10  H        -1.8163828726    1.5019586991    0.2755391108
     11  H        -1.0741329487    1.3180070353   -1.3143988898
   Point Group: c1    Number of degrees of freedom:    27


   Energy is  -2692.301665591

              Constraints and their Current Values
                                        Value     Constraint
   Distance(Angs):        1   2             2.401998     2.400000
 Hessian Updated using BFGS Update

   Using Lagrange Multiplier Algorithm


 24 Hessian modes will be used to form the next step
  Hessian Eigenvalues:
    -0.953128    0.044998    0.045000    0.049083    0.065952    0.081279
     0.081311    0.083404    0.083412    0.084784    0.160000    0.160248
     0.160652    0.209898    0.317399    0.333176    0.333232    0.333614
     0.333853    0.338981    0.339056    0.343320    0.343350    1.054839

 Minimum Search - Taking P-RFO Step
 Searching for Lamda that Maximizes Along the Constraint modes Only
 Value Taken    Lamda =   0.00009977
 Searching for Lamda that Minimizes Along All other modes
 Value Taken    Lamda =  -0.00063612
 Step Taken.  Stepsize is  0.050900

                             Maximum     Tolerance    Cnvgd?
         Gradient            0.010924       0.000300      NO
         Displacement        0.034677       0.001200      NO
         Energy change      0.008634       0.000001      NO


 New Cartesian Coordinates Obtained by Inverse Iteration

 Displacement from previous Coordinates is:  0.048644
 ----------------------------------------------------------------
             Standard Nuclear Orientation (Angstroms)
    I     Atom           X                Y                Z
 ----------------------------------------------------------------
    1      Br      2.0151867022     0.0014708344     0.9329468143
    2      C      -0.2529467339     0.0002004782     0.1483641289
    3      C      -0.8723415178    -1.3074577978    -0.2124278980
    4      C      -0.8602804266     1.3059998869    -0.2387842610
    5      H       0.1989866308     0.0080569364     1.1735101700
    6      H      -0.2143374615    -2.1461799760     0.0345645793
    7      H      -1.8374791881    -1.4790260555     0.2941996221
    8      H      -1.0770763509    -1.3382389900    -1.2907458310
    9      H      -0.1906048396     2.1425630184    -0.0169865954
   10      H      -1.8188766518     1.5005715365     0.2718005472
   11      H      -1.0738331629     1.3134421286    -1.3157382765
 ----------------------------------------------------------------
 Nuclear Repulsion Energy =   227.1620736454 hartrees
 There are       31 alpha and       29 beta electrons

                       Distance Matrix (Angstroms)
             Br(  1)   C (  2)   C (  3)   C (  4)   H (  5)   H (  6)
   C (  2)  2.400000
   C (  3)  3.370904  1.491238
   C (  4)  3.367946  1.491258  2.613618
   H (  5)  1.832074  1.120370  2.190696  2.191182
   H (  6)  3.223395  2.149742  1.094271  3.522713  2.471593
   H (  7)  4.176470  2.172584  1.103448  2.999226  2.670542  1.774005
   H (  8)  4.037539  2.131114  1.098013  2.854054  3.084381  1.775819
   H (  9)  3.217478  2.149638  3.522159  1.094302  2.474910  4.289118
   H ( 10)  4.169467  2.172208  3.002571  1.103386  2.666918  3.991193
   H ( 11)  4.039789  2.131210  2.850791  1.097948  3.085524  3.811960
             H (  7)   H (  8)   H (  9)   H ( 10)
   H (  8)  1.763543
   H (  9)  3.990606  3.811073
   H ( 10)  2.979740  3.324254  1.773928
   H ( 11)  3.312542  2.651801  1.776032  1.763629
 
 Applying Cartesian multipole field
    Component          Value
    ---------          -----
     (2,0,0)        1.00000E-11
     (0,2,0)        2.00000E-11
     (0,0,2)       -3.00000E-11
 Nucleus-field energy     =     0.0000000046 hartrees
 Requested basis set is 6-31G(d,p)
 There are 41 shells and 115 basis functions
 A cutoff of  1.0D-14 yielded    810 shell pairs
 There are      6458 function pairs
 Smallest overlap matrix eigenvalue = 7.24E-04
 Guess from superposition of atomic densities
 Warning:  Energy on first SCF cycle will be non-variational
 SAD guess density has 59.972873 electrons

 -----------------------------------------------------------------------
  General SCF calculation program by
  Eric Jon Sundstrom, Paul Horn, Yuezhi Mao, Dmitri Zuev, Alec White,
  David Stuck, Shaama M.S., Shane Yost, Joonho Lee, David Small,
  Daniel Levine, Susi Lehtola, Hugh Burton, Evgeny Epifanovsky
 -----------------------------------------------------------------------
 Exchange:     0.2000 Hartree-Fock + 0.0800 Slater + 0.7200 B88
 Correlation:  0.1900 VWN1RPA + 0.8100 LYP
 Using SG-1 standard quadrature grid
 using 12 threads for integral computing
 -------------------------------------------------------
 OpenMP Integral computing Module                
 Release: version 1.0, May 2013, Q-Chem Inc. Pittsburgh 
 -------------------------------------------------------
 -------------------------------------------------------
 OpenMP BLAS3 based DFT computing Module                
 Release: version 1.0, May 2013, Q-Chem Inc. Pittsburgh 
 -------------------------------------------------------
 A unrestricted SCF calculation will be
 performed using DIIS
 SCF converges when DIIS error is below 1.0e-06
 Alpha HF Exchange    Energy = -10.73594210497969
 Beta HF Exchange     Energy = -10.73594210497969
 DFT Correlation      Energy =  -3.11952970055998
 DFT Exchange         Energy = -85.01912546160229
 One-Electron (alpha) Energy = -2093.74783477187520
 One-Electron (beta)  Energy = -2093.74783477187520
 Total Coulomb        Energy = 1374.09265028022241
 ---------------------------------------
  Cycle       Energy         DIIS error
 ---------------------------------------
    1   -2695.8514849857      1.64e-01  
 Alpha HF Exchange    Energy = -10.90568962838061
 Beta HF Exchange     Energy = -10.68996849828638
 DFT Correlation      Energy =  -3.15318559774575
 DFT Exchange         Energy = -85.92418716510630
 One-Electron (alpha) Energy = -2119.69847688758909
 One-Electron (beta)  Energy = -2081.36719238973956
 Total Coulomb        Energy = 1392.38905710907693
    2   -2692.1875694078      9.58e-03  
 Alpha HF Exchange    Energy = -10.80531183629204
 Beta HF Exchange     Energy = -10.60073760067715
 DFT Correlation      Energy =  -3.11796339394461
 DFT Exchange         Energy = -85.14260990963298
 One-Electron (alpha) Energy = -2110.52219153420356
 One-Electron (beta)  Energy = -2071.80889947561036
 Total Coulomb        Energy = 1372.63084220679775
    3   -2692.2047978936      4.23e-03  
 Alpha HF Exchange    Energy = -10.88375177154963
 Beta HF Exchange     Energy = -10.67129304660613
 DFT Correlation      Energy =  -3.14309488257707
 DFT Exchange         Energy = -85.74152438422371
 One-Electron (alpha) Energy = -2117.69544131310067
 One-Electron (beta)  Energy = -2078.27568306178500
 Total Coulomb        Energy = 1386.97731323966650
    4   -2692.2714015702      2.42e-03  
 Alpha HF Exchange    Energy = -10.85854748719994
 Beta HF Exchange     Energy = -10.64828954960726
 DFT Correlation      Energy =  -3.13435780019796
 DFT Exchange         Energy = -85.54583702423230
 One-Electron (alpha) Energy = -2115.68407444127206
 One-Electron (beta)  Energy = -2076.51715614450086
 Total Coulomb        Energy = 1382.92504948662713
    5   -2692.3011393104      3.11e-04  
 Alpha HF Exchange    Energy = -10.85727902053350
 Beta HF Exchange     Energy = -10.64712910415158
 DFT Correlation      Energy =  -3.13430645251120
 DFT Exchange         Energy = -85.53646283222689
 One-Electron (alpha) Energy = -2115.45556612715063
 One-Electron (beta)  Energy = -2076.17616479994922
 Total Coulomb        Energy = 1382.34298160422622
    6   -2692.3018530824      7.58e-05  
 Alpha HF Exchange    Energy = -10.85686364486438
 Beta HF Exchange     Energy = -10.64701881296203
 DFT Correlation      Energy =  -3.13400801934996
 DFT Exchange         Energy = -85.53383372865109
 One-Electron (alpha) Energy = -2115.42234424619983
 One-Electron (beta)  Energy = -2076.14660581237786
 Total Coulomb        Energy = 1382.27670948271157
    7   -2692.3018911318      2.10e-05  
 Alpha HF Exchange    Energy = -10.85701794503005
 Beta HF Exchange     Energy = -10.64712520311296
 DFT Correlation      Energy =  -3.13401085881357
 DFT Exchange         Energy = -85.53476156125640
 One-Electron (alpha) Energy = -2115.44447974923560
 One-Electron (beta)  Energy = -2076.15974728663878
 Total Coulomb        Energy = 1382.31317401215892
    8   -2692.3018949420      1.20e-05  
 Alpha HF Exchange    Energy = -10.85701895150112
 Beta HF Exchange     Energy = -10.64717857581187
 DFT Correlation      Energy =  -3.13400478899533
 DFT Exchange         Energy = -85.53492169632646
 One-Electron (alpha) Energy = -2115.44535878494889
 One-Electron (beta)  Energy = -2076.16063042268615
 Total Coulomb        Energy = 1382.31514346492122
    9   -2692.3018961054      2.26e-06  
 Alpha HF Exchange    Energy = -10.85701928605402
 Beta HF Exchange     Energy = -10.64719276013683
 DFT Correlation      Energy =  -3.13400025052734
 DFT Exchange         Energy = -85.53495855225408
 One-Electron (alpha) Energy = -2115.44496550820577
 One-Electron (beta)  Energy = -2076.15962454803685
 Total Coulomb        Energy = 1382.31379107327734
   10   -2692.3018961820      4.46e-07  Convergence criterion met
 ---------------------------------------
 SCF time:   CPU 29.81s  wall 2.00s 
<S^2> =          2.005863309
 Alpha HF Exchange    Energy = -10.85701928605402
 Beta HF Exchange     Energy = -10.64719276013683
 DFT Correlation      Energy =  -3.13400025052734
 DFT Exchange         Energy = -85.53495855225408
 One-Electron (alpha) Energy = -2115.44496550820577
 One-Electron (beta)  Energy = -2076.15962454803685
 Total Coulomb        Energy = 1382.31379107327734
 Nuclear repulsion Energy = 227.16207364993389
 SCF   energy in the final basis set =    -2692.3018961820
 Total energy in the final basis set =    -2692.3018961820
 
 --------------------------------------------------------------
 
                    Orbital Energies (a.u.)
 --------------------------------------------------------------
 
 Alpha MOs
 -- Occupied --
******* -62.512 -56.335 -56.329 -56.329 -10.220 -10.195 -10.195
 -8.700  -6.533  -6.517  -6.516  -2.625  -2.621  -2.620  -2.608
 -2.608  -0.823  -0.762  -0.708  -0.602  -0.481  -0.448  -0.429
 -0.402  -0.394  -0.373  -0.308  -0.292  -0.275  -0.182
 -- Virtual --
  0.088   0.126   0.133   0.150   0.164   0.166   0.175   0.214
  0.242   0.261   0.310   0.332   0.349   0.456   0.482   0.538
  0.551   0.559   0.596   0.606   0.622   0.641   0.682   0.710
  0.727   0.778   0.811   0.839   0.852   0.858   0.865   0.912
  0.922   0.933   1.006   1.279   1.280   1.343   1.467   1.559
  1.639   1.787   1.795   1.829   1.854   1.874   1.988   2.029
  2.033   2.055   2.081   2.095   2.108   2.256   2.268   2.330
  2.354   2.487   2.547   2.623   2.637   2.703   2.705   2.828
  2.846   2.887   2.923   3.140   3.187   3.284   3.407   3.440
  3.440   3.453   4.172   4.467   4.559   4.718   4.725   4.775
  4.816   4.915   6.288  90.314
 
 Beta MOs
 -- Occupied --
******* -62.510 -56.330 -56.328 -56.328 -10.202 -10.196 -10.196
 -8.696  -6.524  -6.514  -6.514  -2.618  -2.616  -2.615  -2.607
 -2.607  -0.794  -0.734  -0.705  -0.567  -0.464  -0.428  -0.421
 -0.395  -0.374  -0.368  -0.285  -0.279
 -- Virtual --
 -0.165  -0.036   0.092   0.133   0.137   0.161   0.170   0.177
  0.178   0.231   0.257   0.273   0.333   0.340   0.354   0.470
  0.487   0.554   0.563   0.582   0.608   0.621   0.653   0.654
  0.709   0.730   0.739   0.799   0.825   0.850   0.861   0.867
  0.869   0.922   0.931   0.938   1.030   1.291   1.305   1.348
  1.497   1.562   1.652   1.806   1.811   1.853   1.877   1.907
  2.025   2.035   2.039   2.062   2.087   2.098   2.118   2.271
  2.272   2.338   2.364   2.508   2.566   2.644   2.647   2.709
  2.711   2.834   2.855   2.898   2.931   3.146   3.194   3.301
  3.410   3.445   3.452   3.457   4.197   4.468   4.575   4.723
  4.728   4.785   4.829   4.930   6.301  90.319
 --------------------------------------------------------------
 
          Ground-State Mulliken Net Atomic Charges

     Atom                 Charge (a.u.)    Spin (a.u.)
  --------------------------------------------------------
      1 Br                   -0.125579       0.818270
      2 C                    -0.098016       1.078803
      3 C                    -0.335186      -0.057714
      4 C                    -0.335080      -0.057781
      5 H                     0.135942       0.014943
      6 H                     0.132319       0.012652
      7 H                     0.118043       0.059691
      8 H                     0.128574       0.029482
      9 H                     0.132485       0.012927
     10 H                     0.118127       0.059641
     11 H                     0.128371       0.029084
  --------------------------------------------------------
  Sum of atomic charges =     0.000000
  Sum of spin   charges =     2.000000

 -----------------------------------------------------------------
                    Cartesian Multipole Moments
 -----------------------------------------------------------------
    Charge (ESU x 10^10)
                 0.0000
    Dipole Moment (Debye)
         X      -2.3484      Y       0.0010      Z      -0.6550
       Tot       2.4380
    Quadrupole Moments (Debye-Ang)
        XX     -41.1666     XY      -0.0004     YY     -38.1958
        XZ      -1.6162     YZ      -0.0081     ZZ     -39.5330
    Octopole Moments (Debye-Ang^2)
       XXX     -69.8125    XXY      -0.0472    XYY     -24.3846
       YYY      -0.0828    XXZ     -18.6027    XYZ      -0.0226
       YYZ     -15.8863    XZZ     -27.1161    YZZ      -0.0354
       ZZZ     -49.1376
    Hexadecapole Moments (Debye-Ang^3)
      XXXX    -567.0654   XXXY      -0.7206   XXYY    -137.6764
      XYYY      -0.5798   YYYY    -221.9628   XXXZ    -121.1912
      XXYZ       0.2351   XYYZ     -39.7510   YYYZ       0.6653
      XXZZ    -131.5168   XYZZ      -0.2008   YYZZ     -66.4662
      XZZZ    -119.1693   YZZZ       0.7854   ZZZZ    -168.4449
 -----------------------------------------------------------------
 Calculating analytic gradient of the SCF energy
 Gradient of SCF Energy
            1           2           3           4           5           6
    1  -0.0511463   0.0474373   0.0008373   0.0008309   0.0023084  -0.0000586
    2  -0.0000428   0.0000852  -0.0002334   0.0002187  -0.0000440   0.0000786
    3  -0.0154875   0.0216326  -0.0000401  -0.0000446  -0.0061689   0.0000634
            7           8           9          10          11
    1  -0.0000312  -0.0000697  -0.0000325  -0.0000123  -0.0000634
    2   0.0000573  -0.0001232  -0.0000803  -0.0000356   0.0001195
    3   0.0000197  -0.0000205   0.0000504   0.0000220  -0.0000267
 Max gradient component =       5.115E-02
 RMS gradient           =       1.305E-02
 Gradient time:  CPU 10.88 s  wall 0.99 s
 Geometry Optimization Parameters
   NAtoms,    NIC,     NZ,  NCons,   NDum,   NFix, NCnnct, MaxDiis
       11      75       0       1       0       0       0       0

 Cartesian Hessian Update
 Hessian Updated using BFGS Update


** CONSTRAINED OPTIMIZATION IN DELOCALIZED INTERNAL COORDINATES **
   Searching for a Minimum

   Optimization Cycle:   3

                       Coordinates (Angstroms)
     ATOM                X               Y               Z
      1  Br        2.0151867022    0.0014708344    0.9329468143
      2  C        -0.2529467339    0.0002004782    0.1483641289
      3  C        -0.8723415178   -1.3074577978   -0.2124278980
      4  C        -0.8602804266    1.3059998869   -0.2387842610
      5  H         0.1989866308    0.0080569364    1.1735101700
      6  H        -0.2143374615   -2.1461799760    0.0345645793
      7  H        -1.8374791881   -1.4790260555    0.2941996221
      8  H        -1.0770763509   -1.3382389900   -1.2907458310
      9  H        -0.1906048396    2.1425630184   -0.0169865954
     10  H        -1.8188766518    1.5005715365    0.2718005472
     11  H        -1.0738331629    1.3134421286   -1.3157382765
   Point Group: c1    Number of degrees of freedom:    27


   Energy is  -2692.301896182

              Constraints and their Current Values
                                        Value     Constraint
   Distance(Angs):        1   2             2.400000     2.400000
 Hessian Updated using BFGS Update

 23 Hessian modes will be used to form the next step
  Hessian Eigenvalues:
     0.044983    0.045000    0.049091    0.057703    0.065953    0.081288
     0.081332    0.083411    0.083436    0.159480    0.160000    0.160650
     0.161345    0.209053    0.265697    0.333191    0.333289    0.333614
     0.333691    0.338986    0.339062    0.343325    0.343369

 Minimum Search - Taking Simple RFO Step
 Searching for Lamda that Minimizes Along All modes
 Value Taken    Lamda =  -0.00032137
 Step Taken.  Stepsize is  0.069476

                             Maximum     Tolerance    Cnvgd?
         Gradient           0.003817      0.000300      NO
         Displacement       0.036606      0.001200      NO
         Energy change     -0.000231      0.000001      NO


 New Cartesian Coordinates Obtained by Inverse Iteration

 Displacement from previous Coordinates is:  0.058222
 ----------------------------------------------------------------
             Standard Nuclear Orientation (Angstroms)
    I     Atom           X                Y                Z
 ----------------------------------------------------------------
    1      Br      2.0241886990     0.0017356784     0.9214749171
    2      C      -0.2487136650     0.0001527786     0.1508172555
    3      C      -0.8729439522    -1.3047990454    -0.2125896457
    4      C      -0.8607819883     1.3032884327    -0.2388939690
    5      H       0.1950366636     0.0080881126     1.1939630719
    6      H      -0.2187930898    -2.1471832328     0.0331220555
    7      H      -1.8400515416    -1.4743554343     0.2907951615
    8      H      -1.0743522577    -1.3305170171    -1.2915692422
    9      H      -0.1949252153     2.1434619670    -0.0181889645
   10      H      -1.8215251040     1.4958053832     0.2682530887
   11      H      -1.0707415487     1.3057243771    -1.3164807287
 ----------------------------------------------------------------
 Nuclear Repulsion Energy =   226.9476008433 hartrees
 There are       31 alpha and       29 beta electrons

                       Distance Matrix (Angstroms)
             Br(  1)   C (  2)   C (  3)   C (  4)   H (  5)   H (  6)
   C (  2)  2.400000
   C (  3)  3.374391  1.491518
   C (  4)  3.370987  1.491531  2.608248
   H (  5)  1.849348  1.133636  2.200601  2.201222
   H (  6)  3.230788  2.150767  1.094486  3.520213  2.482741
   H (  7)  4.184370  2.173965  1.103378  2.992465  2.674871  1.774140
   H (  8)  4.034032  2.129047  1.097918  2.844410  3.095332  1.775875
   H (  9)  3.224039  2.150635  3.519660  1.094517  2.486203  4.291018
   H ( 10)  4.177135  2.173592  2.995730  1.103308  2.671472  3.986904
   H ( 11)  4.035768  2.129134  2.841220  1.097853  3.096511  3.803921
             H (  7)   H (  8)   H (  9)   H ( 10)
   H (  8)  1.763764
   H (  9)  3.986291  3.803080
   H ( 10)  2.970304  3.313519  1.774073
   H ( 11)  3.302123  2.636362  1.776069  1.763856
 
 Applying Cartesian multipole field
    Component          Value
    ---------          -----
     (2,0,0)        1.00000E-11
     (0,2,0)        2.00000E-11
     (0,0,2)       -3.00000E-11
 Nucleus-field energy     =     0.0000000047 hartrees
 Requested basis set is 6-31G(d,p)
 There are 41 shells and 115 basis functions
 A cutoff of  1.0D-14 yielded    810 shell pairs
 There are      6458 function pairs
 Smallest overlap matrix eigenvalue = 7.24E-04
 Guess from superposition of atomic densities
 Warning:  Energy on first SCF cycle will be non-variational
 SAD guess density has 59.972873 electrons

 -----------------------------------------------------------------------
  General SCF calculation program by
  Eric Jon Sundstrom, Paul Horn, Yuezhi Mao, Dmitri Zuev, Alec White,
  David Stuck, Shaama M.S., Shane Yost, Joonho Lee, David Small,
  Daniel Levine, Susi Lehtola, Hugh Burton, Evgeny Epifanovsky
 -----------------------------------------------------------------------
 Exchange:     0.2000 Hartree-Fock + 0.0800 Slater + 0.7200 B88
 Correlation:  0.1900 VWN1RPA + 0.8100 LYP
 Using SG-1 standard quadrature grid
 using 12 threads for integral computing
 -------------------------------------------------------
 OpenMP Integral computing Module                
 Release: version 1.0, May 2013, Q-Chem Inc. Pittsburgh 
 -------------------------------------------------------
 -------------------------------------------------------
 OpenMP BLAS3 based DFT computing Module                
 Release: version 1.0, May 2013, Q-Chem Inc. Pittsburgh 
 -------------------------------------------------------
 A unrestricted SCF calculation will be
 performed using DIIS
 SCF converges when DIIS error is below 1.0e-06
 Alpha HF Exchange    Energy = -10.73472382179628
 Beta HF Exchange     Energy = -10.73472382179628
 DFT Correlation      Energy =  -3.11927448571826
 DFT Exchange         Energy = -85.01645168195255
 One-Electron (alpha) Energy = -2093.54117249497722
 One-Electron (beta)  Energy = -2093.54117249497722
 Total Coulomb        Energy = 1373.89860861557190
 ---------------------------------------
  Cycle       Energy         DIIS error
 ---------------------------------------
    1   -2695.8413093377      1.64e-01  
 Alpha HF Exchange    Energy = -10.90504536248091
 Beta HF Exchange     Energy = -10.68946947295394
 DFT Correlation      Energy =  -3.15294934128009
 DFT Exchange         Energy = -85.92011860439919
 One-Electron (alpha) Energy = -2119.49741840925708
 One-Electron (beta)  Energy = -2081.19597730795567
 Total Coulomb        Energy = 1392.22629483653668
    2   -2692.1870828138      9.59e-03  
 Alpha HF Exchange    Energy = -10.80455935926812
 Beta HF Exchange     Energy = -10.59993330433871
 DFT Correlation      Energy =  -3.11766991796969
 DFT Exchange         Energy = -85.13702161364620
 One-Electron (alpha) Energy = -2110.29459300860071
 One-Electron (beta)  Energy = -2071.54466652076280
 Total Coulomb        Energy = 1372.34655537974913
    3   -2692.2042874968      4.24e-03  
 Alpha HF Exchange    Energy = -10.88320032979738
 Beta HF Exchange     Energy = -10.67080013316386
 DFT Correlation      Energy =  -3.14281978247225
 DFT Exchange         Energy = -85.73778936667732
 One-Electron (alpha) Energy = -2117.50942359417695
 One-Electron (beta)  Energy = -2078.09423131261747
 Total Coulomb        Energy = 1386.81881562507033
    4   -2692.2718480458      2.42e-03  
 Alpha HF Exchange    Energy = -10.85794075132738
 Beta HF Exchange     Energy = -10.64764560502667
 DFT Correlation      Energy =  -3.13411545424245
 DFT Exchange         Energy = -85.54138843409706
 One-Electron (alpha) Energy = -2115.48178190195722
 One-Electron (beta)  Energy = -2076.29523990812140
 Total Coulomb        Energy = 1382.70911957351700
    5   -2692.3013916333      2.97e-04  
 Alpha HF Exchange    Energy = -10.85667310400558
 Beta HF Exchange     Energy = -10.64651992628929
 DFT Correlation      Energy =  -3.13404629709934
 DFT Exchange         Energy = -85.53211556707564
 One-Electron (alpha) Energy = -2115.25464424854272
 One-Electron (beta)  Energy = -2075.95608293287069
 Total Coulomb        Energy = 1382.13043439068065
    6   -2692.3020468372      7.80e-05  
 Alpha HF Exchange    Energy = -10.85627762729112
 Beta HF Exchange     Energy = -10.64642128796403
 DFT Correlation      Energy =  -3.13374778331044
 DFT Exchange         Energy = -85.52960173038244
 One-Electron (alpha) Energy = -2115.22494700419111
 One-Electron (beta)  Energy = -2075.93038581635210
 Total Coulomb        Energy = 1382.07169360979788
    7   -2692.3020867917      2.11e-05  
 Alpha HF Exchange    Energy = -10.85643552186522
 Beta HF Exchange     Energy = -10.64653007445302
 DFT Correlation      Energy =  -3.13375211050145
 DFT Exchange         Energy = -85.53055156839078
 One-Electron (alpha) Energy = -2115.24743572494890
 One-Electron (beta)  Energy = -2075.94301421147702
 Total Coulomb        Energy = 1382.10802768281542
    8   -2692.3020906808      1.22e-05  
 Alpha HF Exchange    Energy = -10.85643630874917
 Beta HF Exchange     Energy = -10.64658377630031
 DFT Correlation      Energy =  -3.13374520649836
 DFT Exchange         Energy = -85.53070915660335
 One-Electron (alpha) Energy = -2115.24842796695521
 One-Electron (beta)  Energy = -2075.94397654482918
 Total Coulomb        Energy = 1382.11018622179131
    9   -2692.3020918901      2.29e-06  
 Alpha HF Exchange    Energy = -10.85643709291060
 Beta HF Exchange     Energy = -10.64659814458792
 DFT Correlation      Energy =  -3.13374065887114
 DFT Exchange         Energy = -85.53074803198936
 One-Electron (alpha) Energy = -2115.24807731514329
 One-Electron (beta)  Energy = -2075.94291075441970
 Total Coulomb        Energy = 1382.10881918188966
   10   -2692.3020919680      4.41e-07  Convergence criterion met
 ---------------------------------------
 SCF time:   CPU 29.55s  wall 3.00s 
<S^2> =          2.005853619
 Alpha HF Exchange    Energy = -10.85643709291060
 Beta HF Exchange     Energy = -10.64659814458792
 DFT Correlation      Energy =  -3.13374065887114
 DFT Exchange         Energy = -85.53074803198936
 One-Electron (alpha) Energy = -2115.24807731514329
 One-Electron (beta)  Energy = -2075.94291075441970
 Total Coulomb        Energy = 1382.10881918188966
 Nuclear repulsion Energy = 226.94760084799537
 SCF   energy in the final basis set =    -2692.3020919680
 Total energy in the final basis set =    -2692.3020919680
 
 --------------------------------------------------------------
 
                    Orbital Energies (a.u.)
 --------------------------------------------------------------
 
 Alpha MOs
 -- Occupied --
******* -62.512 -56.334 -56.329 -56.329 -10.221 -10.195 -10.195
 -8.700  -6.533  -6.517  -6.515  -2.625  -2.621  -2.620  -2.608
 -2.608  -0.822  -0.762  -0.708  -0.601  -0.481  -0.448  -0.429
 -0.402  -0.393  -0.373  -0.309  -0.292  -0.275  -0.181
 -- Virtual --
  0.087   0.123   0.133   0.149   0.164   0.166   0.175   0.214
  0.242   0.260   0.311   0.333   0.349   0.456   0.483   0.538
  0.551   0.559   0.595   0.605   0.622   0.640   0.679   0.711
  0.728   0.776   0.811   0.839   0.852   0.858   0.865   0.912
  0.921   0.934   1.002   1.279   1.281   1.346   1.466   1.557
  1.635   1.788   1.795   1.832   1.855   1.874   1.978   2.029
  2.033   2.054   2.080   2.095   2.107   2.253   2.270   2.328
  2.352   2.481   2.549   2.613   2.632   2.703   2.705   2.824
  2.844   2.884   2.919   3.138   3.188   3.273   3.407   3.433
  3.439   3.454   4.173   4.468   4.560   4.718   4.725   4.775
  4.813   4.912   6.288  90.311
 
 Beta MOs
 -- Occupied --
******* -62.510 -56.330 -56.328 -56.328 -10.203 -10.196 -10.196
 -8.696  -6.524  -6.514  -6.514  -2.618  -2.616  -2.615  -2.607
 -2.607  -0.794  -0.733  -0.704  -0.566  -0.464  -0.429  -0.420
 -0.395  -0.373  -0.367  -0.285  -0.279
 -- Virtual --
 -0.166  -0.036   0.091   0.131   0.137   0.159   0.171   0.176
  0.178   0.230   0.257   0.272   0.334   0.340   0.354   0.470
  0.488   0.553   0.562   0.583   0.607   0.621   0.653   0.654
  0.707   0.731   0.739   0.797   0.825   0.850   0.860   0.867
  0.870   0.922   0.930   0.938   1.026   1.292   1.307   1.351
  1.495   1.560   1.648   1.807   1.812   1.854   1.877   1.906
  2.017   2.034   2.039   2.061   2.087   2.098   2.115   2.268
  2.274   2.336   2.362   2.503   2.567   2.633   2.642   2.708
  2.711   2.831   2.853   2.895   2.928   3.145   3.194   3.290
  3.410   3.444   3.445   3.458   4.198   4.468   4.576   4.723
  4.728   4.785   4.827   4.927   6.301  90.316
 --------------------------------------------------------------
 
          Ground-State Mulliken Net Atomic Charges

     Atom                 Charge (a.u.)    Spin (a.u.)
  --------------------------------------------------------
      1 Br                   -0.124836       0.820310
      2 C                    -0.098558       1.073807
      3 C                    -0.334688      -0.057048
      4 C                    -0.334562      -0.057139
      5 H                     0.135312       0.017694
      6 H                     0.132126       0.012610
      7 H                     0.117941       0.059506
      8 H                     0.128574       0.029163
      9 H                     0.132297       0.012881
     10 H                     0.118023       0.059445
     11 H                     0.128370       0.028770
  --------------------------------------------------------
  Sum of atomic charges =     0.000000
  Sum of spin   charges =     2.000000

 -----------------------------------------------------------------
                    Cartesian Multipole Moments
 -----------------------------------------------------------------
    Charge (ESU x 10^10)
                 0.0000
    Dipole Moment (Debye)
         X      -2.3640      Y       0.0007      Z      -0.6464
       Tot       2.4507
    Quadrupole Moments (Debye-Ang)
        XX     -41.2333     XY      -0.0007     YY     -38.2285
        XZ      -1.6478     YZ      -0.0079     ZZ     -39.4934
    Octopole Moments (Debye-Ang^2)
       XXX     -70.5218    XXY      -0.0515    XYY     -24.5699
       YYY      -0.0961    XXZ     -18.5902    XYZ      -0.0225
       YYZ     -15.6889    XZZ     -27.2970    YZZ      -0.0399
       ZZZ     -48.4751
    Hexadecapole Moments (Debye-Ang^3)
      XXXX    -571.6111   XXXY      -0.7543   XXYY    -138.3272
      XYYY      -0.6161   YYYY    -221.2863   XXXZ    -121.0772
      XXYZ       0.2301   XYYZ     -39.5196   YYYZ       0.6471
      XXZZ    -132.1334   XYZZ      -0.2116   YYZZ     -66.0431
      XZZZ    -118.3765   YZZZ       0.7694   ZZZZ    -166.1501
 -----------------------------------------------------------------
 Calculating analytic gradient of the SCF energy
 Gradient of SCF Energy
            1           2           3           4           5           6
    1  -0.0487661   0.0454072   0.0002382   0.0002206   0.0028636   0.0000202
    2  -0.0000387   0.0000458   0.0000902  -0.0001029  -0.0000111  -0.0000068
    3  -0.0153395   0.0152672  -0.0001770  -0.0001750   0.0002281   0.0000902
            7           8           9          10          11
    1  -0.0000346   0.0000025   0.0000499  -0.0000117   0.0000103
    2  -0.0000625   0.0000012   0.0000048   0.0000833  -0.0000034
    3  -0.0000198   0.0000388   0.0000735  -0.0000211   0.0000345
 Max gradient component =       4.877E-02
 RMS gradient           =       1.221E-02
 Gradient time:  CPU 10.80 s  wall 0.99 s
 Geometry Optimization Parameters
   NAtoms,    NIC,     NZ,  NCons,   NDum,   NFix, NCnnct, MaxDiis
       11      75       0       1       0       0       0       0

 Cartesian Hessian Update
 Hessian Updated using BFGS Update


** CONSTRAINED OPTIMIZATION IN DELOCALIZED INTERNAL COORDINATES **
   Searching for a Minimum

   Optimization Cycle:   4

                       Coordinates (Angstroms)
     ATOM                X               Y               Z
      1  Br        2.0241886990    0.0017356784    0.9214749171
      2  C        -0.2487136650    0.0001527786    0.1508172555
      3  C        -0.8729439522   -1.3047990454   -0.2125896457
      4  C        -0.8607819883    1.3032884327   -0.2388939690
      5  H         0.1950366636    0.0080881126    1.1939630719
      6  H        -0.2187930898   -2.1471832328    0.0331220555
      7  H        -1.8400515416   -1.4743554343    0.2907951615
      8  H        -1.0743522577   -1.3305170171   -1.2915692422
      9  H        -0.1949252153    2.1434619670   -0.0181889645
     10  H        -1.8215251040    1.4958053832    0.2682530887
     11  H        -1.0707415487    1.3057243771   -1.3164807287
   Point Group: c1    Number of degrees of freedom:    27


   Energy is  -2692.302091968

              Constraints and their Current Values
                                        Value     Constraint
   Distance(Angs):        1   2             2.400000     2.400000
 Hessian Updated using BFGS Update

 24 Hessian modes will be used to form the next step
  Hessian Eigenvalues:
     0.035547    0.045000    0.045025    0.049503    0.065953    0.081290
     0.081346    0.083411    0.083438    0.160000    0.160000    0.160271
     0.160649    0.161416    0.209854    0.327991    0.333200    0.333611
     0.333623    0.334586    0.339006    0.339132    0.343330    0.343414

 Minimum Search - Taking Simple RFO Step
 Searching for Lamda that Minimizes Along All modes
 Value Taken    Lamda =  -0.00006274
 Step Taken.  Stepsize is  0.039951

                             Maximum     Tolerance    Cnvgd?
         Gradient           0.001718      0.000300      NO
         Displacement       0.023980      0.001200      NO
         Energy change     -0.000196      0.000001      NO


 New Cartesian Coordinates Obtained by Inverse Iteration

 Displacement from previous Coordinates is:  0.027121
 ----------------------------------------------------------------
             Standard Nuclear Orientation (Angstroms)
    I     Atom           X                Y                Z
 ----------------------------------------------------------------
    1      Br      2.0293503560     0.0018159168     0.9153790743
    2      C      -0.2460278814     0.0001262418     0.1520626816
    3      C      -0.8727599335    -1.3036997067    -0.2123355581
    4      C      -0.8605185339     1.3021699299    -0.2386371496
    5      H       0.1892711178     0.0081303075     1.2003382340
    6      H      -0.2209697423    -2.1478590037     0.0333882973
    7      H      -1.8409525677    -1.4709372654     0.2896179036
    8      H      -1.0726500638    -1.3282217405    -1.2916919141
    9      H      -0.1970790572     2.1441503332    -0.0177517756
   10      H      -1.8225008568     1.4922690421     0.2669583850
   11      H      -1.0687658372     1.3034579451    -1.3166251784
 ----------------------------------------------------------------
 Nuclear Repulsion Energy =   226.8329463062 hartrees
 There are       31 alpha and       29 beta electrons

                       Distance Matrix (Angstroms)
             Br(  1)   C (  2)   C (  3)   C (  4)   H (  5)   H (  6)
   C (  2)  2.400000
   C (  3)  3.376145  1.491825
   C (  4)  3.372539  1.491832  2.606031
   H (  5)  1.862024  1.135091  2.201012  2.201646
   H (  6)  3.234648  2.151407  1.094448  3.519335  2.485631
   H (  7)  4.188057  2.174105  1.103323  2.988382  2.671865  1.774323
   H (  8)  4.032688  2.128906  1.097983  2.841282  3.096530  1.775670
   H (  9)  3.227587  2.151295  3.518818  1.094474  2.489094  4.292380
   H ( 10)  4.180748  2.173697  2.991517  1.103256  2.668537  3.983715
   H ( 11)  4.034159  2.128994  2.838159  1.097919  3.097682  3.801695
             H (  7)   H (  8)   H (  9)   H ( 10)
   H (  8)  1.763859
   H (  9)  3.983171  3.800910
   H ( 10)  2.963350  3.308600  1.774262
   H ( 11)  3.297508  2.631801  1.775859  1.763945
 
 Applying Cartesian multipole field
    Component          Value
    ---------          -----
     (2,0,0)        1.00000E-11
     (0,2,0)        2.00000E-11
     (0,0,2)       -3.00000E-11
 Nucleus-field energy     =     0.0000000047 hartrees
 Requested basis set is 6-31G(d,p)
 There are 41 shells and 115 basis functions
 A cutoff of  1.0D-14 yielded    810 shell pairs
 There are      6458 function pairs
 Smallest overlap matrix eigenvalue = 7.24E-04
 Guess from superposition of atomic densities
 Warning:  Energy on first SCF cycle will be non-variational
 SAD guess density has 59.972873 electrons

 -----------------------------------------------------------------------
  General SCF calculation program by
  Eric Jon Sundstrom, Paul Horn, Yuezhi Mao, Dmitri Zuev, Alec White,
  David Stuck, Shaama M.S., Shane Yost, Joonho Lee, David Small,
  Daniel Levine, Susi Lehtola, Hugh Burton, Evgeny Epifanovsky
 -----------------------------------------------------------------------
 Exchange:     0.2000 Hartree-Fock + 0.0800 Slater + 0.7200 B88
 Correlation:  0.1900 VWN1RPA + 0.8100 LYP
 Using SG-1 standard quadrature grid
 using 12 threads for integral computing
 -------------------------------------------------------
 OpenMP Integral computing Module                
 Release: version 1.0, May 2013, Q-Chem Inc. Pittsburgh 
 -------------------------------------------------------
 -------------------------------------------------------
 OpenMP BLAS3 based DFT computing Module                
 Release: version 1.0, May 2013, Q-Chem Inc. Pittsburgh 
 -------------------------------------------------------
 A unrestricted SCF calculation will be
 performed using DIIS
 SCF converges when DIIS error is below 1.0e-06
 Alpha HF Exchange    Energy = -10.73428994676379
 Beta HF Exchange     Energy = -10.73428994676379
 DFT Correlation      Energy =  -3.11916564392943
 DFT Exchange         Energy = -85.01546575898406
 One-Electron (alpha) Energy = -2093.42851978827957
 One-Electron (beta)  Energy = -2093.42851978827957
 Total Coulomb        Energy = 1373.79028980583075
 ---------------------------------------
  Cycle       Energy         DIIS error
 ---------------------------------------
    1   -2695.8370147562      1.64e-01  
 Alpha HF Exchange    Energy = -10.90492922415606
 Beta HF Exchange     Energy = -10.68926842846406
 DFT Correlation      Energy =  -3.15286766842891
 DFT Exchange         Energy = -85.91902829973104
 One-Electron (alpha) Energy = -2119.39648745496243
 One-Electron (beta)  Energy = -2081.08104921085032
 Total Coulomb        Energy = 1392.12380899795767
    2   -2692.1868749777      9.59e-03  
 Alpha HF Exchange    Energy = -10.80437705292661
 Beta HF Exchange     Energy = -10.59970160572414
 DFT Correlation      Energy =  -3.11753785719416
 DFT Exchange         Energy = -85.13539191307189
 One-Electron (alpha) Energy = -2110.18645141861089
 One-Electron (beta)  Energy = -2071.40191510111026
 Total Coulomb        Energy = 1372.20840487727264
    3   -2692.2040237604      4.25e-03  
 Alpha HF Exchange    Energy = -10.88311702202611
 Beta HF Exchange     Energy = -10.67064345756407
 DFT Correlation      Energy =  -3.14272630835166
 DFT Exchange         Energy = -85.73686953468544
 One-Electron (alpha) Energy = -2117.41560204274720
 One-Electron (beta)  Energy = -2077.97082535813252
 Total Coulomb        Energy = 1386.71496276466132
    4   -2692.2718746479      2.42e-03  
 Alpha HF Exchange    Energy = -10.85782524399199
 Beta HF Exchange     Energy = -10.64745726777334
 DFT Correlation      Energy =  -3.13401489536143
 DFT Exchange         Energy = -85.54021872618908
 One-Electron (alpha) Energy = -2115.38332992804908
 One-Electron (beta)  Energy = -2076.16517423684263
 Total Coulomb        Energy = 1382.59363408586091
    5   -2692.3014399014      2.96e-04  
 Alpha HF Exchange    Energy = -10.85655758560790
 Beta HF Exchange     Energy = -10.64634215390047
 DFT Correlation      Energy =  -3.13394231605047
 DFT Exchange         Energy = -85.53096576044825
 One-Electron (alpha) Energy = -2115.15645727690890
 One-Electron (beta)  Energy = -2075.82471827148765
 Total Coulomb        Energy = 1382.01394462634107
    6   -2692.3020924271      7.85e-05  
 Alpha HF Exchange    Energy = -10.85616499038595
 Beta HF Exchange     Energy = -10.64624609519817
 DFT Correlation      Energy =  -3.13364325204549
 DFT Exchange         Energy = -85.52846913254865
 One-Electron (alpha) Energy = -2115.12726234247384
 One-Electron (beta)  Energy = -2075.79944132068294
 Total Coulomb        Energy = 1381.95614793016603
    7   -2692.3021328922      2.11e-05  
 Alpha HF Exchange    Energy = -10.85632380730563
 Beta HF Exchange     Energy = -10.64635671270754
 DFT Correlation      Energy =  -3.13364768234446
 DFT Exchange         Energy = -85.52942743199372
 One-Electron (alpha) Energy = -2115.14996604135285
 One-Electron (beta)  Energy = -2075.81208536021086
 Total Coulomb        Energy = 1381.99272389207681
    8   -2692.3021368329      1.22e-05  
 Alpha HF Exchange    Energy = -10.85632451410891
 Beta HF Exchange     Energy = -10.64641073053405
 DFT Correlation      Energy =  -3.13364063462418
 DFT Exchange         Energy = -85.52958492576079
 One-Electron (alpha) Energy = -2115.15097179885697
 One-Electron (beta)  Energy = -2075.81302539933131
 Total Coulomb        Energy = 1381.99487363591334
    9   -2692.3021380564      2.30e-06  
 Alpha HF Exchange    Energy = -10.85632541095965
 Beta HF Exchange     Energy = -10.64642541014139
 DFT Correlation      Energy =  -3.13363603241579
 DFT Exchange         Energy = -85.52962482534147
 One-Electron (alpha) Energy = -2115.15064647620329
 One-Electron (beta)  Energy = -2075.81194489196787
 Total Coulomb        Energy = 1381.99351860001229
   10   -2692.3021381361      4.43e-07  Convergence criterion met
 ---------------------------------------
 SCF time:   CPU 29.73s  wall 3.00s 
<S^2> =          2.005815561
 Alpha HF Exchange    Energy = -10.85632541095965
 Beta HF Exchange     Energy = -10.64642541014139
 DFT Correlation      Energy =  -3.13363603241579
 DFT Exchange         Energy = -85.52962482534147
 One-Electron (alpha) Energy = -2115.15064647620329
 One-Electron (beta)  Energy = -2075.81194489196787
 Total Coulomb        Energy = 1381.99351860001229
 Nuclear repulsion Energy = 226.83294631092892
 SCF   energy in the final basis set =    -2692.3021381361
 Total energy in the final basis set =    -2692.3021381361
 
[...]
     0.012581    0.044994    0.045026    0.048458    0.065941    0.080842
     0.081295    0.083339    0.083412    0.159904    0.160000    0.160000
     0.160000    0.160080    0.160644    0.161530    0.206978    0.262333
     0.333194    0.333295    0.333613    0.333642    0.338998    0.339088
     0.343328    0.343403

 Minimum Search - Taking Simple RFO Step
 Searching for Lamda that Minimizes Along All modes
 Value Taken    Lamda =  -0.00000108
 Step Taken.  Stepsize is  0.007278

                             Maximum     Tolerance    Cnvgd?
         Gradient           0.000142      0.000300     YES
         Displacement       0.005090      0.001200      NO
         Energy change     -0.000006      0.000001      NO


 New Cartesian Coordinates Obtained by Inverse Iteration

 Displacement from previous Coordinates is:  0.004796
 ----------------------------------------------------------------
             Standard Nuclear Orientation (Angstroms)
    I     Atom           X                Y                Z
 ----------------------------------------------------------------
    1      Br      2.0376486970     0.0015556172     0.9044669425
    2      C      -0.2424600156     0.0001329332     0.1553987692
    3      C      -0.8717616141    -1.3024636078    -0.2117310383
    4      C      -0.8594499076     1.3009346613    -0.2381228644
    5      H       0.1752057568     0.0083958332     1.2056623345
    6      H      -0.2233335139    -2.1488815380     0.0350960407
    7      H      -1.8414769774    -1.4664615410     0.2883587478
    8      H      -1.0697777974    -1.3262716482    -1.2914106001
    9      H      -0.1996880401     2.1453080701    -0.0154374937
   10      H      -1.8234440355     1.4874237421     0.2650064904
   11      H      -1.0650655522     1.3017294779    -1.3165843285
 ----------------------------------------------------------------
 Nuclear Repulsion Energy =   226.6657503177 hartrees
 There are       31 alpha and       29 beta electrons

                       Distance Matrix (Angstroms)
             Br(  1)   C (  2)   C (  3)   C (  4)   H (  5)   H (  6)
   C (  2)  2.400000
   C (  3)  3.378022  1.492502
   C (  4)  3.374474  1.492522  2.603561
   H (  5)  1.886653  1.130295  2.196246  2.196744
   H (  6)  3.239171  2.152464  1.094443  3.518597  2.486545
   H (  7)  4.193123  2.173806  1.103328  2.983294  2.661514  1.774324
   H (  8)  4.030025  2.130038  1.097946  2.838286  3.093007  1.775605
   H (  9)  3.232271  2.152392  3.518145  1.094459  2.489583  4.294552
   H ( 10)  4.186257  2.173375  2.986042  1.103269  2.658375  3.979438
   H ( 11)  4.031173  2.130157  2.835470  1.097888  3.093980  3.800299
             H (  7)   H (  8)   H (  9)   H ( 10)
   H (  8)  1.763758
   H (  9)  3.979025  3.799609
   H ( 10)  2.954033  3.302625  1.774273
   H ( 11)  3.292649  2.628126  1.775806  1.763817
 
 Applying Cartesian multipole field
    Component          Value
    ---------          -----
     (2,0,0)        1.00000E-11
     (0,2,0)        2.00000E-11
     (0,0,2)       -3.00000E-11
 Nucleus-field energy     =     0.0000000048 hartrees
 Requested basis set is 6-31G(d,p)
 There are 41 shells and 115 basis functions
 A cutoff of  1.0D-14 yielded    810 shell pairs
 There are      6458 function pairs
 Smallest overlap matrix eigenvalue = 7.24E-04
 Guess from superposition of atomic densities
 Warning:  Energy on first SCF cycle will be non-variational
 SAD guess density has 59.972873 electrons

 -----------------------------------------------------------------------
  General SCF calculation program by
  Eric Jon Sundstrom, Paul Horn, Yuezhi Mao, Dmitri Zuev, Alec White,
  David Stuck, Shaama M.S., Shane Yost, Joonho Lee, David Small,
  Daniel Levine, Susi Lehtola, Hugh Burton, Evgeny Epifanovsky
 -----------------------------------------------------------------------
 Exchange:     0.2000 Hartree-Fock + 0.0800 Slater + 0.7200 B88
 Correlation:  0.1900 VWN1RPA + 0.8100 LYP
 Using SG-1 standard quadrature grid
 using 12 threads for integral computing
 -------------------------------------------------------
 OpenMP Integral computing Module                
 Release: version 1.0, May 2013, Q-Chem Inc. Pittsburgh 
 -------------------------------------------------------
 -------------------------------------------------------
 OpenMP BLAS3 based DFT computing Module                
 Release: version 1.0, May 2013, Q-Chem Inc. Pittsburgh 
 -------------------------------------------------------
 A unrestricted SCF calculation will be
 performed using DIIS
 SCF converges when DIIS error is below 1.0e-06
 Alpha HF Exchange    Energy = -10.73386147027259
 Beta HF Exchange     Energy = -10.73386147027259
 DFT Correlation      Energy =  -3.11902599619428
 DFT Exchange         Energy = -85.01444434215030
 One-Electron (alpha) Energy = -2093.26185931514829
 One-Electron (beta)  Energy = -2093.26185931514829
 Total Coulomb        Energy = 1373.62749964638328
 ---------------------------------------
  Cycle       Energy         DIIS error
 ---------------------------------------
    1   -2695.8316619403      1.64e-01  
 Alpha HF Exchange    Energy = -10.90501466540831
 Beta HF Exchange     Energy = -10.68903261544469
 DFT Correlation      Energy =  -3.15279150573571
 DFT Exchange         Energy = -85.91859271825591
 One-Electron (alpha) Energy = -2119.25789033246065
 One-Electron (beta)  Energy = -2080.87885284741560
 Total Coulomb        Energy = 1391.94972864913257
    2   -2692.1866957130      9.59e-03  
 Alpha HF Exchange    Energy = -10.80436655808823
 Beta HF Exchange     Energy = -10.59961541219513
 DFT Correlation      Energy =  -3.11735849956812
 DFT Exchange         Energy = -85.13462076283597
 One-Electron (alpha) Energy = -2110.04884936483813
 One-Electron (beta)  Energy = -2071.19285860769787
 Total Coulomb        Energy = 1372.02826247812732
    3   -2692.2036564046      4.25e-03  
 Alpha HF Exchange    Energy = -10.88323337424134
 Beta HF Exchange     Energy = -10.67053786240550
 DFT Correlation      Energy =  -3.14264838845603
 DFT Exchange         Energy = -85.73672354569308
 One-Electron (alpha) Energy = -2117.28642825245197
 One-Electron (beta)  Energy = -2077.75240607020578
 Total Coulomb        Energy = 1386.53458653406574
    4   -2692.2716406368      2.43e-03  
 Alpha HF Exchange    Energy = -10.85789202721953
 Beta HF Exchange     Energy = -10.64737439908100
 DFT Correlation      Energy =  -3.13388830266790
 DFT Exchange         Energy = -85.53989323630589
 One-Electron (alpha) Energy = -2115.25380862332122
 One-Electron (beta)  Energy = -2075.95970684638451
 Total Coulomb        Energy = 1382.42537323349802
    5   -2692.3014398789      3.04e-04  
 Alpha HF Exchange    Energy = -10.85662527299143
 Beta HF Exchange     Energy = -10.64626401251954
 DFT Correlation      Energy =  -3.13382077400896
 DFT Exchange         Energy = -85.53063102201716
 One-Electron (alpha) Energy = -2115.02670641617942
 One-Electron (beta)  Energy = -2075.61404019888596
 Total Coulomb        Energy = 1381.84020681567495
    6   -2692.3021305584      7.82e-05  
 Alpha HF Exchange    Energy = -10.85622405236328
 Beta HF Exchange     Energy = -10.64616575485916
 DFT Correlation      Energy =  -3.13351958727583
 DFT Exchange         Energy = -85.52808501061149
 One-Electron (alpha) Energy = -2114.99603736691870
 One-Electron (beta)  Energy = -2075.58670676914335
 Total Coulomb        Energy = 1381.77881723924111
    7   -2692.3021709794      2.12e-05  
 Alpha HF Exchange    Energy = -10.85638309021279
 Beta HF Exchange     Energy = -10.64627985698759
 DFT Correlation      Energy =  -3.13352315141131
 DFT Exchange         Energy = -85.52905221372674
 One-Electron (alpha) Energy = -2115.01912311651404
 One-Electron (beta)  Energy = -2075.59983452537244
 Total Coulomb        Energy = 1381.81627061068434
    8   -2692.3021750210      1.22e-05  
 Alpha HF Exchange    Energy = -10.85638380376856
 Beta HF Exchange     Energy = -10.64633464963222
 DFT Correlation      Energy =  -3.13351630546344
 DFT Exchange         Energy = -85.52921189324832
 One-Electron (alpha) Energy = -2115.02008996898530
 One-Electron (beta)  Energy = -2075.60064825495647
 Total Coulomb        Energy = 1381.81825829959871
    9   -2692.3021762539      2.32e-06  
 Alpha HF Exchange    Energy = -10.85638466964039
 Beta HF Exchange     Energy = -10.64635009860517
 DFT Correlation      Energy =  -3.13351152831196
 DFT Exchange         Energy = -85.52925309309032
 One-Electron (alpha) Energy = -2115.01979982358353
 One-Electron (beta)  Energy = -2075.59956827894121
 Total Coulomb        Energy = 1381.81694083082448
   10   -2692.3021763388      4.53e-07  Convergence criterion met
 ---------------------------------------
 SCF time:   CPU 29.85s  wall 3.00s 
<S^2> =          2.005724064
 Alpha HF Exchange    Energy = -10.85638466964039
 Beta HF Exchange     Energy = -10.64635009860517
 DFT Correlation      Energy =  -3.13351152831196
 DFT Exchange         Energy = -85.52925309309032
 One-Electron (alpha) Energy = -2115.01979982358353
 One-Electron (beta)  Energy = -2075.59956827894121
 Total Coulomb        Energy = 1381.81694083082448
 Nuclear repulsion Energy = 226.66575032254411
 SCF   energy in the final basis set =    -2692.3021763388
 Total energy in the final basis set =    -2692.3021763388
 
 --------------------------------------------------------------
 
                    Orbital Energies (a.u.)
 --------------------------------------------------------------
 
 Alpha MOs
 -- Occupied --
******* -62.513 -56.335 -56.330 -56.330 -10.220 -10.195 -10.195
 -8.701  -6.534  -6.518  -6.516  -2.626  -2.622  -2.621  -2.609
 -2.609  -0.820  -0.762  -0.707  -0.600  -0.480  -0.448  -0.428
 -0.401  -0.392  -0.372  -0.309  -0.292  -0.279  -0.180
 -- Virtual --
  0.087   0.123   0.134   0.149   0.164   0.167   0.176   0.214
  0.242   0.260   0.313   0.332   0.348   0.457   0.485   0.538
  0.550   0.558   0.594   0.604   0.624   0.640   0.672   0.712
  0.730   0.774   0.810   0.841   0.853   0.860   0.866   0.911
  0.923   0.934   1.001   1.280   1.283   1.349   1.463   1.556
  1.633   1.786   1.799   1.835   1.855   1.873   1.983   2.029
  2.033   2.054   2.080   2.095   2.108   2.248   2.272   2.328
  2.352   2.479   2.550   2.608   2.633   2.703   2.705   2.826
  2.846   2.885   2.918   3.139   3.188   3.275   3.407   3.434
  3.440   3.456   4.175   4.468   4.562   4.717   4.724   4.775
  4.805   4.905   6.286  90.302
 
 Beta MOs
 -- Occupied --
******* -62.511 -56.331 -56.329 -56.329 -10.202 -10.195 -10.195
 -8.697  -6.525  -6.515  -6.514  -2.619  -2.616  -2.616  -2.608
 -2.607  -0.793  -0.732  -0.703  -0.566  -0.463  -0.428  -0.420
 -0.394  -0.371  -0.366  -0.285  -0.279
 -- Virtual --
 -0.170  -0.035   0.091   0.131   0.138   0.158   0.171   0.176
  0.178   0.231   0.257   0.272   0.335   0.342   0.353   0.471
  0.489   0.553   0.562   0.583   0.607   0.621   0.653   0.654
  0.702   0.732   0.740   0.795   0.824   0.851   0.861   0.868
  0.871   0.922   0.932   0.939   1.024   1.293   1.308   1.354
  1.492   1.559   1.646   1.810   1.812   1.856   1.878   1.906
  2.021   2.035   2.039   2.061   2.086   2.098   2.117   2.262
  2.276   2.336   2.363   2.502   2.569   2.627   2.643   2.709
  2.712   2.832   2.855   2.896   2.927   3.145   3.195   3.292
  3.410   3.445   3.446   3.461   4.199   4.468   4.577   4.722
  4.728   4.785   4.819   4.920   6.299  90.308
 --------------------------------------------------------------
 
          Ground-State Mulliken Net Atomic Charges

     Atom                 Charge (a.u.)    Spin (a.u.)
  --------------------------------------------------------
      1 Br                   -0.119489       0.833793
      2 C                    -0.101233       1.058096
      3 C                    -0.334158      -0.055921
      4 C                    -0.334017      -0.056011
      5 H                     0.134905       0.020776
      6 H                     0.131366       0.012338
      7 H                     0.117463       0.059266
      8 H                     0.128151       0.028119
      9 H                     0.131522       0.012576
     10 H                     0.117530       0.059199
     11 H                     0.127961       0.027769
  --------------------------------------------------------
  Sum of atomic charges =    -0.000000
  Sum of spin   charges =     2.000000

 -----------------------------------------------------------------
                    Cartesian Multipole Moments
 -----------------------------------------------------------------
    Charge (ESU x 10^10)
                 0.0000
    Dipole Moment (Debye)
         X      -2.3309      Y       0.0010      Z      -0.6164
       Tot       2.4111
    Quadrupole Moments (Debye-Ang)
        XX     -41.2081     XY      -0.0010     YY     -38.2792
        XZ      -1.6667     YZ      -0.0068     ZZ     -39.4368
    Octopole Moments (Debye-Ang^2)
       XXX     -71.1817    XXY      -0.0511    XYY     -24.7968
       YYY      -0.0854    XXZ     -18.4411    XYZ      -0.0215
       YYZ     -15.3892    XZZ     -27.5354    YZZ      -0.0352
       ZZZ     -47.4915
    Hexadecapole Moments (Debye-Ang^3)
      XXXX    -576.8629   XXXY      -0.7494   XXYY    -139.3171
      XYYY      -0.5999   YYYY    -220.8471   XXXZ    -120.3817
      XXYZ       0.2339   XYYZ     -39.0710   YYYZ       0.6612
      XXZZ    -132.7921   XYZZ      -0.2042   YYZZ     -65.4003
      XZZZ    -117.0185   YZZZ       0.7817   ZZZZ    -162.5304
 -----------------------------------------------------------------
 Calculating analytic gradient of the SCF energy
 Gradient of SCF Energy
            1           2           3           4           5           6
    1  -0.0462192   0.0463992  -0.0000926  -0.0000748  -0.0000618  -0.0000074
    2  -0.0000297   0.0000236  -0.0000126   0.0000197  -0.0000078   0.0000012
    3  -0.0150733   0.0150224   0.0000937   0.0000914  -0.0000284  -0.0000009
            7           8           9          10          11
    1  -0.0000120   0.0000250   0.0000133   0.0000033   0.0000271
    2   0.0000207  -0.0000073  -0.0000047  -0.0000058   0.0000028
    3  -0.0000308  -0.0000132  -0.0000153  -0.0000293  -0.0000162
 Max gradient component =       4.640E-02
 RMS gradient           =       1.199E-02
 Gradient time:  CPU 10.86 s  wall 1.00 s
 Geometry Optimization Parameters
   NAtoms,    NIC,     NZ,  NCons,   NDum,   NFix, NCnnct, MaxDiis
       11      75       0       1       0       0       0       0

 Cartesian Hessian Update
 Hessian Updated using BFGS Update


** CONSTRAINED OPTIMIZATION IN DELOCALIZED INTERNAL COORDINATES **
   Searching for a Minimum

   Optimization Cycle:   8

                       Coordinates (Angstroms)
     ATOM                X               Y               Z
      1  Br        2.0376486970    0.0015556172    0.9044669425
      2  C        -0.2424600156    0.0001329332    0.1553987692
      3  C        -0.8717616141   -1.3024636078   -0.2117310383
      4  C        -0.8594499076    1.3009346613   -0.2381228644
      5  H         0.1752057568    0.0083958332    1.2056623345
      6  H        -0.2233335139   -2.1488815380    0.0350960407
      7  H        -1.8414769774   -1.4664615410    0.2883587478
      8  H        -1.0697777974   -1.3262716482   -1.2914106001
      9  H        -0.1996880401    2.1453080701   -0.0154374937
     10  H        -1.8234440355    1.4874237421    0.2650064904
     11  H        -1.0650655522    1.3017294779   -1.3165843285
   Point Group: c1    Number of degrees of freedom:    27


   Energy is  -2692.302176339

              Constraints and their Current Values
                                        Value     Constraint
   Distance(Angs):        1   2             2.400000     2.400000
 Hessian Updated using BFGS Update

 26 Hessian modes will be used to form the next step
  Hessian Eigenvalues:
     0.008986    0.033175    0.045007    0.045059    0.065915    0.081033
     0.081299    0.083409    0.083465    0.159823    0.160000    0.160000
     0.160000    0.160121    0.160541    0.161757    0.203534    0.307792
     0.333196    0.333377    0.333614    0.334210    0.338989    0.339085
     0.343328    0.343409

 Minimum Search - Taking Simple RFO Step
 Searching for Lamda that Minimizes Along All modes
 Value Taken    Lamda =   0.00000000
 Step Taken.  Stepsize is  0.008045

                             Maximum     Tolerance    Cnvgd?
         Gradient           0.000085      0.000300     YES
         Displacement       0.004468      0.001200      NO
         Energy change     -0.000001      0.000001     YES


                       Distance Matrix (Angstroms)
             Br(  1)   C (  2)   C (  3)   C (  4)   H (  5)   H (  6)
   C (  2)  2.400000
   C (  3)  3.378022  1.492502
   C (  4)  3.374474  1.492522  2.603561
   H (  5)  1.886653  1.130295  2.196246  2.196744
   H (  6)  3.239171  2.152464  1.094443  3.518597  2.486545
   H (  7)  4.193123  2.173806  1.103328  2.983294  2.661514  1.774324
   H (  8)  4.030025  2.130038  1.097946  2.838286  3.093007  1.775605
   H (  9)  3.232271  2.152392  3.518145  1.094459  2.489583  4.294552
   H ( 10)  4.186257  2.173375  2.986042  1.103269  2.658375  3.979438
   H ( 11)  4.031173  2.130157  2.835470  1.097888  3.093980  3.800299
             H (  7)   H (  8)   H (  9)   H ( 10)
   H (  8)  1.763758
   H (  9)  3.979025  3.799609
   H ( 10)  2.954033  3.302625  1.774273
   H ( 11)  3.292649  2.628126  1.775806  1.763817
 
 Final energy is   -2692.30217633880     


 ******************************
 **  OPTIMIZATION CONVERGED  **
 ******************************

                       Coordinates (Angstroms)
     ATOM                X               Y               Z
      1  Br        2.0376486970    0.0015556172    0.9044669425
      2  C        -0.2424600156    0.0001329332    0.1553987692
      3  C        -0.8717616141   -1.3024636078   -0.2117310383
      4  C        -0.8594499076    1.3009346613   -0.2381228644
      5  H         0.1752057568    0.0083958332    1.2056623345
      6  H        -0.2233335139   -2.1488815380    0.0350960407
      7  H        -1.8414769774   -1.4664615410    0.2883587478
      8  H        -1.0697777974   -1.3262716482   -1.2914106001
      9  H        -0.1996880401    2.1453080701   -0.0154374937
     10  H        -1.8234440355    1.4874237421    0.2650064904
     11  H        -1.0650655522    1.3017294779   -1.3165843285

Z-matrix Print:
$molecule
0 3
Br
H  1 1.886653
C  2 1.130295 1 102.498231
C  3 1.492502 2 113.001229 1 108.774422 0
H  4 1.094443 3 111.696246 2 -48.449788 0
H  4 1.097946 3 109.685637 2 -168.371534 0
H  4 1.103328 3 112.880764 2 73.050580 0
C  3 1.492522 2 113.040195 1 -108.458221 0
H  8 1.094459 3 111.687982 2 48.902329 0
H  8 1.097888 3 109.697145 2 168.852609 0
H  8 1.103269 3 112.847722 2 -72.566093 0
$end

PES scan, value:    2.4000 energy: -2692.3021763388
------- Summary of potential scan: ------ 
    2.4000     -2692.3021763388
----------------------------------------- 
Archival summary:
1\1\hpc0242\JobtypUnspecified\ProcedureUnspecified\6-31G**\r137(3)\knomura\WedMar1315:28:162019WedMar1315:28:162019\0\\#,JobtypUnspecified,ProcedureUnspecified,6-31G**,\\0,3\Br\H,1,1.88665\C,2,1.13029,1,102.498\C,3,1.4925,2,113.001,1,108.774,0\H,4,1.09444,3,111.696,2,-48.4498,0\H,4,1.09795,3,109.686,2,-168.372,0\H,4,1.10333,3,112.881,2,73.0506,0\C,3,1.49252,2,113.04,1,-108.458,0\H,8,1.09446,3,111.688,2,48.9023,0\H,8,1.09789,3,109.697,2,168.853,0\H,8,1.10327,3,112.848,2,-72.5661,0\\\@

 Total job time:  34.55s(wall), 373.62s(cpu) 
 Wed Mar 13 15:28:16 2019

        *************************************************************
        *                                                           *
        *  Thank you very much for using Q-Chem.  Have a nice day.  *
        *                                                           *
        *************************************************************


