
Running Job 1 of 1 halogens/Bromine/01/Br_2.xyz.data/inputs/bond_triplet_5.2.in
qchem halogens/Bromine/01/Br_2.xyz.data/inputs/bond_triplet_5.2.in_22239.0 /staging/scratch/2868759/qchem22239/ 1
/usr/usc/qchem/5.1.1/exe/qcprog.exe_s halogens/Bromine/01/Br_2.xyz.data/inputs/bond_triplet_5.2.in_22239.0 /staging/scratch/2868759/qchem22239/
Check license passed

                  Welcome to Q-Chem
     A Quantum Leap Into The Future Of Chemistry


 Q-Chem 5.1, Q-Chem, Inc., Pleasanton, CA (2018)

 Yihan Shao,  Zhengting Gan,  E. Epifanovsky,  A. T. B. Gilbert,  M. Wormit,  
 J. Kussmann,  A. W. Lange,  A. Behn,  Jia Deng,  Xintian Feng,  D. Ghosh,  
 M. Goldey,  P. R. Horn,  L. D. Jacobson,  I. Kaliman,  T. Kus,  A. Landau,  
 Jie Liu,  E. I. Proynov,  R. M. Richard,  R. P. Steele,  E. J. Sundstrom,  
 H. L. Woodcock III,  P. M. Zimmerman,  D. Zuev,  B. Albrecht,  E. Alguire,  
 S. A. Baeppler,  D. Barton,  Z. Benda,  Y. A. Bernard,  E. J. Berquist,  
 K. B. Bravaya,  H. Burton,  D. Casanova,  Chun-Min Chang,  Yunqing Chen,  
 A. Chien,  K. D. Closser,  M. P. Coons,  S. Coriani,  S. Dasgupta,  
 A. L. Dempwolff,  M. Diedenhofen,  Hainam Do,  R. G. Edgar,  Po-Tung Fang,  
 S. Faraji,  S. Fatehi,  Qingguo Feng,  K. D. Fenk,  J. Fosso-Tande,  
 Qinghui Ge,  A. Ghysels,  G. Gidofalvi,  J. Gomes,  J. Gonthier,  A. Gunina,  
 D. Hait,  M. W. D. Hanson-Heine,  P. H. P. Harbach,  A. W. Hauser,  
 J. E. Herr,  E. G. Hohenstein,  Z. C. Holden,  Kerwin Hui,  B. C. Huynh,  
 T.-C. Jagau,  Hyunjun Ji,  B. Kaduk,  K. Khistyaev,  Jaehoon Kim,  
 P. Klunzinger,  K. Koh,  D. Kosenkov,  L. Koulias,  T. Kowalczyk,  
 C. M. Krauter,  A. Kunitsa,  Ka Un Lao,  A. Laurent,  K. V. Lawler,  
 Joonho Lee,  D. Lefrancois,  S. Lehtola,  D. S. Levine,  Yi-Pei Li,  
 You-Sheng Lin,  Fenglai Liu,  E. Livshits,  A. Luenser,  P. Manohar,  
 E. Mansoor,  S. F. Manzer,  Shan-Ping Mao,  Yuezhi Mao,  N. Mardirossian,  
 A. V. Marenich,  T. Markovich,  L. A. Martinez-Martinez,  S. A. Maurer,  
 N. J. Mayhall,  S. C. McKenzie,  J.-M. Mewes,  A. F. Morrison,  
 J. W. Mullinax,  K. Nanda,  T. S. Nguyen-Beck,  R. Olivares-Amaya,  
 J. A. Parkhill,  T. M. Perrine,  F. Plasser,  P. Pokhilko,  S. Prager,  
 A. Prociuk,  E. Ramos,  D. R. Rehn,  F. Rob,  M. Schneider,  N. Sergueev,  
 S. M. Sharada,  S. Sharma,  D. W. Small,  T. Stauch,  T. Stein,  
 Yu-Chuan Su,  A. J. W. Thom,  A. Tkatchenko,  T. Tsuchimochi,  N. M. Tubman,  
 L. Vogt,  M. L. Vidal,  O. Vydrov,  M. A. Watson,  J. Wenzel,  
 M. de Wergifosse,  T. A. Wesolowski,  A. White,  J. Witte,  A. Yamada,  
 Jun Yang,  K. Yao,  S. Yeganeh,  S. R. Yost,  Zhi-Qiang You,  A. Zech,  
 Igor Ying Zhang,  Xing Zhang,  Yan Zhao,  Ying Zhu,  B. R. Brooks,  
 G. K. L. Chan,  C. J. Cramer,  M. S. Gordon,  W. J. Hehre,  A. Klamt,  
 M. W. Schmidt,  C. D. Sherrill,  D. G. Truhlar,  A. Aspuru-Guzik,  R. Baer,  
 A. T. Bell,  N. A. Besley,  Jeng-Da Chai,  A. E. DePrince, III,  
 R. A. DiStasio Jr.,  A. Dreuw,  B. D. Dunietz,  T. R. Furlani,  
 Chao-Ping Hsu,  Yousung Jung,  Jing Kong,  D. S. Lambrecht,  WanZhen Liang,  
 C. Ochsenfeld,  V. A. Rassolov,  L. V. Slipchenko,  J. E. Subotnik,  
 T. Van Voorhis,  J. M. Herbert,  A. I. Krylov,  P. M. W. Gill,  M. Head-Gordon

 Contributors to earlier versions of Q-Chem not listed above: 
 R. D. Adamson,  B. Austin,  J. Baker,  G. J. O. Beran,  K. Brandhorst,  
 S. T. Brown,  E. F. C. Byrd,  A. K. Chakraborty,  C.-L. Cheng,  
 Siu Hung Chien,  D. M. Chipman,  D. L. Crittenden,  H. Dachsel,  
 R. J. Doerksen,  A. D. Dutoi,  L. Fusti-Molnar,  W. A. Goddard III,  
 A. Golubeva-Zadorozhnaya,  S. R. Gwaltney,  G. Hawkins,  A. Heyden,  
 S. Hirata,  G. Kedziora,  F. J. Keil,  C. Kelley,  Jihan Kim,  R. A. King,  
 R. Z. Khaliullin,  P. P. Korambath,  W. Kurlancheek,  A. M. Lee,  M. S. Lee,  
 S. V. Levchenko,  Ching Yeh Lin,  D. Liotard,  R. C. Lochan,  I. Lotan,  
 P. E. Maslen,  N. Nair,  D. P. O'Neill,  D. Neuhauser,  E. Neuscamman,  
 C. M. Oana,  R. Olson,  B. Peters,  R. Peverati,  P. A. Pieniazek,  
 Y. M. Rhee,  J. Ritchie,  M. A. Rohrdanz,  E. Rosta,  N. J. Russ,  
 H. F. Schaefer III,  N. E. Schultz,  N. Shenvi,  A. C. Simmonett,  A. Sodt,  
 D. Stuck,  K. S. Thanthiriwatte,  V. Vanovschi,  Tao Wang,  A. Warshel,  
 C. F. Williams,  Q. Wu,  X. Xu,  W. Zhang

 Please cite Q-Chem as follows:
 Y. Shao et al., Mol. Phys. 113, 184-215 (2015)
 DOI: 10.1080/00268976.2014.952696

 Q-Chem 5.1.1 for Intel X86 EM64T Linux

 Parts of Q-Chem use Armadillo 8.300.2 (Tropical Shenanigans).
 http://arma.sourceforge.net/

 Q-Chem begins on Wed Mar 13 15:08:56 2019  

Host: 
0

     Scratch files written to /staging/scratch/2868759/qchem22239//
 Aug318 |scratch|qcdevops|jenkins|workspace|build_RNUM 6013   
Processing $rem in /usr/usc/qchem/5.1.1/config/preferences.
 MEM_TOTAL  2000 
Input Ideriv = 2
Curr. Ideriv = -1
Max.  Ideriv = 2

Checking the input file for inconsistencies... 	...done.

--------------------------------------------------------------
User input:
--------------------------------------------------------------

$comment
potential surface scanner
$end

$rem
JOBTYPE  PES_SCAN
UNRESTRICTED TRUE
SYM_IGNORE  TRUE
GEOM_OPT_MAX_CYCLES 400
SCF_MAX_CYCLES 400
METHOD   B3LYP
BASIS   6-31G**
PDB_PRINT 2
SCF_CONVERGENCE 6
THRESH 14
SCF_PRINT 1
$end
$molecule
0 3
Br 4.705337 -0.001146 0.561813
C -0.587893 0.000180 0.294007
C -1.147826 -1.298503 -0.181961
C -1.147332 1.299032 -0.182080
H 0.058511 0.000103 1.168043
H -0.501674 -2.143772 0.075572
H -2.139912 -1.509100 0.256190
H -1.291560 -1.299846 -1.271100
H -0.500777 2.144057 0.075244
H -2.139268 1.510117 0.256175
H -1.291206 1.300277 -1.271200
$end
$scan
stre 1 2 5.200000 5.201000 0.100000
$end
--------------------------------------------------------------
 ----------------------------------------------------------------
             Standard Nuclear Orientation (Angstroms)
    I     Atom           X                Y                Z
 ----------------------------------------------------------------
    1      Br      4.7053370000    -0.0011460000     0.5618130000
    2      C      -0.5878930000     0.0001800000     0.2940070000
    3      C      -1.1478260000    -1.2985030000    -0.1819610000
    4      C      -1.1473320000     1.2990320000    -0.1820800000
    5      H       0.0585110000     0.0001030000     1.1680430000
    6      H      -0.5016740000    -2.1437720000     0.0755720000
    7      H      -2.1399120000    -1.5091000000     0.2561900000
    8      H      -1.2915600000    -1.2998460000    -1.2711000000
    9      H      -0.5007770000     2.1440570000     0.0752440000
   10      H      -2.1392680000     1.5101170000     0.2561750000
   11      H      -1.2912060000     1.3002770000    -1.2712000000
 ----------------------------------------------------------------
 Nuclear Repulsion Energy =   154.6003013210 hartrees
 There are       31 alpha and       29 beta electrons
 Requested basis set is 6-31G(d,p)
 There are 41 shells and 115 basis functions

 Total QAlloc Memory Limit   2000 MB
 Mega-Array Size       188 MB
 MEM_STATIC part       192 MB
A total of 1 constraints
  
            1
    1   1.0100000
    2   1.0100000
    3   2.0100000
    4   5.2000000
    5   5.2010000
    6   0.1000000
    7   0.0000000
    8   0.0000000
    9   0.0000000
   10   0.0000000

                       Distance Matrix (Angstroms)
             Br(  1)   C (  2)   C (  3)   C (  4)   H (  5)   H (  6)
   C (  2)  5.300001
   C (  3)  6.041180  1.492196
   C (  4)  6.041322  1.492195  2.597535
   H (  5)  4.686204  1.087096  2.228034  2.228027
   H (  6)  5.651570  2.156775  1.094676  3.512287  2.470526
   H (  7)  7.016036  2.165207  1.104790  3.010465  2.818197  1.766141
   H (  8)  6.403824  2.152853  1.098583  2.821513  3.076033  1.774727
   H (  9)  5.651749  2.156770  3.512271  1.094676  2.470537  4.287829
   H ( 10)  7.016121  2.165203  3.010526  1.104790  2.818134  4.008146
   H ( 11)  6.404074  2.152853  2.821464  1.098583  3.076052  3.781353
             H (  7)   H (  8)   H (  9)   H ( 10)
   H (  8)  1.759575
   H (  9)  4.008124  3.781329
   H ( 10)  3.019217  3.308636  1.766145
   H ( 11)  3.308447  2.600123  1.774726  1.759578
 
 A cutoff of  1.0D-14 yielded    715 shell pairs
 There are      5202 function pairs
 
 -------------------------------------------------------
 OpenMP Integral Computing Module                       
 Release: version 1.0, May 2013, Q-Chem Inc. Pittsburgh 
 -------------------------------------------------------
 Integral Job Info:
 Integral job number is                      11
 Integral operator is                         1
 short-range coefficients                     0
 long-range coefficients              100000000
 Omega coefficients                           0
 if combine SR and LR in K                    0
 Integral screening is                        0
 Integral computing path is                   2
 max size of driver memory is            800000
 size of driver memory is                593474
 size of scratch memory is             15267112
 max col of scratch BK array               1296
 max len of scratch array in speh3          155
 max len of scratch index in speh4           18
 max int batch size is                      520
 min int batch size is                       52
 fixed nKL is                                52
 max L of basis functions is                  2
 order of int derivative is                   0
 number of shells is                         41
 number of basis is                         115
 number of cartesian basis is               115
 number of contracted shell pairs           715
 number of primitive shell pairs           2715
 maxK2 (contraction) of shell pair           36
 max number of K2 of shell pair               1
 max number of CS2 of shell pair             59
 max number of PS2 of shell pair            204
 mem total for path MDJ                  514202
 -------------------------------------------------------
 Smallest overlap matrix eigenvalue = 7.27E-04

 Scale SEOQF with 1.000000e-01/1.000000e-01/1.000000e+00

 Standard Electronic Orientation quadrupole field applied
 Nucleus-field energy     =     0.0000000136 hartrees
 Guess from superposition of atomic densities
 Warning:  Energy on first SCF cycle will be non-variational
 SAD guess density has 59.972873 electrons

 -----------------------------------------------------------------------
  General SCF calculation program by
  Eric Jon Sundstrom, Paul Horn, Yuezhi Mao, Dmitri Zuev, Alec White,
  David Stuck, Shaama M.S., Shane Yost, Joonho Lee, David Small,
  Daniel Levine, Susi Lehtola, Hugh Burton, Evgeny Epifanovsky
 -----------------------------------------------------------------------
 Exchange:     0.2000 Hartree-Fock + 0.0800 Slater + 0.7200 B88
 Correlation:  0.1900 VWN1RPA + 0.8100 LYP
 Using SG-1 standard quadrature grid
 using 12 threads for integral computing
 -------------------------------------------------------
 OpenMP Integral computing Module                
 Release: version 1.0, May 2013, Q-Chem Inc. Pittsburgh 
 -------------------------------------------------------
 -------------------------------------------------------
 OpenMP BLAS3 based DFT computing Module                
 Release: version 1.0, May 2013, Q-Chem Inc. Pittsburgh 
 -------------------------------------------------------
 A unrestricted SCF calculation will be
 performed using DIIS
 SCF converges when DIIS error is below 1.0e-06
 Alpha HF Exchange    Energy = -10.71387214856334
 Beta HF Exchange     Energy = -10.71387214856334
 DFT Correlation      Energy =  -3.10437784133880
 DFT Exchange         Energy = -84.97922491594552
 One-Electron (alpha) Energy = -2021.22981251407373
 One-Electron (beta)  Energy = -2021.22981251407373
 Total Coulomb        Energy = 1301.83178559054500
 ---------------------------------------
  Cycle       Energy         DIIS error
 ---------------------------------------
    1   -2695.5388851574      1.64e-01  
 Alpha HF Exchange    Energy = -10.89668800448831
 Beta HF Exchange     Energy = -10.70105224954933
 DFT Correlation      Energy =  -3.13851530240424
 DFT Exchange         Energy = -85.90363352069915
 One-Electron (alpha) Energy = -2043.62991597678138
 One-Electron (beta)  Energy = -2009.66061377221695
 Total Coulomb        Energy = 1317.11661243194317
    2   -2692.2135050596      9.58e-03  
 Alpha HF Exchange    Energy = -10.79771950911203
 Beta HF Exchange     Energy = -10.61268609716738
 DFT Correlation      Energy =  -3.10155678968664
 DFT Exchange         Energy = -85.13555297073439
 One-Electron (alpha) Energy = -2035.91888269159267
 One-Electron (beta)  Energy = -2002.47720853620922
 Total Coulomb        Energy = 1301.23174702448136
    3   -2692.2115582354      4.33e-03  
 Alpha HF Exchange    Energy = -10.87296836787804
 Beta HF Exchange     Energy = -10.67964009196509
 DFT Correlation      Energy =  -3.12937441575598
 DFT Exchange         Energy = -85.71390035670152
 One-Electron (alpha) Energy = -2041.67479294886607
 One-Electron (beta)  Energy = -2007.65228396805128
 Total Coulomb        Energy = 1312.83708146173740
    4   -2692.2855773529      2.60e-03  
 Alpha HF Exchange    Energy = -10.84851533807878
 Beta HF Exchange     Energy = -10.65785775619832
 DFT Correlation      Energy =  -3.11940082652333
 DFT Exchange         Energy = -85.52380749896815
 One-Electron (alpha) Energy = -2040.00227013701488
 One-Electron (beta)  Energy = -2006.08740520715105
 Total Coulomb        Energy = 1309.31118158777713
    5   -2692.3277738416      2.25e-04  
 Alpha HF Exchange    Energy = -10.84693297350590
 Beta HF Exchange     Energy = -10.65633029114165
 DFT Correlation      Energy =  -3.11929789810190
 DFT Exchange         Energy = -85.51217051947872
 One-Electron (alpha) Energy = -2039.81648754087860
 One-Electron (beta)  Energy = -2005.92155069631440
 Total Coulomb        Energy = 1308.94453173642091
    6   -2692.3279368484      4.50e-05  
 Alpha HF Exchange    Energy = -10.84678739953922
 Beta HF Exchange     Energy = -10.65626793716437
 DFT Correlation      Energy =  -3.11912996876959
 DFT Exchange         Energy = -85.51112324738909
 One-Electron (alpha) Energy = -2039.81032113293463
 One-Electron (beta)  Energy = -2005.91554675350244
 Total Coulomb        Energy = 1308.93092651871939
    7   -2692.3279485860      9.05e-06  
 Alpha HF Exchange    Energy = -10.84689120025092
 Beta HF Exchange     Energy = -10.65634122713643
 DFT Correlation      Energy =  -3.11914405580864
 DFT Exchange         Energy = -85.51180684555064
 One-Electron (alpha) Energy = -2039.81959514365735
 One-Electron (beta)  Energy = -2005.92236473277239
 Total Coulomb        Energy = 1308.94789231773188
    8   -2692.3279495528      4.53e-06  
 Alpha HF Exchange    Energy = -10.84688036638248
 Beta HF Exchange     Energy = -10.65635020733560
 DFT Correlation      Energy =  -3.11913809724856
 DFT Exchange         Energy = -85.51179050457435
 One-Electron (alpha) Energy = -2039.81822195796940
 One-Electron (beta)  Energy = -2005.92150735954260
 Total Coulomb        Energy = 1308.94563743072536
    9   -2692.3279497277      2.18e-06  
 Alpha HF Exchange    Energy = -10.84687900161396
 Beta HF Exchange     Energy = -10.65634775064179
 DFT Correlation      Energy =  -3.11913583549664
 DFT Exchange         Energy = -85.51177390101495
 One-Electron (alpha) Energy = -2039.81775060670930
 One-Electron (beta)  Energy = -2005.92141785002173
 Total Coulomb        Energy = 1308.94505384246486
   10   -2692.3279497684      3.39e-07  Convergence criterion met
 ---------------------------------------
 SCF time:   CPU 24.97s  wall 2.00s 
<S^2> =          2.005440880
 Alpha HF Exchange    Energy = -10.84687900161396
 Beta HF Exchange     Energy = -10.65634775064179
 DFT Correlation      Energy =  -3.11913583549664
 DFT Exchange         Energy = -85.51177390101495
 One-Electron (alpha) Energy = -2039.81775060670930
 One-Electron (beta)  Energy = -2005.92141785002173
 Total Coulomb        Energy = 1308.94505384246486
 Nuclear repulsion Energy = 154.60030133459944
 SCF   energy in the final basis set =    -2692.3279497684
 Total energy in the final basis set =    -2692.3279497684
 
 --------------------------------------------------------------
 
                    Orbital Energies (a.u.)
 --------------------------------------------------------------
 
 Alpha MOs
 -- Occupied --
******* -62.557 -56.381 -56.374 -56.374 -10.184 -10.175 -10.175
 -8.744  -6.581  -6.558  -6.558  -2.672  -2.666  -2.666  -2.650
 -2.650  -0.797  -0.775  -0.685  -0.565  -0.446  -0.423  -0.403
 -0.380  -0.371  -0.349  -0.343  -0.322  -0.322  -0.177
 -- Virtual --
  0.107   0.127   0.147   0.166   0.175   0.183   0.187   0.192
  0.259   0.287   0.296   0.311   0.314   0.500   0.514   0.533
  0.545   0.545   0.557   0.567   0.581   0.582   0.589   0.639
  0.723   0.733   0.749   0.812   0.854   0.858   0.882   0.884
  0.928   0.945   0.948   1.247   1.297   1.354   1.359   1.535
  1.677   1.685   1.800   1.818   1.864   1.893   1.979   2.048
  2.052   2.077   2.107   2.120   2.138   2.283   2.293   2.378
  2.387   2.484   2.543   2.590   2.678   2.729   2.767   2.842
  2.869   2.911   2.968   3.155   3.206   3.351   3.426   3.428
  3.455   3.532   4.187   4.490   4.563   4.648   4.657   4.657
  4.682   4.682   6.205  90.122
 
 Beta MOs
 -- Occupied --
******* -62.555 -56.376 -56.373 -56.373 -10.176 -10.176 -10.170
 -8.740  -6.570  -6.557  -6.557  -2.664  -2.660  -2.660  -2.649
 -2.649  -0.758  -0.753  -0.683  -0.544  -0.441  -0.406  -0.397
 -0.374  -0.346  -0.338  -0.308  -0.308
 -- Virtual --
 -0.235  -0.026   0.109   0.132   0.149   0.174   0.184   0.187
  0.192   0.198   0.270   0.302   0.315   0.316   0.319   0.502
  0.517   0.576   0.588   0.590   0.591   0.591   0.593   0.594
  0.595   0.670   0.732   0.745   0.749   0.828   0.859   0.863
  0.887   0.894   0.933   0.949   0.956   1.261   1.307   1.361
  1.382   1.535   1.691   1.695   1.823   1.829   1.891   1.915
  2.004   2.053   2.058   2.082   2.112   2.124   2.145   2.286
  2.311   2.388   2.392   2.505   2.561   2.601   2.683   2.733
  2.773   2.848   2.876   2.918   2.972   3.160   3.211   3.357
  3.428   3.432   3.460   3.538   4.209   4.490   4.575   4.667
  4.671   4.671   4.684   4.685   6.221  90.129
 --------------------------------------------------------------
 
          Ground-State Mulliken Net Atomic Charges

     Atom                 Charge (a.u.)    Spin (a.u.)
  --------------------------------------------------------
      1 Br                   -0.000053       1.000125
      2 C                    -0.071182       1.019411
      3 C                    -0.333343      -0.079983
      4 C                    -0.333345      -0.079982
      5 H                     0.088937      -0.046524
      6 H                     0.108472       0.007103
      7 H                     0.108670       0.062990
      8 H                     0.107344       0.023385
      9 H                     0.108490       0.007107
     10 H                     0.108668       0.062990
     11 H                     0.107341       0.023377
  --------------------------------------------------------
  Sum of atomic charges =     0.000000
  Sum of spin   charges =     2.000000

 -----------------------------------------------------------------
                    Cartesian Multipole Moments
 -----------------------------------------------------------------
    Charge (ESU x 10^10)
                 0.0000
    Dipole Moment (Debye)
         X      -0.1920      Y       0.0002      Z       0.0470
       Tot       0.1977
    Quadrupole Moments (Debye-Ang)
        XX     -39.5750     XY       0.0099     YY     -36.4062
        XZ       0.4306     YZ       0.0026     ZZ     -39.4718
    Octopole Moments (Debye-Ang^2)
       XXX    -205.2434    XXY       0.1097    XYY     -54.2337
       YYY       0.0405    XXZ      -9.6234    XYZ       0.0184
       YYZ      -7.5839    XZZ     -67.9688    YZZ       0.0196
       ZZZ     -29.9535
    Hexadecapole Moments (Debye-Ang^3)
      XXXX   -2705.5227   XXXY       0.9697   XXYY    -426.0139
      XYYY       0.2720   YYYY    -220.8828   XXXZ    -161.5412
      XXYZ       0.1279   XYYZ     -45.7208   YYYZ       0.0394
      XXZZ    -468.8442   XYZZ       0.1230   YYZZ     -54.4838
      XZZZ    -156.4786   YZZZ       0.0475   ZZZZ    -104.6861
 -----------------------------------------------------------------
 Calculating analytic gradient of the SCF energy
 Gradient of SCF Energy
            1           2           3           4           5           6
    1  -0.0000330  -0.0000070   0.0000161   0.0000158  -0.0000011  -0.0000074
    2   0.0000000   0.0000001   0.0000016  -0.0000018   0.0000000  -0.0000023
    3   0.0000205   0.0000355  -0.0000271  -0.0000267   0.0000286   0.0000083
            7           8           9          10          11
    1  -0.0000047   0.0000167  -0.0000073  -0.0000047   0.0000166
    2   0.0000031  -0.0000010   0.0000024  -0.0000030   0.0000010
    3  -0.0000173  -0.0000063   0.0000082  -0.0000171  -0.0000066
 Max gradient component =       3.550E-05
 RMS gradient           =       1.472E-05
 Gradient time:  CPU 8.73 s  wall 0.78 s
 Geometry Optimization Parameters
   NAtoms,    NIC,     NZ,  NCons,   NDum,   NFix, NCnnct, MaxDiis
       11      62       0       1       0       0       0       0


** CONSTRAINED OPTIMIZATION IN DELOCALIZED INTERNAL COORDINATES **
   Searching for a Minimum

   Optimization Cycle:   1

                       Coordinates (Angstroms)
     ATOM                X               Y               Z
      1  Br        4.7053370000   -0.0011460000    0.5618130000
      2  C        -0.5878930000    0.0001800000    0.2940070000
      3  C        -1.1478260000   -1.2985030000   -0.1819610000
      4  C        -1.1473320000    1.2990320000   -0.1820800000
      5  H         0.0585110000    0.0001030000    1.1680430000
      6  H        -0.5016740000   -2.1437720000    0.0755720000
      7  H        -2.1399120000   -1.5091000000    0.2561900000
      8  H        -1.2915600000   -1.2998460000   -1.2711000000
      9  H        -0.5007770000    2.1440570000    0.0752440000
     10  H        -2.1392680000    1.5101170000    0.2561750000
     11  H        -1.2912060000    1.3002770000   -1.2712000000
   Point Group: c1    Number of degrees of freedom:    27


   Energy is  -2692.327949768

              Constraints and their Current Values
                                        Value     Constraint
   Distance(Angs):        1   2             5.300001     5.200000

 Attempting to Generate Delocalized Internal Coordinates

   Using Lagrange Multiplier Algorithm


 28 Hessian modes will be used to form the next step
  Hessian Eigenvalues:
    -0.998586    0.044852    0.045000    0.045000    0.045000    0.045660
     0.092087    0.092088    0.092952    0.092952    0.156414    0.160000
     0.160000    0.160000    0.160000    0.160000    0.160000    0.217890
     0.329001    0.331579    0.331579    0.332101    0.332101    0.338393
     0.338394    0.342778    0.342778    1.001416

 Minimum Search - Taking P-RFO Step
 Searching for Lamda that Maximizes Along the Constraint modes Only
 Value Taken    Lamda =   0.01761178
 Searching for Lamda that Minimizes Along All other modes
 Value Taken    Lamda =  -0.01748369
 Step Taken.  Stepsize is  0.185721

                             Maximum     Tolerance    Cnvgd?
         Gradient            0.188974       0.000300      NO
         Displacement        0.185715       0.001200      NO
         Energy change     *********       0.000001      NO


 New Cartesian Coordinates Obtained by Inverse Iteration

 Displacement from previous Coordinates is:  0.368431
 ----------------------------------------------------------------
             Standard Nuclear Orientation (Angstroms)
    I     Atom           X                Y                Z
 ----------------------------------------------------------------
    1      Br      4.6051811234    -0.0011337856     0.4777324661
    2      C      -0.5943020038     0.0001842431     0.3250506441
    3      C      -1.1321153074    -1.2985274747    -0.1756986974
    4      C      -1.1316258563     1.2990513155    -0.1758209423
    5      H       0.0027476818     0.0001191747     1.2143894278
    6      H      -0.4982561999    -2.1437623609     0.1108618962
    7      H      -2.1430124919    -1.5091121776     0.2171171892
    8      H      -1.2264122593    -1.2999476394    -1.2702267293
    9      H      -0.4973624580     2.1440527748     0.1105343473
   10      H      -2.1423803090     1.5101233324     0.2170994869
   11      H      -1.2260619195     1.3003515978    -1.2703360885
 ----------------------------------------------------------------
 Nuclear Repulsion Energy =   156.2089217603 hartrees
 There are       31 alpha and       29 beta electrons

                       Distance Matrix (Angstroms)
             Br(  1)   C (  2)   C (  3)   C (  4)   H (  5)   H (  6)
   C (  2)  5.201725
   C (  3)  5.918342  1.492195
   C (  4)  5.918494  1.492195  2.597579
   H (  5)  4.661015  1.071164  2.215117  2.215110
   H (  6)  5.547119  2.156759  1.094676  3.512308  2.462723
   H (  7)  6.919540  2.165209  1.104791  3.010496  2.806531  1.766152
   H (  8)  6.224931  2.152862  1.098583  2.821614  3.061752  1.774723
   H (  9)  5.547307  2.156754  3.512293  1.094677  2.462734  4.287815
   H ( 10)  6.919640  2.165206  3.010556  1.104791  2.806470  4.008156
   H ( 11)  6.225191  2.152862  2.821565  1.098582  3.061770  3.781445
             H (  7)   H (  8)   H (  9)   H ( 10)
   H (  8)  1.759573
   H (  9)  4.008134  3.781422
   H ( 10)  3.019236  3.308721  1.766156
   H ( 11)  3.308535  2.600299  1.774722  1.759576
 
 Applying Cartesian multipole field
    Component          Value
    ---------          -----
     (2,0,0)        1.00000E-11
     (0,2,0)        2.00000E-11
     (0,0,2)       -3.00000E-10
 Nucleus-field energy     =     0.0000000155 hartrees
 Requested basis set is 6-31G(d,p)
 There are 41 shells and 115 basis functions
 A cutoff of  1.0D-14 yielded    719 shell pairs
 There are      5258 function pairs
 Smallest overlap matrix eigenvalue = 7.27E-04
 Guess from superposition of atomic densities
 Warning:  Energy on first SCF cycle will be non-variational
 SAD guess density has 59.972873 electrons

 -----------------------------------------------------------------------
  General SCF calculation program by
  Eric Jon Sundstrom, Paul Horn, Yuezhi Mao, Dmitri Zuev, Alec White,
  David Stuck, Shaama M.S., Shane Yost, Joonho Lee, David Small,
  Daniel Levine, Susi Lehtola, Hugh Burton, Evgeny Epifanovsky
 -----------------------------------------------------------------------
 Exchange:     0.2000 Hartree-Fock + 0.0800 Slater + 0.7200 B88
 Correlation:  0.1900 VWN1RPA + 0.8100 LYP
 Using SG-1 standard quadrature grid
 using 12 threads for integral computing
 -------------------------------------------------------
 OpenMP Integral computing Module                
 Release: version 1.0, May 2013, Q-Chem Inc. Pittsburgh 
 -------------------------------------------------------
 -------------------------------------------------------
 OpenMP BLAS3 based DFT computing Module                
 Release: version 1.0, May 2013, Q-Chem Inc. Pittsburgh 
 -------------------------------------------------------
 A unrestricted SCF calculation will be
 performed using DIIS
 SCF converges when DIIS error is below 1.0e-06
 Alpha HF Exchange    Energy = -10.71482304704202
 Beta HF Exchange     Energy = -10.71482304704202
 DFT Correlation      Energy =  -3.10458541567070
 DFT Exchange         Energy = -84.98128615835469
 One-Electron (alpha) Energy = -2022.82920798110285
 One-Electron (beta)  Energy = -2022.82920798110285
 Total Coulomb        Energy = 1303.41731997434681
 ---------------------------------------
  Cycle       Energy         DIIS error
 ---------------------------------------
    1   -2695.5476918802      1.64e-01  
 Alpha HF Exchange    Energy = -10.89749312686097
 Beta HF Exchange     Energy = -10.70171786231099
 DFT Correlation      Energy =  -3.13881650725063
 DFT Exchange         Energy = -85.90898853401751
 One-Electron (alpha) Energy = -2045.30803814405090
 One-Electron (beta)  Energy = -2011.21809534891327
 Total Coulomb        Energy = 1318.75118513298571
    2   -2692.2130426147      9.58e-03  
 Alpha HF Exchange    Energy = -10.79827767070738
 Beta HF Exchange     Energy = -10.61330577999525
 DFT Correlation      Energy =  -3.10184752450969
 DFT Exchange         Energy = -85.13973523824211
 One-Electron (alpha) Energy = -2037.58128390790284
 One-Electron (beta)  Energy = -2004.02072035857850
 Total Coulomb        Energy = 1302.83470289434581
    3   -2692.2115458098      4.33e-03  
 Alpha HF Exchange    Energy = -10.87355043753176
 Beta HF Exchange     Energy = -10.68020927078085
 DFT Correlation      Energy =  -3.12962010821320
 DFT Exchange         Energy = -85.71793838209513
 One-Electron (alpha) Energy = -2043.34308693610660
 One-Electron (beta)  Energy = -2009.20140060433823
 Total Coulomb        Energy = 1314.45121851288559
    4   -2692.2856654504      2.59e-03  
 Alpha HF Exchange    Energy = -10.84913890095820
 Beta HF Exchange     Energy = -10.65847311680650
 DFT Correlation      Energy =  -3.11968638444060
 DFT Exchange         Energy = -85.52821949952892
 One-Electron (alpha) Energy = -2041.67003168847600
 One-Electron (beta)  Energy = -2007.63595898268795
 Total Coulomb        Energy = 1310.92499264067010
    5   -2692.3275941565      2.22e-04  
 Alpha HF Exchange    Energy = -10.84753989041665
 Beta HF Exchange     Energy = -10.65695389159721
 DFT Correlation      Energy =  -3.11957672061660
 DFT Exchange         Energy = -85.51653717052440
 One-Electron (alpha) Energy = -2041.48370610371467
 One-Electron (beta)  Energy = -2007.46997845866895
 Total Coulomb        Energy = 1310.55761746623079
    6   -2692.3277529935      4.49e-05  
 Alpha HF Exchange    Energy = -10.84740429948217
 Beta HF Exchange     Energy = -10.65689665538075
 DFT Correlation      Energy =  -3.11941221900055
 DFT Exchange         Energy = -85.51555109501064
 One-Electron (alpha) Energy = -2041.47848818449984
 One-Electron (beta)  Energy = -2007.46490151561784
 Total Coulomb        Energy = 1310.54596773250591
    7   -2692.3277644607      8.68e-06  
 Alpha HF Exchange    Energy = -10.84750305718885
 Beta HF Exchange     Energy = -10.65697106986070
 DFT Correlation      Energy =  -3.11942581269018
 DFT Exchange         Energy = -85.51621875117786
 One-Electron (alpha) Energy = -2041.48735166112237
 One-Electron (beta)  Energy = -2007.47147793631007
 Total Coulomb        Energy = 1310.56226111206024
    8   -2692.3277654005      3.90e-06  
 Alpha HF Exchange    Energy = -10.84749173249890
 Beta HF Exchange     Energy = -10.65697909469385
 DFT Correlation      Energy =  -3.11941958383670
 DFT Exchange         Energy = -85.51619676832401
 One-Electron (alpha) Energy = -2041.48588342277094
 One-Electron (beta)  Energy = -2007.47062911508510
 Total Coulomb        Energy = 1310.55991240316416
    9   -2692.3277655383      2.13e-06  
 Alpha HF Exchange    Energy = -10.84749105701345
 Beta HF Exchange     Energy = -10.65697692246352
 DFT Correlation      Energy =  -3.11941794002619
 DFT Exchange         Energy = -85.51618463095406
 One-Electron (alpha) Energy = -2041.48553520740984
 One-Electron (beta)  Energy = -2007.47063212886428
 Total Coulomb        Energy = 1310.55955053624211
   10   -2692.3277655747      3.55e-07  Convergence criterion met
 ---------------------------------------
 SCF time:   CPU 24.04s  wall 2.00s 
<S^2> =          2.005385514
 Alpha HF Exchange    Energy = -10.84749105701345
 Beta HF Exchange     Energy = -10.65697692246352
 DFT Correlation      Energy =  -3.11941794002619
 DFT Exchange         Energy = -85.51618463095406
 One-Electron (alpha) Energy = -2041.48553520740984
 One-Electron (beta)  Energy = -2007.47063212886428
 Total Coulomb        Energy = 1310.55955053624211
 Nuclear repulsion Energy = 156.20892177576144
 SCF   energy in the final basis set =    -2692.3277655747
 Total energy in the final basis set =    -2692.3277655747
 
 --------------------------------------------------------------
 
                    Orbital Energies (a.u.)
 --------------------------------------------------------------
 
 Alpha MOs
 -- Occupied --
******* -62.557 -56.381 -56.373 -56.373 -10.182 -10.175 -10.175
 -8.744  -6.581  -6.558  -6.558  -2.671  -2.666  -2.666  -2.649
 -2.649  -0.796  -0.775  -0.685  -0.567  -0.446  -0.423  -0.403
 -0.380  -0.371  -0.349  -0.344  -0.322  -0.322  -0.177
 -- Virtual --
  0.107   0.130   0.147   0.166   0.175   0.183   0.189   0.192
  0.260   0.287   0.296   0.312   0.314   0.500   0.514   0.533
  0.545   0.545   0.557   0.568   0.581   0.582   0.589   0.639
  0.724   0.731   0.749   0.813   0.855   0.858   0.883   0.888
  0.928   0.945   0.952   1.246   1.298   1.354   1.359   1.536
  1.677   1.690   1.799   1.817   1.863   1.893   1.987   2.048
  2.052   2.077   2.107   2.120   2.141   2.283   2.296   2.380
  2.387   2.492   2.544   2.597   2.683   2.730   2.770   2.843
  2.872   2.916   2.975   3.156   3.207   3.364   3.426   3.433
  3.456   3.546   4.187   4.490   4.563   4.649   4.657   4.657
  4.682   4.682   6.206  90.123
 
 Beta MOs
 -- Occupied --
******* -62.555 -56.375 -56.372 -56.372 -10.176 -10.176 -10.169
 -8.740  -6.570  -6.557  -6.557  -2.664  -2.660  -2.660  -2.648
 -2.648  -0.758  -0.753  -0.683  -0.546  -0.441  -0.406  -0.397
 -0.374  -0.345  -0.339  -0.308  -0.308
 -- Virtual --
 -0.235  -0.026   0.109   0.134   0.149   0.174   0.185   0.187
  0.192   0.200   0.271   0.302   0.315   0.316   0.319   0.502
  0.517   0.576   0.589   0.590   0.591   0.591   0.593   0.594
  0.595   0.671   0.733   0.744   0.749   0.829   0.861   0.863
  0.887   0.897   0.933   0.949   0.961   1.260   1.307   1.361
  1.381   1.536   1.695   1.696   1.822   1.827   1.891   1.916
  2.010   2.053   2.058   2.083   2.112   2.124   2.149   2.286
  2.315   2.389   2.394   2.512   2.561   2.609   2.687   2.733
  2.775   2.849   2.879   2.923   2.980   3.160   3.212   3.370
  3.428   3.436   3.460   3.552   4.209   4.490   4.575   4.668
  4.671   4.671   4.684   4.685   6.222  90.129
 --------------------------------------------------------------
 
          Ground-State Mulliken Net Atomic Charges

     Atom                 Charge (a.u.)    Spin (a.u.)
  --------------------------------------------------------
      1 Br                   -0.000110       1.000195
      2 C                    -0.070436       1.018782
      3 C                    -0.333773      -0.079907
      4 C                    -0.333775      -0.079906
      5 H                     0.090061      -0.045976
      6 H                     0.108157       0.007066
      7 H                     0.108567       0.062943
      8 H                     0.107287       0.023398
      9 H                     0.108175       0.007071
     10 H                     0.108564       0.062943
     11 H                     0.107284       0.023391
  --------------------------------------------------------
  Sum of atomic charges =     0.000000
  Sum of spin   charges =     2.000000

 -----------------------------------------------------------------
                    Cartesian Multipole Moments
 -----------------------------------------------------------------
    Charge (ESU x 10^10)
                 0.0000
    Dipole Moment (Debye)
         X      -0.1899      Y       0.0002      Z       0.0463
       Tot       0.1955
    Quadrupole Moments (Debye-Ang)
        XX     -39.6273     XY       0.0097     YY     -36.4101
        XZ       0.4059     YZ       0.0009     ZZ     -39.4117
    Octopole Moments (Debye-Ang^2)
       XXX    -200.2095    XXY       0.1055    XYY     -52.8162
       YYY       0.0400    XXZ      -8.3023    XYZ       0.0089
       YYZ      -6.4148    XZZ     -66.1642    YZZ       0.0172
       ZZZ     -25.8449
    Hexadecapole Moments (Debye-Ang^3)
      XXXX   -2596.5058   XXXY       0.9182   XXYY    -410.4604
      XYYY       0.2633   YYYY    -220.9852   XXXZ    -135.4309
      XXYZ       0.0749   XYYZ     -38.2776   YYYZ       0.0323
      XXZZ    -449.4691   XYZZ       0.1085   YYZZ     -53.1632
      XZZZ    -130.6318   YZZZ       0.0376   ZZZZ     -95.3133
 -----------------------------------------------------------------
 Calculating analytic gradient of the SCF energy
 Gradient of SCF Energy
            1           2           3           4           5           6
    1   0.0000058   0.0061429   0.0001095   0.0001090  -0.0064115  -0.0000368
    2  -0.0000000  -0.0000007  -0.0001159   0.0001162   0.0000007   0.0000206
    3   0.0000087   0.0088430   0.0002200   0.0002200  -0.0092153  -0.0000156
            7           8           9          10          11
    1   0.0000016   0.0000573  -0.0000369   0.0000018   0.0000572
    2   0.0000423   0.0000588  -0.0000206  -0.0000424  -0.0000589
    3  -0.0000004  -0.0000223  -0.0000157  -0.0000001  -0.0000222
 Max gradient component =       9.215E-03
 RMS gradient           =       2.709E-03
 Gradient time:  CPU 8.74 s  wall 0.77 s
 Geometry Optimization Parameters
   NAtoms,    NIC,     NZ,  NCons,   NDum,   NFix, NCnnct, MaxDiis
       11      62       0       1       0       0       0       0

 Cartesian Hessian Update
 Hessian Updated using BFGS Update


** CONSTRAINED OPTIMIZATION IN DELOCALIZED INTERNAL COORDINATES **
   Searching for a Minimum

   Optimization Cycle:   2

                       Coordinates (Angstroms)
     ATOM                X               Y               Z
      1  Br        4.6051811234   -0.0011337856    0.4777324661
      2  C        -0.5943020038    0.0001842431    0.3250506441
      3  C        -1.1321153074   -1.2985274747   -0.1756986974
      4  C        -1.1316258563    1.2990513155   -0.1758209423
      5  H         0.0027476818    0.0001191747    1.2143894278
      6  H        -0.4982561999   -2.1437623609    0.1108618962
      7  H        -2.1430124919   -1.5091121776    0.2171171892
      8  H        -1.2264122593   -1.2999476394   -1.2702267293
      9  H        -0.4973624580    2.1440527748    0.1105343473
     10  H        -2.1423803090    1.5101233324    0.2170994869
     11  H        -1.2260619195    1.3003515978   -1.2703360885
   Point Group: c1    Number of degrees of freedom:    27


   Energy is  -2692.327765575

              Constraints and their Current Values
                                        Value     Constraint
   Distance(Angs):        1   2             5.201725     5.200000
 Hessian Updated using BFGS Update

   Using Lagrange Multiplier Algorithm


 23 Hessian modes will be used to form the next step
  Hessian Eigenvalues:
    -0.996101    0.044996    0.045000    0.045599    0.045898    0.092087
     0.092089    0.092952    0.092953    0.156414    0.160000    0.160038
     0.217976    0.331579    0.331579    0.332100    0.332101    0.338393
     0.338394    0.342777    0.342778    0.664922    1.009801

 Minimum Search - Taking P-RFO Step
 Searching for Lamda that Maximizes Along the Constraint modes Only
 Value Taken    Lamda =   0.00000889
 Searching for Lamda that Minimizes Along All other modes
 Value Taken    Lamda =  -0.00018249
 Step Taken.  Stepsize is  0.019631

                             Maximum     Tolerance    Cnvgd?
         Gradient            0.007030       0.000300      NO
         Displacement        0.013303       0.001200      NO
         Energy change      0.000184       0.000001      NO


 New Cartesian Coordinates Obtained by Inverse Iteration

 Displacement from previous Coordinates is:  0.016345
 ----------------------------------------------------------------
             Standard Nuclear Orientation (Angstroms)
    I     Atom           X                Y                Z
 ----------------------------------------------------------------
    1      Br      4.6036655278    -0.0011268465     0.4788531477
    2      C      -0.5940323479     0.0001826681     0.3241375464
    3      C      -1.1325266889    -1.2984042531    -0.1764762896
    4      C      -1.1320331647     1.2989269088    -0.1765984678
    5      H       0.0082428455     0.0001163467     1.2197396759
    6      H      -0.4983849214    -2.1436939077     0.1094153033
    7      H      -2.1430528794    -1.5091332754     0.2172316676
    8      H      -1.2279662273    -1.2998868690    -1.2708956259
    9      H      -0.4974860901     2.1439810952     0.1090905557
   10      H      -2.1424173819     1.5101458583     0.2172103375
   11      H      -1.2276086717     1.3002912746    -1.2710048507
 ----------------------------------------------------------------
 Nuclear Repulsion Energy =   156.1942191515 hartrees
 There are       31 alpha and       29 beta electrons

                       Distance Matrix (Angstroms)
             Br(  1)   C (  2)   C (  3)   C (  4)   H (  5)   H (  6)
   C (  2)  5.200000
   C (  3)  5.917456  1.492286
   C (  4)  5.917601  1.492286  2.597331
   H (  5)  4.654764  1.079277  2.221920  2.221913
   H (  6)  5.545989  2.156725  1.094707  3.512115  2.466863
   H (  7)  6.918146  2.165393  1.104797  3.010393  2.812638  1.766133
   H (  8)  6.225458  2.153180  1.098574  2.821440  3.069444  1.774699
   H (  9)  5.546166  2.156719  3.512099  1.094708  2.466872  4.287675
   H ( 10)  6.918239  2.165391  3.010452  1.104796  2.812578  4.008118
   H ( 11)  6.225709  2.153179  2.821392  1.098573  3.069461  3.781317
             H (  7)   H (  8)   H (  9)   H ( 10)
   H (  8)  1.759457
   H (  9)  4.008095  3.781295
   H ( 10)  3.019279  3.308620  1.766136
   H ( 11)  3.308437  2.600178  1.774699  1.759460
 
 Applying Cartesian multipole field
    Component          Value
    ---------          -----
     (2,0,0)        1.00000E-11
     (0,2,0)        2.00000E-11
     (0,0,2)       -3.00000E-10
 Nucleus-field energy     =     0.0000000154 hartrees
 Requested basis set is 6-31G(d,p)
 There are 41 shells and 115 basis functions
 A cutoff of  1.0D-14 yielded    719 shell pairs
 There are      5258 function pairs
 Smallest overlap matrix eigenvalue = 7.27E-04
 Guess from superposition of atomic densities
 Warning:  Energy on first SCF cycle will be non-variational
 SAD guess density has 59.972873 electrons

 -----------------------------------------------------------------------
  General SCF calculation program by
  Eric Jon Sundstrom, Paul Horn, Yuezhi Mao, Dmitri Zuev, Alec White,
  David Stuck, Shaama M.S., Shane Yost, Joonho Lee, David Small,
  Daniel Levine, Susi Lehtola, Hugh Burton, Evgeny Epifanovsky
 -----------------------------------------------------------------------
 Exchange:     0.2000 Hartree-Fock + 0.0800 Slater + 0.7200 B88
 Correlation:  0.1900 VWN1RPA + 0.8100 LYP
 Using SG-1 standard quadrature grid
 using 12 threads for integral computing
 -------------------------------------------------------
 OpenMP Integral computing Module                
 Release: version 1.0, May 2013, Q-Chem Inc. Pittsburgh 
 -------------------------------------------------------
 -------------------------------------------------------
 OpenMP BLAS3 based DFT computing Module                
 Release: version 1.0, May 2013, Q-Chem Inc. Pittsburgh 
 -------------------------------------------------------
 A unrestricted SCF calculation will be
 performed using DIIS
 SCF converges when DIIS error is below 1.0e-06
 Alpha HF Exchange    Energy = -10.71431289878063
 Beta HF Exchange     Energy = -10.71431289878063
 DFT Correlation      Energy =  -3.10447821041049
 DFT Exchange         Energy = -84.98016554305245
 One-Electron (alpha) Energy = -2022.81907680763879
 One-Electron (beta)  Energy = -2022.81907680763879
 Total Coulomb        Energy = 1303.41281481922147
 ---------------------------------------
  Cycle       Energy         DIIS error
 ---------------------------------------
    1   -2695.5443891802      1.64e-01  
 Alpha HF Exchange    Energy = -10.89706663321960
 Beta HF Exchange     Energy = -10.70136710217070
 DFT Correlation      Energy =  -3.13866001800029
 DFT Exchange         Energy = -85.90614496419033
 One-Electron (alpha) Energy = -2045.29162512144580
 One-Electron (beta)  Energy = -2011.20335255563759
 Total Coulomb        Energy = 1318.73070145026963
    2   -2692.2132957775      9.58e-03  
 Alpha HF Exchange    Energy = -10.79797537674363
 Beta HF Exchange     Energy = -10.61297779018133
 DFT Correlation      Energy =  -3.10169633541450
 DFT Exchange         Energy = -85.13747842516854
 One-Electron (alpha) Energy = -2037.56950100157860
 One-Electron (beta)  Energy = -2004.00825840688708
 Total Coulomb        Energy = 1302.82211956906781
    3   -2692.2115486000      4.33e-03  
 Alpha HF Exchange    Energy = -10.87323914278193
 Beta HF Exchange     Energy = -10.67990607233559
 DFT Correlation      Energy =  -3.12949220803522
 DFT Exchange         Energy = -85.71576746269569
 One-Electron (alpha) Energy = -2043.33143893293459
 One-Electron (beta)  Energy = -2009.18942256011860
 Total Coulomb        Energy = 1314.43940600063752
    4   -2692.2856412114      2.59e-03  
 Alpha HF Exchange    Energy = -10.84880811532034
 Beta HF Exchange     Energy = -10.65814848210361
 DFT Correlation      Energy =  -3.11953824994230
 DFT Exchange         Energy = -85.52587119334970
 One-Electron (alpha) Energy = -2041.65777065206453
 One-Electron (beta)  Energy = -2007.62311971124495
 Total Coulomb        Energy = 1310.91131807380179
    5   -2692.3277191633      2.24e-04  
 Alpha HF Exchange    Energy = -10.84721649217948
 Beta HF Exchange     Energy = -10.65662411347799
 DFT Correlation      Energy =  -3.11943191373395
 DFT Exchange         Energy = -85.51420394705667
 One-Electron (alpha) Energy = -2041.47166890528524
 One-Electron (beta)  Energy = -2007.45713757009548
 Total Coulomb        Energy = 1310.54418360323984
    6   -2692.3278801717      4.50e-05  
 Alpha HF Exchange    Energy = -10.84707596692404
 Beta HF Exchange     Energy = -10.65656433291735
 DFT Correlation      Energy =  -3.11926565747935
 DFT Exchange         Energy = -85.51318748435077
 One-Electron (alpha) Energy = -2041.46597219516525
 One-Electron (beta)  Energy = -2007.45155797173743
 Total Coulomb        Energy = 1310.53151266407167
    7   -2692.3278917776      8.86e-06  
 Alpha HF Exchange    Energy = -10.84717732113900
 Beta HF Exchange     Energy = -10.65663817808525
 DFT Correlation      Energy =  -3.11927950499453
 DFT Exchange         Energy = -85.51386339289294
 One-Electron (alpha) Energy = -2041.47505204786216
 One-Electron (beta)  Energy = -2007.45825198742523
 Total Coulomb        Energy = 1310.54815053450920
    8   -2692.3278927310      4.22e-06  
 Alpha HF Exchange    Energy = -10.84716617777051
 Beta HF Exchange     Energy = -10.65664667287223
 DFT Correlation      Energy =  -3.11927340264607
 DFT Exchange         Energy = -85.51384394053841
 One-Electron (alpha) Energy = -2041.47362909251933
 One-Electron (beta)  Energy = -2007.45738988206472
 Total Coulomb        Energy = 1310.54583711538771
    9   -2692.3278928861      2.17e-06  
 Alpha HF Exchange    Energy = -10.84716517406547
 Beta HF Exchange     Energy = -10.65664435683228
 DFT Correlation      Energy =  -3.11927144542388
 DFT Exchange         Energy = -85.51382962156336
 One-Electron (alpha) Energy = -2041.47321989032343
 One-Electron (beta)  Energy = -2007.45734745110826
 Total Coulomb        Energy = 1310.54536584723724
   10   -2692.3278929252      3.46e-07  Convergence criterion met
 ---------------------------------------
 SCF time:   CPU 24.30s  wall 2.00s 
<S^2> =          2.005413799
 Alpha HF Exchange    Energy = -10.84716517406547
 Beta HF Exchange     Energy = -10.65664435683228
 DFT Correlation      Energy =  -3.11927144542388
 DFT Exchange         Energy = -85.51382962156336
 One-Electron (alpha) Energy = -2041.47321989032343
 One-Electron (beta)  Energy = -2007.45734745110826
 Total Coulomb        Energy = 1310.54536584723724
 Nuclear repulsion Energy = 156.19421916688816
 SCF   energy in the final basis set =    -2692.3278929252
 Total energy in the final basis set =    -2692.3278929252
 
 --------------------------------------------------------------
 
                    Orbital Energies (a.u.)
 --------------------------------------------------------------
 
 Alpha MOs
 -- Occupied --
******* -62.557 -56.381 -56.373 -56.373 -10.183 -10.175 -10.175
 -8.744  -6.581  -6.558  -6.558  -2.671  -2.666  -2.666  -2.649
 -2.649  -0.796  -0.775  -0.685  -0.566  -0.446  -0.423  -0.403
 -0.380  -0.371  -0.349  -0.343  -0.322  -0.322  -0.177
 -- Virtual --
  0.107   0.128   0.147   0.166   0.175   0.183   0.188   0.192
  0.260   0.287   0.296   0.312   0.314   0.500   0.514   0.533
  0.545   0.545   0.557   0.567   0.581   0.582   0.589   0.639
  0.723   0.733   0.749   0.813   0.855   0.858   0.882   0.886
  0.928   0.945   0.950   1.247   1.298   1.354   1.359   1.536
  1.677   1.687   1.800   1.817   1.863   1.893   1.983   2.048
  2.052   2.077   2.107   2.120   2.140   2.283   2.294   2.379
  2.387   2.488   2.543   2.593   2.680   2.730   2.769   2.842
  2.871   2.913   2.971   3.155   3.206   3.358   3.426   3.431
  3.456   3.538   4.187   4.490   4.563   4.649   4.657   4.657
  4.682   4.682   6.206  90.123
 
 Beta MOs
 -- Occupied --
******* -62.555 -56.375 -56.372 -56.372 -10.176 -10.176 -10.170
 -8.740  -6.570  -6.557  -6.557  -2.664  -2.660  -2.660  -2.648
 -2.648  -0.758  -0.753  -0.683  -0.545  -0.441  -0.406  -0.397
 -0.374  -0.345  -0.338  -0.308  -0.308
 -- Virtual --
 -0.235  -0.026   0.109   0.133   0.149   0.174   0.185   0.187
  0.192   0.199   0.270   0.302   0.315   0.316   0.319   0.502
  0.517   0.576   0.589   0.590   0.591   0.591   0.593   0.594
  0.595   0.671   0.732   0.744   0.749   0.829   0.860   0.863
  0.887   0.896   0.933   0.949   0.959   1.260   1.307   1.361
  1.381   1.535   1.693   1.695   1.823   1.828   1.891   1.915
  2.007   2.053   2.058   2.082   2.112   2.124   2.147   2.286
  2.313   2.388   2.393   2.508   2.561   2.604   2.685   2.733
  2.774   2.848   2.878   2.921   2.976   3.160   3.212   3.364
  3.428   3.434   3.460   3.544   4.209   4.490   4.575   4.668
  4.671   4.671   4.684   4.685   6.222  90.129
 --------------------------------------------------------------
 
          Ground-State Mulliken Net Atomic Charges

     Atom                 Charge (a.u.)    Spin (a.u.)
  --------------------------------------------------------
      1 Br                   -0.000112       1.000195
      2 C                    -0.070681       1.019096
      3 C                    -0.333581      -0.079936
      4 C                    -0.333583      -0.079935
      5 H                     0.089503      -0.046252
      6 H                     0.108274       0.007086
      7 H                     0.108607       0.062958
      8 H                     0.107340       0.023373
      9 H                     0.108293       0.007091
     10 H                     0.108604       0.062958
     11 H                     0.107337       0.023366
  --------------------------------------------------------
  Sum of atomic charges =     0.000000
  Sum of spin   charges =     2.000000

 -----------------------------------------------------------------
                    Cartesian Multipole Moments
 -----------------------------------------------------------------
    Charge (ESU x 10^10)
                 0.0000
    Dipole Moment (Debye)
         X      -0.1933      Y       0.0002      Z       0.0423
       Tot       0.1979
    Quadrupole Moments (Debye-Ang)
        XX     -39.6294     XY       0.0097     YY     -36.4099
        XZ       0.4121     YZ       0.0008     ZZ     -39.4184
    Octopole Moments (Debye-Ang^2)
       XXX    -200.1343    XXY       0.1049    XYY     -52.8001
       YYY       0.0398    XXZ      -8.3239    XYZ       0.0085
       YYZ      -6.4362    XZZ     -66.1313    YZZ       0.0170
       ZZZ     -25.8977
    Hexadecapole Moments (Debye-Ang^3)
      XXXX   -2595.0450   XXXY       0.9127   XXYY    -410.2326
      XYYY       0.2615   YYYY    -220.9295   XXXZ    -135.7472
      XXYZ       0.0729   XYYZ     -38.3660   YYYZ       0.0322
      XXZZ    -449.2547   XYZZ       0.1074   YYZZ     -53.1971
      XZZZ    -130.9303   YZZZ       0.0373   ZZZZ     -95.5558
 -----------------------------------------------------------------
 Calculating analytic gradient of the SCF energy
 Gradient of SCF Energy
            1           2           3           4           5           6
    1  -0.0000006   0.0030745   0.0000065   0.0000061  -0.0030910  -0.0000105
    2  -0.0000000  -0.0000004  -0.0000285   0.0000287   0.0000004   0.0000174
    3   0.0000117   0.0043824   0.0000222   0.0000220  -0.0043771   0.0000064
            7           8           9          10          11
    1  -0.0000071   0.0000197  -0.0000105  -0.0000069   0.0000196
    2   0.0000213  -0.0000069  -0.0000174  -0.0000214   0.0000068
    3  -0.0000216  -0.0000156   0.0000064  -0.0000214  -0.0000154
 Max gradient component =       4.382E-03
 RMS gradient           =       1.319E-03
 Gradient time:  CPU 8.72 s  wall 0.76 s
 Geometry Optimization Parameters
   NAtoms,    NIC,     NZ,  NCons,   NDum,   NFix, NCnnct, MaxDiis
       11      62       0       1       0       0       0       0

 Cartesian Hessian Update
 Hessian Updated using BFGS Update


** CONSTRAINED OPTIMIZATION IN DELOCALIZED INTERNAL COORDINATES **
   Searching for a Minimum

   Optimization Cycle:   3

                       Coordinates (Angstroms)
     ATOM                X               Y               Z
      1  Br        4.6036655278   -0.0011268465    0.4788531477
      2  C        -0.5940323479    0.0001826681    0.3241375464
      3  C        -1.1325266889   -1.2984042531   -0.1764762896
      4  C        -1.1320331647    1.2989269088   -0.1765984678
      5  H         0.0082428455    0.0001163467    1.2197396759
      6  H        -0.4983849214   -2.1436939077    0.1094153033
      7  H        -2.1430528794   -1.5091332754    0.2172316676
      8  H        -1.2279662273   -1.2998868690   -1.2708956259
      9  H        -0.4974860901    2.1439810952    0.1090905557
     10  H        -2.1424173819    1.5101458583    0.2172103375
     11  H        -1.2276086717    1.3002912746   -1.2710048507
   Point Group: c1    Number of degrees of freedom:    27


   Energy is  -2692.327892925

              Constraints and their Current Values
                                        Value     Constraint
   Distance(Angs):        1   2             5.200000     5.200000
 Hessian Updated using BFGS Update

 23 Hessian modes will be used to form the next step
  Hessian Eigenvalues:
     0.043953    0.045000    0.045000    0.045022    0.045689    0.092087
     0.092094    0.092952    0.092956    0.156414    0.159991    0.160000
     0.160133    0.217982    0.331578    0.331579    0.331670    0.332101
     0.338391    0.338393    0.342776    0.342778    0.370115

 Minimum Search - Taking Simple RFO Step
 Searching for Lamda that Minimizes Along All modes
 Value Taken    Lamda =  -0.00007687
 Step Taken.  Stepsize is  0.018845

                             Maximum     Tolerance    Cnvgd?
         Gradient           0.003401      0.000300      NO
         Displacement       0.013024      0.001200      NO
         Energy change     -0.000127      0.000001      NO


 New Cartesian Coordinates Obtained by Inverse Iteration

 Displacement from previous Coordinates is:  0.020516
 ----------------------------------------------------------------
             Standard Nuclear Orientation (Angstroms)
    I     Atom           X                Y                Z
 ----------------------------------------------------------------
    1      Br      4.6038085485    -0.0011103635     0.4828094054
    2      C      -0.5936972436     0.0001789558     0.3217699124
    3      C      -1.1331882098    -1.2985259399    -0.1772636812
    4      C      -1.1326844556     1.2990457315    -0.1773857413
    5      H       0.0146401179     0.0001099749     1.2223106600
    6      H      -0.4981580550    -2.1438066301     0.1067574204
    7      H      -2.1426046571    -1.5095723808     0.2191186838
    8      H      -1.2314423337    -1.2996771162    -1.2714164941
    9      H      -0.4972455188     2.1440858845     0.1064379875
   10      H      -2.1419599456     1.5105879116     0.2190909765
   11      H      -1.2310682472     1.3000829720    -1.2715261295
 ----------------------------------------------------------------
 Nuclear Repulsion Energy =   156.1569864703 hartrees
 There are       31 alpha and       29 beta electrons

                       Distance Matrix (Angstroms)
             Br(  1)   C (  2)   C (  3)   C (  4)   H (  5)   H (  6)
   C (  2)  5.200000
   C (  3)  5.918793  1.492220
   C (  4)  5.918920  1.492219  2.597572
   H (  5)  4.648369  1.086760  2.227728  2.227720
   H (  6)  5.546407  2.156857  1.094729  3.512349  2.470587
   H (  7)  6.918026  2.165410  1.104799  3.010895  2.817666  1.766093
   H (  8)  6.230067  2.152809  1.098556  2.821350  3.075848  1.774718
   H (  9)  5.546555  2.156851  3.512333  1.094729  2.470593  4.287893
   H ( 10)  6.918105  2.165409  3.010953  1.104799  2.817608  4.008654
   H ( 11)  6.230296  2.152809  2.821305  1.098555  3.075864  3.781164
             H (  7)   H (  8)   H (  9)   H ( 10)
   H (  8)  1.759536
   H (  9)  4.008631  3.781142
   H ( 10)  3.020160  3.308813  1.766096
   H ( 11)  3.308638  2.599760  1.774717  1.759538
 
 Applying Cartesian multipole field
    Component          Value
    ---------          -----
     (2,0,0)        1.00000E-11
     (0,2,0)        2.00000E-11
     (0,0,2)       -3.00000E-10
 Nucleus-field energy     =     0.0000000152 hartrees
 Requested basis set is 6-31G(d,p)
 There are 41 shells and 115 basis functions
 A cutoff of  1.0D-14 yielded    719 shell pairs
 There are      5258 function pairs
 Smallest overlap matrix eigenvalue = 7.27E-04
 Guess from superposition of atomic densities
 Warning:  Energy on first SCF cycle will be non-variational
 SAD guess density has 59.972873 electrons

 -----------------------------------------------------------------------
  General SCF calculation program by
  Eric Jon Sundstrom, Paul Horn, Yuezhi Mao, Dmitri Zuev, Alec White,
  David Stuck, Shaama M.S., Shane Yost, Joonho Lee, David Small,
  Daniel Levine, Susi Lehtola, Hugh Burton, Evgeny Epifanovsky
 -----------------------------------------------------------------------
 Exchange:     0.2000 Hartree-Fock + 0.0800 Slater + 0.7200 B88
 Correlation:  0.1900 VWN1RPA + 0.8100 LYP
 Using SG-1 standard quadrature grid
 using 12 threads for integral computing
 -------------------------------------------------------
 OpenMP Integral computing Module                
 Release: version 1.0, May 2013, Q-Chem Inc. Pittsburgh 
 -------------------------------------------------------
 -------------------------------------------------------
 OpenMP BLAS3 based DFT computing Module                
 Release: version 1.0, May 2013, Q-Chem Inc. Pittsburgh 
 -------------------------------------------------------
 A unrestricted SCF calculation will be
 performed using DIIS
 SCF converges when DIIS error is below 1.0e-06
 Alpha HF Exchange    Energy = -10.71388269291174
 Beta HF Exchange     Energy = -10.71388269291174
 DFT Correlation      Energy =  -3.10438683484002
 DFT Exchange         Energy = -84.97921499609947
 One-Electron (alpha) Energy = -2022.78577532507188
 One-Electron (beta)  Energy = -2022.78577532507188
 Total Coulomb        Energy = 1303.38431349432722
 ---------------------------------------
  Cycle       Energy         DIIS error
 ---------------------------------------
    1   -2695.5416178870      1.64e-01  
 Alpha HF Exchange    Energy = -10.89669863761632
 Beta HF Exchange     Energy = -10.70106076461643
 DFT Correlation      Energy =  -3.13852690221195
 DFT Exchange         Energy = -85.90368792950800
 One-Electron (alpha) Energy = -2045.25189313002443
 One-Electron (beta)  Energy = -2011.16685855212336
 Total Coulomb        Energy = 1318.68830847666663
    2   -2692.2134309539      9.58e-03  
 Alpha HF Exchange    Energy = -10.79770911470480
 Beta HF Exchange     Energy = -10.61268798301406
 DFT Correlation      Energy =  -3.10156396165903
 DFT Exchange         Energy = -85.13549227677331
 One-Electron (alpha) Energy = -2037.53352387837936
 One-Electron (beta)  Energy = -2003.97357130365299
 Total Coulomb        Energy = 1302.78610187095364
    3   -2692.2114601617      4.33e-03  
 Alpha HF Exchange    Energy = -10.87297358930738
 Beta HF Exchange     Energy = -10.67964019322660
 DFT Correlation      Energy =  -3.12938394783350
 DFT Exchange         Energy = -85.71390143871002
 One-Electron (alpha) Energy = -2043.29586880530110
 One-Electron (beta)  Energy = -2009.15532678979002
 Total Coulomb        Energy = 1314.40456300081360
    4   -2692.2855452778      2.60e-03  
 Alpha HF Exchange    Energy = -10.84852057067254
 Beta HF Exchange     Energy = -10.65786384073345
 DFT Correlation      Energy =  -3.11941036652585
 DFT Exchange         Energy = -85.52382846597480
 One-Electron (alpha) Energy = -2041.62148860863090
 One-Electron (beta)  Energy = -2007.58815459892048
 Total Coulomb        Energy = 1310.87452306821569
    5   -2692.3277568977      2.25e-04  
 Alpha HF Exchange    Energy = -10.84693753901023
 Beta HF Exchange     Energy = -10.65633504566726
 DFT Correlation      Energy =  -3.11930748197988
 DFT Exchange         Energy = -85.51218365071776
 One-Electron (alpha) Energy = -2041.43572220145074
 One-Electron (beta)  Energy = -2007.42227486317847
 Total Coulomb        Energy = 1310.50785418722512
    6   -2692.3279201092      4.51e-05  
 Alpha HF Exchange    Energy = -10.84679199802442
 Beta HF Exchange     Energy = -10.65627292334385
 DFT Correlation      Energy =  -3.11913953122639
 DFT Exchange         Energy = -85.51113728889521
 One-Electron (alpha) Energy = -2041.42954097885263
 One-Electron (beta)  Energy = -2007.41619672159800
 Total Coulomb        Energy = 1310.49416109669164
    7   -2692.3279318597      9.06e-06  
 Alpha HF Exchange    Energy = -10.84689584736597
 Beta HF Exchange     Energy = -10.65634618642639
 DFT Correlation      Energy =  -3.11915360122244
 DFT Exchange         Energy = -85.51182094217289
 One-Electron (alpha) Energy = -2041.43883279117722
 One-Electron (beta)  Energy = -2007.42301137202890
 Total Coulomb        Energy = 1310.51114142762140
    8   -2692.3279328272      4.54e-06  
 Alpha HF Exchange    Energy = -10.84688505117718
 Beta HF Exchange     Energy = -10.65635523103386
 DFT Correlation      Energy =  -3.11914766564646
 DFT Exchange         Energy = -85.51180501589731
 One-Electron (alpha) Energy = -2041.43746379347476
 One-Electron (beta)  Energy = -2007.42214583412988
 Total Coulomb        Energy = 1310.50888310311962
    9   -2692.3279330027      2.18e-06  
 Alpha HF Exchange    Energy = -10.84688366424244
 Beta HF Exchange     Energy = -10.65635276773578
 DFT Correlation      Energy =  -3.11914539261268
 DFT Exchange         Energy = -85.51178828218963
 One-Electron (alpha) Energy = -2041.43699292534143
 One-Electron (beta)  Energy = -2007.42205519566915
 Total Coulomb        Energy = 1310.50829869881727
   10   -2692.3279330434      3.39e-07  Convergence criterion met
 ---------------------------------------
 SCF time:   CPU 24.70s  wall 2.00s 
<S^2> =          2.005439381
 Alpha HF Exchange    Energy = -10.84688366424244
 Beta HF Exchange     Energy = -10.65635276773578
 DFT Correlation      Energy =  -3.11914539261268
 DFT Exchange         Energy = -85.51178828218963
 One-Electron (alpha) Energy = -2041.43699292534143
 One-Electron (beta)  Energy = -2007.42205519566915
 Total Coulomb        Energy = 1310.50829869881727
 Nuclear repulsion Energy = 156.15698648555500
 SCF   energy in the final basis set =    -2692.3279330434
 Total energy in the final basis set =    -2692.3279330434
 
 --------------------------------------------------------------
 
                    Orbital Energies (a.u.)
 --------------------------------------------------------------
 
 Alpha MOs
 -- Occupied --
******* -62.557 -56.381 -56.373 -56.373 -10.184 -10.175 -10.175
 -8.744  -6.581  -6.558  -6.558  -2.671  -2.666  -2.666  -2.649
 -2.649  -0.796  -0.775  -0.685  -0.565  -0.446  -0.423  -0.403
 -0.380  -0.371  -0.349  -0.343  -0.322  -0.322  -0.177
 -- Virtual --
  0.107   0.127   0.147   0.166   0.175   0.183   0.187   0.192
  0.259   0.287   0.296   0.312   0.314   0.500   0.514   0.533
  0.545   0.545   0.557   0.567   0.581   0.582   0.589   0.639
  0.723   0.733   0.749   0.812   0.854   0.858   0.882   0.884
  0.928   0.945   0.948   1.247   1.297   1.354   1.359   1.535
  1.677   1.685   1.800   1.818   1.864   1.893   1.979   2.048
  2.052   2.077   2.107   2.120   2.138   2.283   2.292   2.378
  2.386   2.484   2.543   2.590   2.678   2.729   2.767   2.842
  2.869   2.911   2.968   3.155   3.206   3.351   3.426   3.428
  3.455   3.532   4.187   4.490   4.563   4.649   4.657   4.657
  4.682   4.682   6.206  90.123
 
 Beta MOs
 -- Occupied --
******* -62.555 -56.375 -56.372 -56.372 -10.176 -10.176 -10.170
 -8.740  -6.570  -6.557  -6.557  -2.664  -2.660  -2.660  -2.648
 -2.648  -0.758  -0.753  -0.683  -0.544  -0.441  -0.406  -0.397
 -0.374  -0.345  -0.338  -0.308  -0.308
 -- Virtual --
 -0.235  -0.026   0.109   0.132   0.149   0.174   0.185   0.187
  0.192   0.198   0.270   0.302   0.315   0.316   0.319   0.502
  0.517   0.576   0.589   0.590   0.591   0.591   0.593   0.594
  0.595   0.671   0.732   0.745   0.749   0.828   0.860   0.863
  0.887   0.894   0.933   0.949   0.957   1.261   1.306   1.361
  1.382   1.535   1.691   1.695   1.823   1.829   1.891   1.915
  2.005   2.053   2.058   2.082   2.112   2.124   2.146   2.286
  2.311   2.388   2.392   2.505   2.561   2.601   2.683   2.733
  2.773   2.848   2.876   2.918   2.973   3.160   3.211   3.358
  3.428   3.432   3.460   3.538   4.209   4.490   4.575   4.668
  4.671   4.671   4.684   4.685   6.222  90.129
 --------------------------------------------------------------
 
          Ground-State Mulliken Net Atomic Charges

     Atom                 Charge (a.u.)    Spin (a.u.)
  --------------------------------------------------------
      1 Br                   -0.000113       1.000193
      2 C                    -0.070828       1.019320
      3 C                    -0.333409      -0.079960
      4 C                    -0.333411      -0.079960
      5 H                     0.088852      -0.046501
      6 H                     0.108429       0.007123
      7 H                     0.108646       0.063004
      8 H                     0.107373       0.023329
      9 H                     0.108447       0.007127
     10 H                     0.108644       0.063004
     11 H                     0.107370       0.023322
  --------------------------------------------------------
  Sum of atomic charges =     0.000000
  Sum of spin   charges =     2.000000

 -----------------------------------------------------------------
                    Cartesian Multipole Moments
 -----------------------------------------------------------------
    Charge (ESU x 10^10)
                 0.0000
    Dipole Moment (Debye)
         X      -0.1965      Y       0.0002      Z       0.0388
       Tot       0.2003
    Quadrupole Moments (Debye-Ang)
        XX     -39.6303     XY       0.0096     YY     -36.4070
        XZ       0.4160     YZ       0.0008     ZZ     -39.4276
    Octopole Moments (Debye-Ang^2)
       XXX    -200.1378    XXY       0.1035    XYY     -52.8056
       YYY       0.0391    XXZ      -8.3840    XYZ       0.0084
       YYZ      -6.4910    XZZ     -66.1307    YZZ       0.0167
       ZZZ     -26.0867
    Hexadecapole Moments (Debye-Ang^3)
      XXXX   -2595.3766   XXXY       0.9000   XXYY    -410.2715
      XYYY       0.2573   YYYY    -220.9057   XXXZ    -136.8767
      XXYZ       0.0721   XYYZ     -38.6916   YYYZ       0.0320
      XXZZ    -449.3686   XYZZ       0.1058   YYZZ     -53.2792
      XZZZ    -132.0299   YZZZ       0.0371   ZZZZ     -96.0590
 -----------------------------------------------------------------
 Calculating analytic gradient of the SCF energy
 Gradient of SCF Energy
            1           2           3           4           5           6
    1  -0.0000097   0.0001755  -0.0000067  -0.0000070  -0.0001739  -0.0000109
    2   0.0000000  -0.0000001   0.0000015  -0.0000015   0.0000002  -0.0000168
    3   0.0000162   0.0001937  -0.0000332  -0.0000330  -0.0001381   0.0000142
            7           8           9          10          11
    1  -0.0000061   0.0000280  -0.0000109  -0.0000061   0.0000278
    2   0.0000088   0.0000003   0.0000168  -0.0000088  -0.0000004
    3  -0.0000206   0.0000034   0.0000142  -0.0000204   0.0000035
 Max gradient component =       1.937E-04
 RMS gradient           =       6.134E-05
 Gradient time:  CPU 8.74 s  wall 0.77 s
 Geometry Optimization Parameters
   NAtoms,    NIC,     NZ,  NCons,   NDum,   NFix, NCnnct, MaxDiis
       11      62       0       1       0       0       0       0

 Cartesian Hessian Update
 Hessian Updated using BFGS Update


** CONSTRAINED OPTIMIZATION IN DELOCALIZED INTERNAL COORDINATES **
   Searching for a Minimum

   Optimization Cycle:   4

                       Coordinates (Angstroms)
     ATOM                X               Y               Z
      1  Br        4.6038085485   -0.0011103635    0.4828094054
      2  C        -0.5936972436    0.0001789558    0.3217699124
      3  C        -1.1331882098   -1.2985259399   -0.1772636812
      4  C        -1.1326844556    1.2990457315   -0.1773857413
      5  H         0.0146401179    0.0001099749    1.2223106600
      6  H        -0.4981580550   -2.1438066301    0.1067574204
      7  H        -2.1426046571   -1.5095723808    0.2191186838
      8  H        -1.2314423337   -1.2996771162   -1.2714164941
      9  H        -0.4972455188    2.1440858845    0.1064379875
     10  H        -2.1419599456    1.5105879116    0.2190909765
     11  H        -1.2310682472    1.3000829720   -1.2715261295
   Point Group: c1    Number of degrees of freedom:    27


   Energy is  -2692.327933043

              Constraints and their Current Values
                                        Value     Constraint
   Distance(Angs):        1   2             5.200000     5.200000
 Hessian Updated using BFGS Update

 24 Hessian modes will be used to form the next step
  Hessian Eigenvalues:
     0.041934    0.045000    0.045000    0.045048    0.045700    0.092087
     0.092090    0.092952    0.092958    0.156414    0.159982    0.160000
     0.160006    0.160255    0.217505    0.331334    0.331579    0.331579
     0.332101    0.338380    0.338393    0.342719    0.342778    0.368653

 Minimum Search - Taking Simple RFO Step
 Searching for Lamda that Minimizes Along All modes
 Value Taken    Lamda =   0.00000000
 Step Taken.  Stepsize is  0.003729

                             Maximum     Tolerance    Cnvgd?
         Gradient           0.000137      0.000300     YES
         Displacement       0.002797      0.001200      NO
         Energy change     -0.000040      0.000001      NO


 New Cartesian Coordinates Obtained by Inverse Iteration

 Displacement from previous Coordinates is:  0.008267
 ----------------------------------------------------------------
             Standard Nuclear Orientation (Angstroms)
    I     Atom           X                Y                Z
 ----------------------------------------------------------------
    1      Br      4.6040535316    -0.0010984736     0.4848482502
    2      C      -0.5933601072     0.0001763268     0.3208614172
    3      C      -1.1333506838    -1.2985816695    -0.1774261775
    4      C      -1.1328395335     1.2990994701    -0.1775483076
    5      H       0.0159892949     0.0001055567     1.2212120183
    6      H      -0.4977509219    -2.1436866473     0.1057740502
    7      H      -2.1422010611    -1.5098170453     0.2202962923
    8      H      -1.2330741672    -1.2998091741    -1.2714636086
    9      H      -0.4968283418     2.1439603878     0.1054575825
   10      H      -2.1415491769     1.5108345150     0.2202650420
   11      H      -1.2326888330     1.3002157534    -1.2715735589
 ----------------------------------------------------------------
 Nuclear Repulsion Energy =   156.1503321708 hartrees
 There are       31 alpha and       29 beta electrons

                       Distance Matrix (Angstroms)
             Br(  1)   C (  2)   C (  3)   C (  4)   H (  5)   H (  6)
   C (  2)  5.200000
   C (  3)  5.919449  1.492197
   C (  4)  5.919563  1.492197  2.597681
   H (  5)  4.646780  1.087170  2.227950  2.227941
   H (  6)  5.546421  2.156746  1.094711  3.512319  2.470623
   H (  7)  6.917960  2.165433  1.104800  3.011163  2.817709  1.766104
   H (  8)  6.232443  2.152834  1.098574  2.821529  3.076259  1.774715
   H (  9)  5.546549  2.156740  3.512304  1.094711  2.470628  4.287647
   H ( 10)  6.918027  2.165432  3.011219  1.104800  2.817653  4.008828
   H ( 11)  6.232656  2.152834  2.821484  1.098573  3.076274  3.781228
             H (  7)   H (  8)   H (  9)   H ( 10)
   H (  8)  1.759535
   H (  9)  4.008806  3.781206
   H ( 10)  3.020652  3.309124  1.766108
   H ( 11)  3.308953  2.600025  1.774714  1.759537
 
 Applying Cartesian multipole field
    Component          Value
    ---------          -----
     (2,0,0)        1.00000E-11
     (0,2,0)        2.00000E-11
     (0,0,2)       -3.00000E-10
 Nucleus-field energy     =     0.0000000152 hartrees
 Requested basis set is 6-31G(d,p)
 There are 41 shells and 115 basis functions
 A cutoff of  1.0D-14 yielded    719 shell pairs
 There are      5258 function pairs
 Smallest overlap matrix eigenvalue = 7.27E-04
 Guess from superposition of atomic densities
 Warning:  Energy on first SCF cycle will be non-variational
 SAD guess density has 59.972873 electrons

 -----------------------------------------------------------------------
  General SCF calculation program by
  Eric Jon Sundstrom, Paul Horn, Yuezhi Mao, Dmitri Zuev, Alec White,
  David Stuck, Shaama M.S., Shane Yost, Joonho Lee, David Small,
  Daniel Levine, Susi Lehtola, Hugh Burton, Evgeny Epifanovsky
 -----------------------------------------------------------------------
 Exchange:     0.2000 Hartree-Fock + 0.0800 Slater + 0.7200 B88
 Correlation:  0.1900 VWN1RPA + 0.8100 LYP
 Using SG-1 standard quadrature grid
 using 12 threads for integral computing
 -------------------------------------------------------
 OpenMP Integral computing Module                
 Release: version 1.0, May 2013, Q-Chem Inc. Pittsburgh 
 -------------------------------------------------------
 -------------------------------------------------------
 OpenMP BLAS3 based DFT computing Module                
 Release: version 1.0, May 2013, Q-Chem Inc. Pittsburgh 
 -------------------------------------------------------
 A unrestricted SCF calculation will be
 performed using DIIS
 SCF converges when DIIS error is below 1.0e-06
 Alpha HF Exchange    Energy = -10.71386306977113
 Beta HF Exchange     Energy = -10.71386306977113
 DFT Correlation      Energy =  -3.10438241586003
 DFT Exchange         Energy = -84.97917114569421
 One-Electron (alpha) Energy = -2022.77931657064505
 One-Electron (beta)  Energy = -2022.77931657064505
 Total Coulomb        Energy = 1303.37808559716336
 ---------------------------------------
  Cycle       Energy         DIIS error
 ---------------------------------------
    1   -2695.5414950593      1.64e-01  
 Alpha HF Exchange    Energy = -10.89668110604049
 Beta HF Exchange     Energy = -10.70104541277905
 DFT Correlation      Energy =  -3.13852061064896
 DFT Exchange         Energy = -85.90356978550558
 One-Electron (alpha) Energy = -2045.24491421442849
 One-Electron (beta)  Energy = -2011.16032190242345
 Total Coulomb        Energy = 1318.68128621950291
    2   -2692.2134346264      9.58e-03  
 Alpha HF Exchange    Energy = -10.79769633385265
 Beta HF Exchange     Energy = -10.61267314022702
 DFT Correlation      Energy =  -3.10155723573869
 DFT Exchange         Energy = -85.13539421365505
 One-Electron (alpha) Energy = -2037.52678231491063
 One-Electron (beta)  Energy = -2003.96717649438438
 Total Coulomb        Energy = 1302.77949452922076
    3   -2692.2114530176      4.33e-03  
 Alpha HF Exchange    Energy = -10.87296135293059
 Beta HF Exchange     Energy = -10.67962679474179
 DFT Correlation      Energy =  -3.12937877616057
 DFT Exchange         Energy = -85.71381284831307
 One-Electron (alpha) Energy = -2043.28909163799244
 One-Electron (beta)  Energy = -2009.14891281740302
 Total Coulomb        Energy = 1314.39791311067052
    4   -2692.2855389309      2.60e-03  
 Alpha HF Exchange    Energy = -10.84850685914276
 Beta HF Exchange     Energy = -10.65784952221570
 DFT Correlation      Energy =  -3.11940402566920
 DFT Exchange         Energy = -85.52372929323923
 One-Electron (alpha) Energy = -2041.61469031046272
 One-Electron (beta)  Energy = -2007.58171247325845
 Total Coulomb        Energy = 1310.86780301662020
    5   -2692.3277572814      2.25e-04  
 Alpha HF Exchange    Energy = -10.84692445156696
 Beta HF Exchange     Energy = -10.65632050942648
 DFT Correlation      Energy =  -3.11930136138770
 DFT Exchange         Energy = -85.51208643692438
 One-Electron (alpha) Energy = -2041.42895140885753
 One-Electron (beta)  Energy = -2007.41584693896561
 Total Coulomb        Energy = 1310.50117829209421
    6   -2692.3279206291      4.51e-05  
 Alpha HF Exchange    Energy = -10.84677859737876
 Beta HF Exchange     Energy = -10.65625827299561
 DFT Correlation      Energy =  -3.11913331224691
 DFT Exchange         Energy = -85.51103833058217
 One-Electron (alpha) Energy = -2041.42274028320048
 One-Electron (beta)  Energy = -2007.40973988661835
 Total Coulomb        Energy = 1310.48742410874729
    7   -2692.3279323883      9.07e-06  
 Alpha HF Exchange    Energy = -10.84688258779745
 Beta HF Exchange     Energy = -10.65633149694642
 DFT Correlation      Energy =  -3.11914739379037
 DFT Exchange         Energy = -85.51172239470193
 One-Electron (alpha) Energy = -2041.43204434778249
 One-Electron (beta)  Energy = -2007.41656232371383
 Total Coulomb        Energy = 1310.50442500211261
    8   -2692.3279333567      4.56e-06  
 Alpha HF Exchange    Energy = -10.84687182149588
 Beta HF Exchange     Energy = -10.65634058385758
 DFT Correlation      Energy =  -3.11914147228869
 DFT Exchange         Energy = -85.51170675485525
 One-Electron (alpha) Energy = -2041.43067913822824
 One-Electron (beta)  Energy = -2007.41569732495009
 Total Coulomb        Energy = 1310.50217137622712
    9   -2692.3279335335      2.18e-06  
 Alpha HF Exchange    Energy = -10.84687040787047
 Beta HF Exchange     Energy = -10.65633811220642
 DFT Correlation      Energy =  -3.11913917930280
 DFT Exchange         Energy = -85.51168986247440
 One-Electron (alpha) Energy = -2041.43020431995842
 One-Electron (beta)  Energy = -2007.41560370489151
 Total Coulomb        Energy = 1310.50157982644714
   10   -2692.3279335743      3.39e-07  Convergence criterion met
 ---------------------------------------
 SCF time:   CPU 24.54s  wall 3.00s 
<S^2> =          2.005440408
 Alpha HF Exchange    Energy = -10.84687040787047
 Beta HF Exchange     Energy = -10.65633811220642
 DFT Correlation      Energy =  -3.11913917930280
 DFT Exchange         Energy = -85.51168986247440
 One-Electron (alpha) Energy = -2041.43020431995842
 One-Electron (beta)  Energy = -2007.41560370489151
 Total Coulomb        Energy = 1310.50157982644714
 Nuclear repulsion Energy = 156.15033218595735
 SCF   energy in the final basis set =    -2692.3279335743
 Total energy in the final basis set =    -2692.3279335743
 
 --------------------------------------------------------------
 
                    Orbital Energies (a.u.)
 --------------------------------------------------------------
 
 Alpha MOs
 -- Occupied --
******* -62.557 -56.381 -56.373 -56.373 -10.184 -10.175 -10.175
 -8.744  -6.581  -6.558  -6.558  -2.671  -2.666  -2.666  -2.649
 -2.649  -0.796  -0.775  -0.685  -0.565  -0.446  -0.423  -0.403
 -0.380  -0.371  -0.349  -0.343  -0.322  -0.322  -0.177
 -- Virtual --
  0.107   0.127   0.147   0.166   0.175   0.183   0.187   0.192
  0.259   0.287   0.296   0.312   0.314   0.500   0.514   0.533
  0.545   0.545   0.557   0.567   0.581   0.582   0.589   0.639
  0.723   0.733   0.748   0.812   0.854   0.858   0.882   0.884
  0.928   0.945   0.948   1.247   1.297   1.354   1.359   1.535
  1.677   1.685   1.800   1.818   1.864   1.893   1.979   2.048
  2.052   2.077   2.107   2.120   2.138   2.283   2.292   2.378
  2.386   2.484   2.544   2.590   2.678   2.729   2.767   2.842
  2.869   2.911   2.968   3.155   3.206   3.351   3.426   3.428
  3.455   3.532   4.187   4.490   4.563   4.649   4.657   4.657
  4.682   4.682   6.206  90.123
 
 Beta MOs
 -- Occupied --
******* -62.555 -56.375 -56.372 -56.372 -10.176 -10.176 -10.170
 -8.740  -6.570  -6.557  -6.557  -2.664  -2.660  -2.660  -2.648
 -2.648  -0.758  -0.753  -0.683  -0.544  -0.441  -0.406  -0.397
 -0.374  -0.346  -0.338  -0.308  -0.308
 -- Virtual --
 -0.235  -0.026   0.109   0.132   0.149   0.174   0.185   0.187
  0.192   0.198   0.270   0.302   0.315   0.316   0.319   0.502
  0.517   0.576   0.589   0.590   0.591   0.591   0.593   0.594
  0.595   0.671   0.732   0.745   0.749   0.828   0.860   0.863
  0.887   0.894   0.933   0.949   0.956   1.261   1.306   1.361
  1.382   1.535   1.691   1.695   1.823   1.829   1.891   1.915
  2.005   2.053   2.058   2.082   2.112   2.124   2.145   2.286
  2.310   2.388   2.392   2.505   2.561   2.601   2.683   2.733
  2.773   2.848   2.876   2.918   2.972   3.160   3.211   3.357
  3.428   3.432   3.460   3.537   4.209   4.490   4.575   4.668
  4.671   4.671   4.684   4.685   6.222  90.129
 --------------------------------------------------------------
 
          Ground-State Mulliken Net Atomic Charges

     Atom                 Charge (a.u.)    Spin (a.u.)
  --------------------------------------------------------
      1 Br                   -0.000112       1.000192
      2 C                    -0.070825       1.019310
      3 C                    -0.333400      -0.079958
      4 C                    -0.333402      -0.079958
      5 H                     0.088808      -0.046509
      6 H                     0.108446       0.007134
      7 H                     0.108647       0.063020
      8 H                     0.107367       0.023309
      9 H                     0.108464       0.007138
     10 H                     0.108645       0.063020
     11 H                     0.107364       0.023302
  --------------------------------------------------------
  Sum of atomic charges =    -0.000000
  Sum of spin   charges =     2.000000

 -----------------------------------------------------------------
                    Cartesian Multipole Moments
 -----------------------------------------------------------------
    Charge (ESU x 10^10)
                -0.0000
    Dipole Moment (Debye)
         X      -0.1967      Y       0.0002      Z       0.0389
       Tot       0.2006
    Quadrupole Moments (Debye-Ang)
        XX     -39.6291     XY       0.0095     YY     -36.4069
        XZ       0.4164     YZ       0.0008     ZZ     -39.4290
    Octopole Moments (Debye-Ang^2)
       XXX    -200.1501    XXY       0.1024    XYY     -52.8091
       YYY       0.0385    XXZ      -8.4152    XYZ       0.0085
       YYZ      -6.5189    XZZ     -66.1385    YZZ       0.0165
       ZZZ     -26.1840
    Hexadecapole Moments (Debye-Ang^3)
      XXXX   -2595.6620   XXXY       0.8900   XXYY    -410.3124
      XYYY       0.2542   YYYY    -220.9221   XXXZ    -137.4407
      XXYZ       0.0723   XYYZ     -38.8521   YYYZ       0.0319
      XXZZ    -449.4397   XYZZ       0.1047   YYZZ     -53.3106
      XZZZ    -132.5864   YZZZ       0.0370   ZZZZ     -96.2673
 -----------------------------------------------------------------
 Calculating analytic gradient of the SCF energy
 Gradient of SCF Energy
            1           2           3           4           5           6
    1  -0.0000131   0.0000206   0.0000013   0.0000009  -0.0000194  -0.0000111
    2   0.0000000  -0.0000001   0.0000006  -0.0000006   0.0000002  -0.0000026
    3   0.0000181  -0.0000432  -0.0000102  -0.0000100   0.0000843   0.0000129
            7           8           9          10          11
    1  -0.0000081   0.0000241  -0.0000111  -0.0000081   0.0000239
    2   0.0000067  -0.0000036   0.0000026  -0.0000067   0.0000035
    3  -0.0000252  -0.0000073   0.0000129  -0.0000251  -0.0000072
 Max gradient component =       8.428E-05
 RMS gradient           =       2.047E-05
 Gradient time:  CPU 8.64 s  wall 0.75 s
 Geometry Optimization Parameters
   NAtoms,    NIC,     NZ,  NCons,   NDum,   NFix, NCnnct, MaxDiis
       11      62       0       1       0       0       0       0

 Cartesian Hessian Update
 Hessian Updated using BFGS Update


** CONSTRAINED OPTIMIZATION IN DELOCALIZED INTERNAL COORDINATES **
   Searching for a Minimum

   Optimization Cycle:   5

                       Coordinates (Angstroms)
     ATOM                X               Y               Z
      1  Br        4.6040535316   -0.0010984736    0.4848482502
      2  C        -0.5933601072    0.0001763268    0.3208614172
      3  C        -1.1333506838   -1.2985816695   -0.1774261775
      4  C        -1.1328395335    1.2990994701   -0.1775483076
      5  H         0.0159892949    0.0001055567    1.2212120183
      6  H        -0.4977509219   -2.1436866473    0.1057740502
      7  H        -2.1422010611   -1.5098170453    0.2202962923
      8  H        -1.2330741672   -1.2998091741   -1.2714636086
      9  H        -0.4968283418    2.1439603878    0.1054575825
     10  H        -2.1415491769    1.5108345150    0.2202650420
     11  H        -1.2326888330    1.3002157534   -1.2715735589
   Point Group: c1    Number of degrees of freedom:    27


   Energy is  -2692.327933574

              Constraints and their Current Values
                                        Value     Constraint
   Distance(Angs):        1   2             5.200000     5.200000
 Hessian Updated using BFGS Update

 22 Hessian modes will be used to form the next step
  Hessian Eigenvalues:
     0.009520    0.045000    0.045119    0.045694    0.092087    0.092123
     0.092949    0.092952    0.156414    0.159968    0.160063    0.160394
     0.217546    0.331579    0.331579    0.332101    0.332553    0.338393
     0.338500    0.342778    0.342972    0.602169

 Minimum Search - Taking Simple RFO Step
 Searching for Lamda that Minimizes Along All modes
 Value Taken    Lamda =  -0.00000159
 Step Taken.  Stepsize is  0.012847

                             Maximum     Tolerance    Cnvgd?
         Gradient           0.000145      0.000300     YES
         Displacement       0.010388      0.001200      NO
         Energy change     -0.000001      0.000001     YES


                       Distance Matrix (Angstroms)
             Br(  1)   C (  2)   C (  3)   C (  4)   H (  5)   H (  6)
   C (  2)  5.200000
   C (  3)  5.919449  1.492197
   C (  4)  5.919563  1.492197  2.597681
   H (  5)  4.646780  1.087170  2.227950  2.227941
   H (  6)  5.546421  2.156746  1.094711  3.512319  2.470623
   H (  7)  6.917960  2.165433  1.104800  3.011163  2.817709  1.766104
   H (  8)  6.232443  2.152834  1.098574  2.821529  3.076259  1.774715
   H (  9)  5.546549  2.156740  3.512304  1.094711  2.470628  4.287647
   H ( 10)  6.918027  2.165432  3.011219  1.104800  2.817653  4.008828
   H ( 11)  6.232656  2.152834  2.821484  1.098573  3.076274  3.781228
             H (  7)   H (  8)   H (  9)   H ( 10)
   H (  8)  1.759535
   H (  9)  4.008806  3.781206
   H ( 10)  3.020652  3.309124  1.766108
   H ( 11)  3.308953  2.600025  1.774714  1.759537
 
 Final energy is   -2692.32793357430     


 ******************************
 **  OPTIMIZATION CONVERGED  **
 ******************************

                       Coordinates (Angstroms)
     ATOM                X               Y               Z
      1  Br        4.6040535316   -0.0010984736    0.4848482502
      2  C        -0.5933601072    0.0001763268    0.3208614172
      3  C        -1.1333506838   -1.2985816695   -0.1774261775
      4  C        -1.1328395335    1.2990994701   -0.1775483076
      5  H         0.0159892949    0.0001055567    1.2212120183
      6  H        -0.4977509219   -2.1436866473    0.1057740502
      7  H        -2.1422010611   -1.5098170453    0.2202962923
      8  H        -1.2330741672   -1.2998091741   -1.2714636086
      9  H        -0.4968283418    2.1439603878    0.1054575825
     10  H        -2.1415491769    1.5108345150    0.2202650420
     11  H        -1.2326888330    1.3002157534   -1.2715735589

Z-matrix Print:
$molecule
0 3
Br
H  1 4.646780
C  2 1.087170 1 114.971840
C  3 1.492197 2 118.640188 1 -97.359381 0
H  4 1.094711 3 112.049659 2 27.791819 0
H  4 1.098573 3 111.492063 2 149.011952 0
H  4 1.104800 3 112.126121 2 -92.327944 0
C  3 1.492197 2 118.640892 1 97.351842 0
H  8 1.094711 3 112.050123 2 -27.783984 0
H  8 1.098574 3 111.492034 2 -149.004462 0
H  8 1.104800 3 112.126171 2 92.335727 0
$end

PES scan, value:    5.2000 energy: -2692.3279335743
------- Summary of potential scan: ------ 
    5.2000     -2692.3279335743
----------------------------------------- 
Archival summary:
1\1\hpc0242\JobtypUnspecified\ProcedureUnspecified\6-31G**\r137(3)\knomura\WedMar1315:09:122019WedMar1315:09:122019\0\\#,JobtypUnspecified,ProcedureUnspecified,6-31G**,\\0,3\Br\H,1,4.64678\C,2,1.08717,1,114.972\C,3,1.4922,2,118.64,1,-97.3594,0\H,4,1.09471,3,112.05,2,27.7918,0\H,4,1.09857,3,111.492,2,149.012,0\H,4,1.1048,3,112.126,2,-92.3279,0\C,3,1.4922,2,118.641,1,97.3518,0\H,8,1.09471,3,112.05,2,-27.784,0\H,8,1.09857,3,111.492,2,-149.004,0\H,8,1.1048,3,112.126,2,92.3357,0\\\@

 Total job time:  16.55s(wall), 188.78s(cpu) 
 Wed Mar 13 15:09:12 2019

        *************************************************************
        *                                                           *
        *  Thank you very much for using Q-Chem.  Have a nice day.  *
        *                                                           *
        *************************************************************


