
Running Job 1 of 1 halogens/Bromine/01/Br_2.xyz.data/inputs/bond_triplet_5.6.in
qchem halogens/Bromine/01/Br_2.xyz.data/inputs/bond_triplet_5.6.in_22118.0 /staging/scratch/2868759/qchem22118/ 1
/usr/usc/qchem/5.1.1/exe/qcprog.exe_s halogens/Bromine/01/Br_2.xyz.data/inputs/bond_triplet_5.6.in_22118.0 /staging/scratch/2868759/qchem22118/
Check license passed

                  Welcome to Q-Chem
     A Quantum Leap Into The Future Of Chemistry


 Q-Chem 5.1, Q-Chem, Inc., Pleasanton, CA (2018)

 Yihan Shao,  Zhengting Gan,  E. Epifanovsky,  A. T. B. Gilbert,  M. Wormit,  
 J. Kussmann,  A. W. Lange,  A. Behn,  Jia Deng,  Xintian Feng,  D. Ghosh,  
 M. Goldey,  P. R. Horn,  L. D. Jacobson,  I. Kaliman,  T. Kus,  A. Landau,  
 Jie Liu,  E. I. Proynov,  R. M. Richard,  R. P. Steele,  E. J. Sundstrom,  
 H. L. Woodcock III,  P. M. Zimmerman,  D. Zuev,  B. Albrecht,  E. Alguire,  
 S. A. Baeppler,  D. Barton,  Z. Benda,  Y. A. Bernard,  E. J. Berquist,  
 K. B. Bravaya,  H. Burton,  D. Casanova,  Chun-Min Chang,  Yunqing Chen,  
 A. Chien,  K. D. Closser,  M. P. Coons,  S. Coriani,  S. Dasgupta,  
 A. L. Dempwolff,  M. Diedenhofen,  Hainam Do,  R. G. Edgar,  Po-Tung Fang,  
 S. Faraji,  S. Fatehi,  Qingguo Feng,  K. D. Fenk,  J. Fosso-Tande,  
 Qinghui Ge,  A. Ghysels,  G. Gidofalvi,  J. Gomes,  J. Gonthier,  A. Gunina,  
 D. Hait,  M. W. D. Hanson-Heine,  P. H. P. Harbach,  A. W. Hauser,  
 J. E. Herr,  E. G. Hohenstein,  Z. C. Holden,  Kerwin Hui,  B. C. Huynh,  
 T.-C. Jagau,  Hyunjun Ji,  B. Kaduk,  K. Khistyaev,  Jaehoon Kim,  
 P. Klunzinger,  K. Koh,  D. Kosenkov,  L. Koulias,  T. Kowalczyk,  
 C. M. Krauter,  A. Kunitsa,  Ka Un Lao,  A. Laurent,  K. V. Lawler,  
 Joonho Lee,  D. Lefrancois,  S. Lehtola,  D. S. Levine,  Yi-Pei Li,  
 You-Sheng Lin,  Fenglai Liu,  E. Livshits,  A. Luenser,  P. Manohar,  
 E. Mansoor,  S. F. Manzer,  Shan-Ping Mao,  Yuezhi Mao,  N. Mardirossian,  
 A. V. Marenich,  T. Markovich,  L. A. Martinez-Martinez,  S. A. Maurer,  
 N. J. Mayhall,  S. C. McKenzie,  J.-M. Mewes,  A. F. Morrison,  
 J. W. Mullinax,  K. Nanda,  T. S. Nguyen-Beck,  R. Olivares-Amaya,  
 J. A. Parkhill,  T. M. Perrine,  F. Plasser,  P. Pokhilko,  S. Prager,  
 A. Prociuk,  E. Ramos,  D. R. Rehn,  F. Rob,  M. Schneider,  N. Sergueev,  
 S. M. Sharada,  S. Sharma,  D. W. Small,  T. Stauch,  T. Stein,  
 Yu-Chuan Su,  A. J. W. Thom,  A. Tkatchenko,  T. Tsuchimochi,  N. M. Tubman,  
 L. Vogt,  M. L. Vidal,  O. Vydrov,  M. A. Watson,  J. Wenzel,  
 M. de Wergifosse,  T. A. Wesolowski,  A. White,  J. Witte,  A. Yamada,  
 Jun Yang,  K. Yao,  S. Yeganeh,  S. R. Yost,  Zhi-Qiang You,  A. Zech,  
 Igor Ying Zhang,  Xing Zhang,  Yan Zhao,  Ying Zhu,  B. R. Brooks,  
 G. K. L. Chan,  C. J. Cramer,  M. S. Gordon,  W. J. Hehre,  A. Klamt,  
 M. W. Schmidt,  C. D. Sherrill,  D. G. Truhlar,  A. Aspuru-Guzik,  R. Baer,  
 A. T. Bell,  N. A. Besley,  Jeng-Da Chai,  A. E. DePrince, III,  
 R. A. DiStasio Jr.,  A. Dreuw,  B. D. Dunietz,  T. R. Furlani,  
 Chao-Ping Hsu,  Yousung Jung,  Jing Kong,  D. S. Lambrecht,  WanZhen Liang,  
 C. Ochsenfeld,  V. A. Rassolov,  L. V. Slipchenko,  J. E. Subotnik,  
 T. Van Voorhis,  J. M. Herbert,  A. I. Krylov,  P. M. W. Gill,  M. Head-Gordon

 Contributors to earlier versions of Q-Chem not listed above: 
 R. D. Adamson,  B. Austin,  J. Baker,  G. J. O. Beran,  K. Brandhorst,  
 S. T. Brown,  E. F. C. Byrd,  A. K. Chakraborty,  C.-L. Cheng,  
 Siu Hung Chien,  D. M. Chipman,  D. L. Crittenden,  H. Dachsel,  
 R. J. Doerksen,  A. D. Dutoi,  L. Fusti-Molnar,  W. A. Goddard III,  
 A. Golubeva-Zadorozhnaya,  S. R. Gwaltney,  G. Hawkins,  A. Heyden,  
 S. Hirata,  G. Kedziora,  F. J. Keil,  C. Kelley,  Jihan Kim,  R. A. King,  
 R. Z. Khaliullin,  P. P. Korambath,  W. Kurlancheek,  A. M. Lee,  M. S. Lee,  
 S. V. Levchenko,  Ching Yeh Lin,  D. Liotard,  R. C. Lochan,  I. Lotan,  
 P. E. Maslen,  N. Nair,  D. P. O'Neill,  D. Neuhauser,  E. Neuscamman,  
 C. M. Oana,  R. Olson,  B. Peters,  R. Peverati,  P. A. Pieniazek,  
 Y. M. Rhee,  J. Ritchie,  M. A. Rohrdanz,  E. Rosta,  N. J. Russ,  
 H. F. Schaefer III,  N. E. Schultz,  N. Shenvi,  A. C. Simmonett,  A. Sodt,  
 D. Stuck,  K. S. Thanthiriwatte,  V. Vanovschi,  Tao Wang,  A. Warshel,  
 C. F. Williams,  Q. Wu,  X. Xu,  W. Zhang

 Please cite Q-Chem as follows:
 Y. Shao et al., Mol. Phys. 113, 184-215 (2015)
 DOI: 10.1080/00268976.2014.952696

 Q-Chem 5.1.1 for Intel X86 EM64T Linux

 Parts of Q-Chem use Armadillo 8.300.2 (Tropical Shenanigans).
 http://arma.sourceforge.net/

 Q-Chem begins on Wed Mar 13 15:07:47 2019  

Host: 
0

     Scratch files written to /staging/scratch/2868759/qchem22118//
 Aug318 |scratch|qcdevops|jenkins|workspace|build_RNUM 6013   
Processing $rem in /usr/usc/qchem/5.1.1/config/preferences.
 MEM_TOTAL  2000 
Input Ideriv = 2
Curr. Ideriv = -1
Max.  Ideriv = 2

Checking the input file for inconsistencies... 	...done.

--------------------------------------------------------------
User input:
--------------------------------------------------------------

$comment
potential surface scanner
$end

$rem
JOBTYPE  PES_SCAN
UNRESTRICTED TRUE
SYM_IGNORE  TRUE
GEOM_OPT_MAX_CYCLES 400
SCF_MAX_CYCLES 400
METHOD   B3LYP
BASIS   6-31G**
PDB_PRINT 2
SCF_CONVERGENCE 6
THRESH 14
SCF_PRINT 1
$end
$molecule
0 3
Br 5.083471 -0.001555 0.863462
C -0.575959 0.000245 0.184603
C -1.201735 -1.299087 -0.197248
C -1.201444 1.299686 -0.197365
H 0.208933 0.000213 0.936532
H -0.520661 -2.142646 -0.046254
H -2.111800 -1.513750 0.391630
H -1.516540 -1.300667 -1.249799
H -0.520113 2.143079 -0.046595
H -2.111366 1.514688 0.391608
H -1.516386 1.301192 -1.249874
$end
$scan
stre 1 2 5.600000 5.601000 0.100000
$end
--------------------------------------------------------------
 ----------------------------------------------------------------
             Standard Nuclear Orientation (Angstroms)
    I     Atom           X                Y                Z
 ----------------------------------------------------------------
    1      Br      5.0834710000    -0.0015550000     0.8634620000
    2      C      -0.5759590000     0.0002450000     0.1846030000
    3      C      -1.2017350000    -1.2990870000    -0.1972480000
    4      C      -1.2014440000     1.2996860000    -0.1973650000
    5      H       0.2089330000     0.0002130000     0.9365320000
    6      H      -0.5206610000    -2.1426460000    -0.0462540000
    7      H      -2.1118000000    -1.5137500000     0.3916300000
    8      H      -1.5165400000    -1.3006670000    -1.2497990000
    9      H      -0.5201130000     2.1430790000    -0.0465950000
   10      H      -2.1113660000     1.5146880000     0.3916080000
   11      H      -1.5163860000     1.3011920000    -1.2498740000
 ----------------------------------------------------------------
 Nuclear Repulsion Energy =   149.1152569369 hartrees
 There are       31 alpha and       29 beta electrons
 Requested basis set is 6-31G(d,p)
 There are 41 shells and 115 basis functions

 Total QAlloc Memory Limit   2000 MB
 Mega-Array Size       188 MB
 MEM_STATIC part       192 MB
A total of 1 constraints
  
            1
    1   1.0100000
    2   1.0100000
    3   2.0100000
    4   5.6000000
    5   5.6010000
    6   0.1000000
    7   0.0000000
    8   0.0000000
    9   0.0000000
   10   0.0000000

                       Distance Matrix (Angstroms)
             Br(  1)   C (  2)   C (  3)   C (  4)   H (  5)   H (  6)
   C (  2)  5.700000
   C (  3)  6.504807  1.491868
   C (  4)  6.505285  1.491871  2.598773
   H (  5)  4.875086  1.086946  2.227919  2.227895
   H (  6)  6.067796  2.156000  1.094647  3.512257  2.467797
   H (  7)  7.367583  2.166529  1.105023  3.015143  2.823970  1.766062
   H (  8)  7.050795  2.152806  1.098621  2.822895  3.074018  1.774605
   H (  9)  6.068592  2.155994  3.512237  1.094648  2.467777  4.285725
   H ( 10)  7.367993  2.166533  3.015213  1.105022  2.823892  4.012251
   H ( 11)  7.051344  2.152810  2.822849  1.098620  3.074027  3.781559
             H (  7)   H (  8)   H (  9)   H ( 10)
   H (  8)  1.758985
   H (  9)  4.012220  3.781528
   H ( 10)  3.028438  3.312742  1.766064
   H ( 11)  3.312545  2.601859  1.774602  1.758990
 
 A cutoff of  1.0D-14 yielded    709 shell pairs
 There are      5102 function pairs
 
 -------------------------------------------------------
 OpenMP Integral Computing Module                       
 Release: version 1.0, May 2013, Q-Chem Inc. Pittsburgh 
 -------------------------------------------------------
 Integral Job Info:
 Integral job number is                      11
 Integral operator is                         1
 short-range coefficients                     0
 long-range coefficients              100000000
 Omega coefficients                           0
 if combine SR and LR in K                    0
 Integral screening is                        0
 Integral computing path is                   2
 max size of driver memory is            800000
 size of driver memory is                593474
 size of scratch memory is             15267112
 max col of scratch BK array               1296
 max len of scratch array in speh3          155
 max len of scratch index in speh4           18
 max int batch size is                      520
 min int batch size is                       52
 fixed nKL is                                52
 max L of basis functions is                  2
 order of int derivative is                   0
 number of shells is                         41
 number of basis is                         115
 number of cartesian basis is               115
 number of contracted shell pairs           709
 number of primitive shell pairs           2701
 maxK2 (contraction) of shell pair           36
 max number of K2 of shell pair               1
 max number of CS2 of shell pair             59
 max number of PS2 of shell pair            204
 mem total for path MDJ                  514092
 -------------------------------------------------------
 Smallest overlap matrix eigenvalue = 7.27E-04

 Scale SEOQF with 1.000000e-01/1.000000e-01/1.000000e+00

 Standard Electronic Orientation quadrupole field applied
 Nucleus-field energy     =     0.0000000029 hartrees
 Guess from superposition of atomic densities
 Warning:  Energy on first SCF cycle will be non-variational
 SAD guess density has 59.972873 electrons

 -----------------------------------------------------------------------
  General SCF calculation program by
  Eric Jon Sundstrom, Paul Horn, Yuezhi Mao, Dmitri Zuev, Alec White,
  David Stuck, Shaama M.S., Shane Yost, Joonho Lee, David Small,
  Daniel Levine, Susi Lehtola, Hugh Burton, Evgeny Epifanovsky
 -----------------------------------------------------------------------
 Exchange:     0.2000 Hartree-Fock + 0.0800 Slater + 0.7200 B88
 Correlation:  0.1900 VWN1RPA + 0.8100 LYP
 Using SG-1 standard quadrature grid
 using 12 threads for integral computing
 -------------------------------------------------------
 OpenMP Integral computing Module                
 Release: version 1.0, May 2013, Q-Chem Inc. Pittsburgh 
 -------------------------------------------------------
 -------------------------------------------------------
 OpenMP BLAS3 based DFT computing Module                
 Release: version 1.0, May 2013, Q-Chem Inc. Pittsburgh 
 -------------------------------------------------------
 A unrestricted SCF calculation will be
 performed using DIIS
 SCF converges when DIIS error is below 1.0e-06
 Alpha HF Exchange    Energy = -10.71389991248067
 Beta HF Exchange     Energy = -10.71389991248067
 DFT Correlation      Energy =  -3.10435947502036
 DFT Exchange         Energy = -84.97945004451324
 One-Electron (alpha) Energy = -2015.74675092494567
 One-Electron (beta)  Energy = -2015.74675092494567
 Total Coulomb        Energy = 1296.35998238674733
 ---------------------------------------
  Cycle       Energy         DIIS error
 ---------------------------------------
    1   -2695.5298718679      1.64e-01  
 Alpha HF Exchange    Energy = -10.89667237017993
 Beta HF Exchange     Energy = -10.70105323059638
 DFT Correlation      Energy =  -3.13850298673583
 DFT Exchange         Energy = -85.90368221784220
 One-Electron (alpha) Energy = -2037.91441487023712
 One-Electron (beta)  Energy = -2004.35654105874255
 Total Coulomb        Energy = 1311.58182302039836
    2   -2692.2137867742      9.58e-03  
 Alpha HF Exchange    Energy = -10.79775884454182
 Beta HF Exchange     Energy = -10.61270498356579
 DFT Correlation      Energy =  -3.10155997292381
 DFT Exchange         Energy = -85.13591390444216
 One-Electron (alpha) Energy = -2030.22624458874316
 One-Electron (beta)  Energy = -1997.20375973895807
 Total Coulomb        Energy = 1295.75081221456753
    3   -2692.2118728788      4.33e-03  
 Alpha HF Exchange    Energy = -10.87296893885411
 Beta HF Exchange     Energy = -10.67965791057427
 DFT Correlation      Energy =  -3.12937479334574
 DFT Exchange         Energy = -85.71408217859538
 One-Electron (alpha) Energy = -2035.96254659350552
 One-Electron (beta)  Energy = -2002.35866077462742
 Total Coulomb        Energy = 1307.31633988616454
    4   -2692.2856943636      2.59e-03  
 Alpha HF Exchange    Energy = -10.84851280225925
 Beta HF Exchange     Energy = -10.65786408715774
 DFT Correlation      Energy =  -3.11939867562505
 DFT Exchange         Energy = -85.52393728028267
 One-Electron (alpha) Energy = -2034.29547668369196
 One-Electron (beta)  Energy = -2000.80081856181073
 Total Coulomb        Energy = 1303.80288432109455
    5   -2692.3278668300      2.24e-04  
 Alpha HF Exchange    Energy = -10.84693292452632
 Beta HF Exchange     Energy = -10.65633856378530
 DFT Correlation      Energy =  -3.11929620492539
 DFT Exchange         Energy = -85.51231897052637
 One-Electron (alpha) Energy = -2034.10965312939061
 One-Electron (beta)  Energy = -2000.63501665171589
 Total Coulomb        Energy = 1303.43626997188812
    6   -2692.3280295332      4.50e-05  
 Alpha HF Exchange    Energy = -10.84678636968909
 Beta HF Exchange     Energy = -10.65627562951148
 DFT Correlation      Energy =  -3.11912822077426
 DFT Exchange         Energy = -85.51126576003244
 One-Electron (alpha) Energy = -2034.10347892082586
 One-Electron (beta)  Energy = -2000.62923217219895
 Total Coulomb        Energy = 1303.42286887295950
    7   -2692.3280412603      9.04e-06  
 Alpha HF Exchange    Energy = -10.84689024023296
 Beta HF Exchange     Energy = -10.65634908826942
 DFT Correlation      Energy =  -3.11914235763870
 DFT Exchange         Energy = -85.51195021200685
 One-Electron (alpha) Energy = -2034.11270351710755
 One-Electron (beta)  Energy = -2000.63608297839778
 Total Coulomb        Energy = 1303.43981922879539
    8   -2692.3280422251      4.54e-06  
 Alpha HF Exchange    Energy = -10.84687924366956
 Beta HF Exchange     Energy = -10.65635799812394
 DFT Correlation      Energy =  -3.11913638192633
 DFT Exchange         Energy = -85.51193296016037
 One-Electron (alpha) Energy = -2034.11131892308026
 One-Electron (beta)  Energy = -2000.63525872635796
 Total Coulomb        Energy = 1303.43758489264974
    9   -2692.3280424009      2.18e-06  
 Alpha HF Exchange    Energy = -10.84687782942792
 Beta HF Exchange     Energy = -10.65635555715285
 DFT Correlation      Energy =  -3.11913410581132
 DFT Exchange         Energy = -85.51191621111852
 One-Electron (alpha) Energy = -2034.11083161089550
 One-Electron (beta)  Energy = -2000.63516675635492
 Total Coulomb        Energy = 1303.43698268943103
   10   -2692.3280424416      3.37e-07  Convergence criterion met
 ---------------------------------------
 SCF time:   CPU 24.18s  wall 2.00s 
<S^2> =          2.005454960
 Alpha HF Exchange    Energy = -10.84687782942792
 Beta HF Exchange     Energy = -10.65635555715285
 DFT Correlation      Energy =  -3.11913410581132
 DFT Exchange         Energy = -85.51191621111852
 One-Electron (alpha) Energy = -2034.11083161089550
 One-Electron (beta)  Energy = -2000.63516675635492
 Total Coulomb        Energy = 1303.43698268943103
 Nuclear repulsion Energy = 149.11525693976367
 SCF   energy in the final basis set =    -2692.3280424416
 Total energy in the final basis set =    -2692.3280424416
 
 --------------------------------------------------------------
 
                    Orbital Energies (a.u.)
 --------------------------------------------------------------
 
 Alpha MOs
 -- Occupied --
******* -62.557 -56.382 -56.374 -56.374 -10.184 -10.175 -10.175
 -8.745  -6.581  -6.559  -6.559  -2.672  -2.667  -2.667  -2.650
 -2.650  -0.797  -0.775  -0.686  -0.565  -0.446  -0.423  -0.403
 -0.380  -0.372  -0.350  -0.343  -0.323  -0.323  -0.177
 -- Virtual --
  0.107   0.127   0.146   0.165   0.174   0.182   0.188   0.192
  0.259   0.286   0.296   0.311   0.314   0.500   0.514   0.533
  0.544   0.545   0.556   0.567   0.580   0.581   0.589   0.639
  0.724   0.734   0.748   0.812   0.853   0.858   0.882   0.884
  0.928   0.945   0.948   1.248   1.296   1.354   1.358   1.535
  1.675   1.688   1.797   1.819   1.862   1.893   1.977   2.048
  2.052   2.077   2.107   2.121   2.138   2.283   2.295   2.378
  2.388   2.484   2.542   2.588   2.679   2.730   2.768   2.840
  2.870   2.912   2.969   3.155   3.205   3.350   3.426   3.427
  3.455   3.534   4.187   4.490   4.563   4.648   4.656   4.656
  4.681   4.681   6.205  90.122
 
 Beta MOs
 -- Occupied --
******* -62.556 -56.376 -56.373 -56.373 -10.176 -10.176 -10.170
 -8.741  -6.571  -6.557  -6.557  -2.664  -2.661  -2.661  -2.649
 -2.649  -0.758  -0.754  -0.683  -0.544  -0.441  -0.406  -0.398
 -0.374  -0.346  -0.338  -0.309  -0.309
 -- Virtual --
 -0.236  -0.026   0.109   0.132   0.149   0.173   0.184   0.187
  0.192   0.199   0.270   0.303   0.315   0.315   0.319   0.501
  0.517   0.576   0.588   0.589   0.590   0.590   0.593   0.594
  0.595   0.670   0.733   0.745   0.749   0.828   0.859   0.863
  0.886   0.895   0.933   0.949   0.956   1.262   1.305   1.361
  1.380   1.535   1.692   1.696   1.821   1.829   1.890   1.914
  2.003   2.053   2.058   2.083   2.112   2.124   2.145   2.285
  2.313   2.389   2.391   2.504   2.560   2.599   2.683   2.734
  2.773   2.847   2.877   2.919   2.973   3.159   3.211   3.356
  3.428   3.431   3.459   3.539   4.208   4.489   4.575   4.667
  4.670   4.671   4.684   4.684   6.221  90.128
 --------------------------------------------------------------
 
          Ground-State Mulliken Net Atomic Charges

     Atom                 Charge (a.u.)    Spin (a.u.)
  --------------------------------------------------------
      1 Br                    0.000043       1.000018
      2 C                    -0.071885       1.019508
      3 C                    -0.333367      -0.080330
      4 C                    -0.333369      -0.080329
      5 H                     0.089298      -0.046702
      6 H                     0.108599       0.007074
      7 H                     0.108796       0.062966
      8 H                     0.107239       0.023880
      9 H                     0.108615       0.007078
     10 H                     0.108793       0.062966
     11 H                     0.107236       0.023872
  --------------------------------------------------------
  Sum of atomic charges =     0.000000
  Sum of spin   charges =     2.000000

 -----------------------------------------------------------------
                    Cartesian Multipole Moments
 -----------------------------------------------------------------
    Charge (ESU x 10^10)
                 0.0000
    Dipole Moment (Debye)
         X      -0.1687      Y       0.0001      Z       0.0724
       Tot       0.1835
    Quadrupole Moments (Debye-Ang)
        XX     -39.3629     XY       0.0086     YY     -36.3979
        XZ       0.4582     YZ       0.0176     ZZ     -39.6668
    Octopole Moments (Debye-Ang^2)
       XXX    -224.1398    XXY       0.1107    XYY     -59.5546
       YYY       0.0577    XXZ     -14.4431    XYZ       0.0970
       YYZ     -11.7719    XZZ     -74.8108    YZZ       0.0539
       ZZZ     -44.5703
    Hexadecapole Moments (Debye-Ang^3)
      XXXX   -3136.7494   XXXY       1.1300   XXYY    -487.6654
      XYYY       0.4013   YYYY    -221.0845   XXXZ    -262.4505
      XXYZ       0.5650   XYYZ     -74.7080   YYYZ       0.0908
      XXZZ    -547.2117   XYZZ       0.3167   YYZZ     -60.9615
      XZZZ    -257.7744   YZZZ       0.1418   ZZZZ    -150.9674
 -----------------------------------------------------------------
 Calculating analytic gradient of the SCF energy
 Gradient of SCF Energy
            1           2           3           4           5           6
    1   0.0000178  -0.0000002   0.0000302   0.0000287  -0.0000371  -0.0000030
    2  -0.0000018  -0.0000029  -0.0000128   0.0000129   0.0000036   0.0000078
    3  -0.0000650   0.0000743   0.0000290   0.0000307  -0.0000263   0.0000027
            7           8           9          10          11
    1  -0.0000192   0.0000017  -0.0000022  -0.0000189   0.0000021
    2   0.0000216  -0.0000087  -0.0000076  -0.0000212   0.0000089
    3  -0.0000181  -0.0000056   0.0000025  -0.0000184  -0.0000058
 Max gradient component =       7.432E-05
 RMS gradient           =       2.379E-05
 Gradient time:  CPU 8.05 s  wall 0.68 s
 Geometry Optimization Parameters
   NAtoms,    NIC,     NZ,  NCons,   NDum,   NFix, NCnnct, MaxDiis
       11      62       0       1       0       0       0       0


** CONSTRAINED OPTIMIZATION IN DELOCALIZED INTERNAL COORDINATES **
   Searching for a Minimum

   Optimization Cycle:   1

                       Coordinates (Angstroms)
     ATOM                X               Y               Z
      1  Br        5.0834710000   -0.0015550000    0.8634620000
      2  C        -0.5759590000    0.0002450000    0.1846030000
      3  C        -1.2017350000   -1.2990870000   -0.1972480000
      4  C        -1.2014440000    1.2996860000   -0.1973650000
      5  H         0.2089330000    0.0002130000    0.9365320000
      6  H        -0.5206610000   -2.1426460000   -0.0462540000
      7  H        -2.1118000000   -1.5137500000    0.3916300000
      8  H        -1.5165400000   -1.3006670000   -1.2497990000
      9  H        -0.5201130000    2.1430790000   -0.0465950000
     10  H        -2.1113660000    1.5146880000    0.3916080000
     11  H        -1.5163860000    1.3011920000   -1.2498740000
   Point Group: c1    Number of degrees of freedom:    27


   Energy is  -2692.328042442

              Constraints and their Current Values
                                        Value     Constraint
   Distance(Angs):        1   2             5.700000     5.600000

 Attempting to Generate Delocalized Internal Coordinates

   Using Lagrange Multiplier Algorithm


 28 Hessian modes will be used to form the next step
  Hessian Eigenvalues:
    -0.998905    0.045000    0.045000    0.045000    0.045583    0.059432
     0.092073    0.092073    0.092871    0.092872    0.156818    0.160000
     0.160000    0.160000    0.160000    0.160000    0.160000    0.218124
     0.305174    0.331327    0.331328    0.332454    0.332457    0.338351
     0.338352    0.342809    0.342811    1.001096

 Minimum Search - Taking P-RFO Step
 Searching for Lamda that Maximizes Along the Constraint modes Only
 Value Taken    Lamda =   0.01760423
 Searching for Lamda that Minimizes Along All other modes
 Value Taken    Lamda =  -0.01749121
 Step Taken.  Stepsize is  0.185731

                             Maximum     Tolerance    Cnvgd?
         Gradient            0.188973       0.000300      NO
         Displacement        0.185714       0.001200      NO
         Energy change     *********       0.000001      NO


 New Cartesian Coordinates Obtained by Inverse Iteration

 Displacement from previous Coordinates is:  0.348405
 ----------------------------------------------------------------
             Standard Nuclear Orientation (Angstroms)
    I     Atom           X                Y                Z
 ----------------------------------------------------------------
    1      Br      4.9943251337    -0.0015024037     0.7837480374
    2      C      -0.5786852171     0.0002396419     0.2172938842
    3      C      -1.1870947070    -1.2991182601    -0.1916355680
    4      C      -1.1867849115     1.2997059405    -0.1917591413
    5      H       0.1550005334     0.0002111142     0.9854368013
    6      H      -0.5133039284    -2.1426784516    -0.0108372357
    7      H      -2.1220529880    -1.5138371368     0.3568440923
    8      H      -1.4554274132    -1.3007373885    -1.2569684886
    9      H      -0.5127183315     2.1430950967    -0.0111865378
   10      H      -2.1216011993     1.5147825284     0.3568199840
   11      H      -1.4552569711     1.3012373190    -1.2570558278
 ----------------------------------------------------------------
 Nuclear Repulsion Energy =   150.4772462944 hartrees
 There are       31 alpha and       29 beta electrons

                       Distance Matrix (Angstroms)
             Br(  1)   C (  2)   C (  3)   C (  4)   H (  5)   H (  6)
   C (  2)  5.601725
   C (  3)  6.391020  1.491883
   C (  4)  6.391469  1.491885  2.598824
   H (  5)  4.843526  1.062233  2.207935  2.207910
   H (  6)  5.962380  2.156019  1.094658  3.512310  2.455844
   H (  7)  7.287815  2.166538  1.105025  3.015247  2.805788  1.765985
   H (  8)  6.888530  2.152828  1.098608  2.822967  3.051938  1.774628
   H (  9)  5.963116  2.156011  3.512290  1.094659  2.455821  4.285774
   H ( 10)  7.288196  2.166540  3.015318  1.105024  2.805709  4.012333
   H ( 11)  6.889058  2.152831  2.822921  1.098607  3.051946  3.781652
             H (  7)   H (  8)   H (  9)   H ( 10)
   H (  8)  1.759032
   H (  9)  4.012301  3.781621
   H ( 10)  3.028620  3.312892  1.765987
   H ( 11)  3.312693  2.601975  1.774625  1.759037
 
 Applying Cartesian multipole field
    Component          Value
    ---------          -----
     (2,0,0)        1.00000E-11
     (0,2,0)        2.00000E-11
     (0,0,2)       -3.00000E-10
 Nucleus-field energy     =     0.0000000065 hartrees
 Requested basis set is 6-31G(d,p)
 There are 41 shells and 115 basis functions
 A cutoff of  1.0D-14 yielded    709 shell pairs
 There are      5102 function pairs
 Smallest overlap matrix eigenvalue = 7.27E-04
 Guess from superposition of atomic densities
 Warning:  Energy on first SCF cycle will be non-variational
 SAD guess density has 59.972873 electrons

 -----------------------------------------------------------------------
  General SCF calculation program by
  Eric Jon Sundstrom, Paul Horn, Yuezhi Mao, Dmitri Zuev, Alec White,
  David Stuck, Shaama M.S., Shane Yost, Joonho Lee, David Small,
  Daniel Levine, Susi Lehtola, Hugh Burton, Evgeny Epifanovsky
 -----------------------------------------------------------------------
 Exchange:     0.2000 Hartree-Fock + 0.0800 Slater + 0.7200 B88
 Correlation:  0.1900 VWN1RPA + 0.8100 LYP
 Using SG-1 standard quadrature grid
 using 12 threads for integral computing
 -------------------------------------------------------
 OpenMP Integral computing Module                
 Release: version 1.0, May 2013, Q-Chem Inc. Pittsburgh 
 -------------------------------------------------------
 -------------------------------------------------------
 OpenMP BLAS3 based DFT computing Module                
 Release: version 1.0, May 2013, Q-Chem Inc. Pittsburgh 
 -------------------------------------------------------
 A unrestricted SCF calculation will be
 performed using DIIS
 SCF converges when DIIS error is below 1.0e-06
 Alpha HF Exchange    Energy = -10.71537954692343
 Beta HF Exchange     Energy = -10.71537954692343
 DFT Correlation      Energy =  -3.10467318865129
 DFT Exchange         Energy = -84.98267032218948
 One-Electron (alpha) Energy = -2017.09461225731320
 One-Electron (beta)  Energy = -2017.09461225731320
 Total Coulomb        Energy = 1297.68858481595385
 ---------------------------------------
  Cycle       Energy         DIIS error
 ---------------------------------------
    1   -2695.5414960025      1.64e-01  
 Alpha HF Exchange    Energy = -10.89793355465888
 Beta HF Exchange     Energy = -10.70209126169859
 DFT Correlation      Energy =  -3.13896402539825
 DFT Exchange         Energy = -85.91207607278486
 One-Electron (alpha) Energy = -2039.33674548901740
 One-Electron (beta)  Energy = -2005.67498734767878
 Total Coulomb        Energy = 1312.97259892598686
    2   -2692.2129525244      9.58e-03  
 Alpha HF Exchange    Energy = -10.79864659730233
 Beta HF Exchange     Energy = -10.61367803751709
 DFT Correlation      Energy =  -3.10200521318319
 DFT Exchange         Energy = -85.14254667614665
 One-Electron (alpha) Energy = -2031.62933848406669
 One-Electron (beta)  Energy = -1998.50829864155480
 Total Coulomb        Energy = 1297.10549936270218
    3   -2692.2117679862      4.32e-03  
 Alpha HF Exchange    Energy = -10.87388318198948
 Beta HF Exchange     Energy = -10.68055520414604
 DFT Correlation      Energy =  -3.12974994466919
 DFT Exchange         Energy = -85.72045889559115
 One-Electron (alpha) Energy = -2037.37014430127783
 One-Electron (beta)  Energy = -2003.66680267866377
 Total Coulomb        Energy = 1308.67865790346036
    4   -2692.2856900020      2.58e-03  
 Alpha HF Exchange    Energy = -10.84948963567016
 Beta HF Exchange     Energy = -10.65882714645588
 DFT Correlation      Energy =  -3.11983472052875
 DFT Exchange         Energy = -85.53086523100934
 One-Electron (alpha) Energy = -2035.70347359060361
 One-Electron (beta)  Energy = -2002.10965641722532
 Total Coulomb        Energy = 1305.16746176987976
    5   -2692.3274386707      2.21e-04  
 Alpha HF Exchange    Energy = -10.84788436060220
 Beta HF Exchange     Energy = -10.65731597968461
 DFT Correlation      Energy =  -3.11972175234804
 DFT Exchange         Energy = -85.51918431133871
 One-Electron (alpha) Energy = -2035.51683105069060
 One-Electron (beta)  Energy = -2001.94375216569051
 Total Coulomb        Energy = 1304.79984833499043
    6   -2692.3275949845      4.49e-05  
 Alpha HF Exchange    Energy = -10.84775335503097
 Beta HF Exchange     Energy = -10.65726083959600
 DFT Correlation      Energy =  -3.11955913653846
 DFT Exchange         Energy = -85.51822579059240
 One-Electron (alpha) Energy = -2035.51213360652196
 One-Electron (beta)  Energy = -2001.93944275226227
 Total Coulomb        Energy = 1304.78952288468213
    7   -2692.3276062950      8.49e-06  
 Alpha HF Exchange    Energy = -10.84784910051724
 Beta HF Exchange     Energy = -10.65733601633229
 DFT Correlation      Energy =  -3.11957244729499
 DFT Exchange         Energy = -85.51888419592157
 One-Electron (alpha) Energy = -2035.52070086213143
 One-Electron (beta)  Energy = -2001.94592166085113
 Total Coulomb        Energy = 1304.80541076248369
    8   -2692.3276072197      3.56e-06  
 Alpha HF Exchange    Energy = -10.84783760075843
 Beta HF Exchange     Energy = -10.65734345495577
 DFT Correlation      Energy =  -3.11956606699939
 DFT Exchange         Energy = -85.51885924588348
 One-Electron (alpha) Energy = -2035.51917669224872
 One-Electron (beta)  Energy = -2001.94512594742014
 Total Coulomb        Energy = 1304.80305536529249
    9   -2692.3276073421      2.03e-06  
 Alpha HF Exchange    Energy = -10.84783723424934
 Beta HF Exchange     Energy = -10.65734148146356
 DFT Correlation      Energy =  -3.11956477644539
 DFT Exchange         Energy = -85.51884947557932
 One-Electron (alpha) Energy = -2035.51888689445741
 One-Electron (beta)  Energy = -2001.94517352902471
 Total Coulomb        Energy = 1304.80279971603704
   10   -2692.3276073743      3.69e-07  Convergence criterion met
 ---------------------------------------
 SCF time:   CPU 22.29s  wall 2.00s 
<S^2> =          2.005369039
 Alpha HF Exchange    Energy = -10.84783723424934
 Beta HF Exchange     Energy = -10.65734148146356
 DFT Correlation      Energy =  -3.11956477644539
 DFT Exchange         Energy = -85.51884947557932
 One-Electron (alpha) Energy = -2035.51888689445741
 One-Electron (beta)  Energy = -2001.94517352902471
 Total Coulomb        Energy = 1304.80279971603704
 Nuclear repulsion Energy = 150.47724630089724
 SCF   energy in the final basis set =    -2692.3276073743
 Total energy in the final basis set =    -2692.3276073743
 
 --------------------------------------------------------------
 
                    Orbital Energies (a.u.)
 --------------------------------------------------------------
 
 Alpha MOs
 -- Occupied --
******* -62.557 -56.382 -56.374 -56.374 -10.182 -10.175 -10.175
 -8.745  -6.581  -6.559  -6.559  -2.672  -2.667  -2.667  -2.650
 -2.650  -0.797  -0.776  -0.685  -0.568  -0.447  -0.423  -0.403
 -0.380  -0.372  -0.349  -0.345  -0.323  -0.323  -0.177
 -- Virtual --
  0.108   0.131   0.146   0.165   0.175   0.183   0.190   0.192
  0.261   0.286   0.296   0.311   0.314   0.500   0.514   0.533
  0.544   0.545   0.556   0.568   0.580   0.581   0.589   0.638
  0.724   0.731   0.748   0.813   0.855   0.858   0.882   0.891
  0.928   0.945   0.955   1.247   1.297   1.354   1.358   1.536
  1.676   1.696   1.796   1.817   1.862   1.894   1.990   2.048
  2.052   2.077   2.107   2.121   2.143   2.283   2.300   2.380
  2.389   2.496   2.543   2.600   2.685   2.730   2.771   2.842
  2.873   2.920   2.981   3.156   3.207   3.370   3.426   3.435
  3.456   3.557   4.186   4.490   4.563   4.648   4.656   4.656
  4.681   4.682   6.205  90.122
 
 Beta MOs
 -- Occupied --
******* -62.556 -56.376 -56.373 -56.373 -10.176 -10.176 -10.168
 -8.741  -6.571  -6.557  -6.557  -2.664  -2.661  -2.661  -2.649
 -2.649  -0.758  -0.754  -0.683  -0.547  -0.442  -0.406  -0.397
 -0.374  -0.345  -0.339  -0.309  -0.309
 -- Virtual --
 -0.236  -0.026   0.109   0.135   0.149   0.174   0.184   0.187
  0.192   0.201   0.271   0.303   0.315   0.315   0.319   0.502
  0.517   0.576   0.588   0.589   0.590   0.591   0.593   0.595
  0.595   0.669   0.733   0.743   0.749   0.829   0.860   0.863
  0.886   0.899   0.933   0.949   0.965   1.261   1.306   1.361
  1.380   1.536   1.694   1.702   1.819   1.827   1.890   1.917
  2.012   2.053   2.058   2.083   2.112   2.124   2.151   2.285
  2.319   2.391   2.395   2.515   2.560   2.612   2.690   2.734
  2.776   2.849   2.881   2.927   2.985   3.161   3.213   3.376
  3.428   3.438   3.461   3.563   4.208   4.490   4.575   4.667
  4.670   4.671   4.684   4.684   6.221  90.128
 --------------------------------------------------------------
 
          Ground-State Mulliken Net Atomic Charges

     Atom                 Charge (a.u.)    Spin (a.u.)
  --------------------------------------------------------
      1 Br                    0.000035       1.000031
      2 C                    -0.071001       1.018617
      3 C                    -0.333925      -0.080230
      4 C                    -0.333928      -0.080229
      5 H                     0.091044      -0.045842
      6 H                     0.108124       0.007028
      7 H                     0.108644       0.062907
      8 H                     0.107112       0.023893
      9 H                     0.108144       0.007032
     10 H                     0.108641       0.062907
     11 H                     0.107109       0.023885
  --------------------------------------------------------
  Sum of atomic charges =    -0.000000
  Sum of spin   charges =     2.000000

 -----------------------------------------------------------------
                    Cartesian Multipole Moments
 -----------------------------------------------------------------
    Charge (ESU x 10^10)
                -0.0000
    Dipole Moment (Debye)
         X      -0.1610      Y       0.0002      Z       0.0754
       Tot       0.1778
    Quadrupole Moments (Debye-Ang)
        XX     -39.4142     XY       0.0117     YY     -36.4025
        XZ       0.4446     YZ       0.0176     ZZ     -39.5950
    Octopole Moments (Debye-Ang^2)
       XXX    -219.6842    XXY       0.1393    XYY     -58.2901
       YYY       0.0556    XXZ     -13.1661    XYZ       0.0971
       YYZ     -10.6598    XZZ     -73.2046    YZZ       0.0502
       ZZZ     -40.7654
    Hexadecapole Moments (Debye-Ang^3)
      XXXX   -3031.4942   XXXY       1.3192   XXYY    -472.6472
      XYYY       0.3844   YYYY    -221.2340   XXXZ    -234.9711
      XXYZ       0.5619   XYYZ     -66.7872   YYYZ       0.0828
      XXZZ    -527.6104   XYZZ       0.2939   YYZZ     -58.9330
      XZZZ    -230.0719   YZZZ       0.1254   ZZZZ    -136.3736
 -----------------------------------------------------------------
 Calculating analytic gradient of the SCF energy
 Gradient of SCF Energy
            1           2           3           4           5           6
    1  -0.0000058   0.0119573   0.0002942   0.0002930  -0.0124760  -0.0000303
    2  -0.0000011  -0.0000031  -0.0000570   0.0000567   0.0000034   0.0000089
    3  -0.0001126   0.0122797   0.0003847   0.0003864  -0.0128467  -0.0000218
            7           8           9          10          11
    1  -0.0000373   0.0000355  -0.0000298  -0.0000369   0.0000360
    2  -0.0000345   0.0000747  -0.0000087   0.0000351  -0.0000744
    3  -0.0000071  -0.0000165  -0.0000218  -0.0000075  -0.0000167
 Max gradient component =       1.285E-02
 RMS gradient           =       4.317E-03
 Gradient time:  CPU 7.98 s  wall 0.68 s
 Geometry Optimization Parameters
   NAtoms,    NIC,     NZ,  NCons,   NDum,   NFix, NCnnct, MaxDiis
       11      62       0       1       0       0       0       0

 Cartesian Hessian Update
 Hessian Updated using BFGS Update


** CONSTRAINED OPTIMIZATION IN DELOCALIZED INTERNAL COORDINATES **
   Searching for a Minimum

   Optimization Cycle:   2

                       Coordinates (Angstroms)
     ATOM                X               Y               Z
      1  Br        4.9943251337   -0.0015024037    0.7837480374
      2  C        -0.5786852171    0.0002396419    0.2172938842
      3  C        -1.1870947070   -1.2991182601   -0.1916355680
      4  C        -1.1867849115    1.2997059405   -0.1917591413
      5  H         0.1550005334    0.0002111142    0.9854368013
      6  H        -0.5133039284   -2.1426784516   -0.0108372357
      7  H        -2.1220529880   -1.5138371368    0.3568440923
      8  H        -1.4554274132   -1.3007373885   -1.2569684886
      9  H        -0.5127183315    2.1430950967   -0.0111865378
     10  H        -2.1216011993    1.5147825284    0.3568199840
     11  H        -1.4552569711    1.3012373190   -1.2570558278
   Point Group: c1    Number of degrees of freedom:    27


   Energy is  -2692.327607374

              Constraints and their Current Values
                                        Value     Constraint
   Distance(Angs):        1   2             5.601725     5.600000
 Hessian Updated using BFGS Update

   Using Lagrange Multiplier Algorithm


 23 Hessian modes will be used to form the next step
  Hessian Eigenvalues:
    -0.990167    0.044967    0.045000    0.045556    0.061723    0.092069
     0.092073    0.092867    0.092871    0.156818    0.159999    0.160029
     0.218247    0.331327    0.331328    0.332445    0.332456    0.338349
     0.338351    0.342808    0.342810    0.607223    1.021804

 Minimum Search - Taking P-RFO Step
 Searching for Lamda that Maximizes Along the Constraint modes Only
 Value Taken    Lamda =   0.00002149
 Searching for Lamda that Minimizes Along All other modes
 Value Taken    Lamda =  -0.00045358
 Step Taken.  Stepsize is  0.032590

                             Maximum     Tolerance    Cnvgd?
         Gradient            0.010123       0.000300      NO
         Displacement        0.022189       0.001200      NO
         Energy change      0.000435       0.000001      NO


 New Cartesian Coordinates Obtained by Inverse Iteration

 Displacement from previous Coordinates is:  0.025917
 ----------------------------------------------------------------
             Standard Nuclear Orientation (Angstroms)
    I     Atom           X                Y                Z
 ----------------------------------------------------------------
    1      Br      4.9926836229    -0.0014248803     0.7853251058
    2      C      -0.5782823359     0.0002224585     0.2158165020
    3      C      -1.1879525704    -1.2988160050    -0.1928091017
    4      C      -1.1875951206     1.2993925376    -0.1929287359
    5      H       0.1649392741     0.0001765181     0.9925922264
    6      H      -0.5142966725    -2.1427181692    -0.0129385581
    7      H      -2.1220949408    -1.5130605796     0.3572021149
    8      H      -1.4579991291    -1.3004538376    -1.2576897421
    9      H      -0.5136328120     2.1430981325    -0.0132821889
   10      H      -2.1215866646     1.5140264328     0.3571847029
   11      H      -1.4577826512     1.3009553920    -1.2577723253
 ----------------------------------------------------------------
 Nuclear Repulsion Energy =   150.4414758412 hartrees
 There are       31 alpha and       29 beta electrons

                       Distance Matrix (Angstroms)
             Br(  1)   C (  2)   C (  3)   C (  4)   H (  5)   H (  6)
   C (  2)  5.600000
   C (  3)  6.390636  1.492037
   C (  4)  6.391006  1.492038  2.598209
   H (  5)  4.832192  1.075062  2.218755  2.218732
   H (  6)  5.962314  2.156065  1.094686  3.511959  2.462611
   H (  7)  7.286179  2.166419  1.105005  3.014270  2.814984  1.765924
   H (  8)  6.890043  2.153342  1.098589  2.822417  3.064203  1.774652
   H (  9)  5.962908  2.156057  3.511938  1.094686  2.462591  4.285816
   H ( 10)  7.286476  2.166420  3.014340  1.105003  2.814904  4.011503
   H ( 11)  6.890498  2.153344  2.822369  1.098588  3.064212  3.781357
             H (  7)   H (  8)   H (  9)   H ( 10)
   H (  8)  1.759006
   H (  9)  4.011472  3.781326
   H ( 10)  3.027087  3.312019  1.765925
   H ( 11)  3.311818  2.601409  1.774649  1.759011
 
 Applying Cartesian multipole field
    Component          Value
    ---------          -----
     (2,0,0)        1.00000E-11
     (0,2,0)        2.00000E-11
     (0,0,2)       -3.00000E-10
 Nucleus-field energy     =     0.0000000064 hartrees
 Requested basis set is 6-31G(d,p)
 There are 41 shells and 115 basis functions
 A cutoff of  1.0D-14 yielded    709 shell pairs
 There are      5102 function pairs
 Smallest overlap matrix eigenvalue = 7.27E-04
 Guess from superposition of atomic densities
 Warning:  Energy on first SCF cycle will be non-variational
 SAD guess density has 59.972873 electrons

 -----------------------------------------------------------------------
  General SCF calculation program by
  Eric Jon Sundstrom, Paul Horn, Yuezhi Mao, Dmitri Zuev, Alec White,
  David Stuck, Shaama M.S., Shane Yost, Joonho Lee, David Small,
  Daniel Levine, Susi Lehtola, Hugh Burton, Evgeny Epifanovsky
 -----------------------------------------------------------------------
 Exchange:     0.2000 Hartree-Fock + 0.0800 Slater + 0.7200 B88
 Correlation:  0.1900 VWN1RPA + 0.8100 LYP
 Using SG-1 standard quadrature grid
 using 12 threads for integral computing
 -------------------------------------------------------
 OpenMP Integral computing Module                
 Release: version 1.0, May 2013, Q-Chem Inc. Pittsburgh 
 -------------------------------------------------------
 -------------------------------------------------------
 OpenMP BLAS3 based DFT computing Module                
 Release: version 1.0, May 2013, Q-Chem Inc. Pittsburgh 
 -------------------------------------------------------
 A unrestricted SCF calculation will be
 performed using DIIS
 SCF converges when DIIS error is below 1.0e-06
 Alpha HF Exchange    Energy = -10.71457415967051
 Beta HF Exchange     Energy = -10.71457415967051
 DFT Correlation      Energy =  -3.10450595493032
 DFT Exchange         Energy = -84.98089659936514
 One-Electron (alpha) Energy = -2017.06623572910439
 One-Electron (beta)  Energy = -2017.06623572910439
 Total Coulomb        Energy = 1297.66922652916969
 ---------------------------------------
  Cycle       Energy         DIIS error
 ---------------------------------------
    1   -2695.5363199551      1.64e-01  
 Alpha HF Exchange    Energy = -10.89725975904787
 Beta HF Exchange     Energy = -10.70153810295391
 DFT Correlation      Energy =  -3.13871701736432
 DFT Exchange         Energy = -85.90757449077921
 One-Electron (alpha) Energy = -2039.29766340746301
 One-Electron (beta)  Energy = -2005.63954469224586
 Total Coulomb        Energy = 1312.92734522382830
    2   -2692.2134763985      9.58e-03  
 Alpha HF Exchange    Energy = -10.79817167336582
 Beta HF Exchange     Energy = -10.61316041315197
 DFT Correlation      Energy =  -3.10176814386540
 DFT Exchange         Energy = -85.13898327935465
 One-Electron (alpha) Energy = -2031.59819488239896
 One-Electron (beta)  Energy = -1998.47705425039476
 Total Coulomb        Energy = 1297.07395246197530
    3   -2692.2119043330      4.33e-03  
 Alpha HF Exchange    Energy = -10.87339062738373
 Beta HF Exchange     Energy = -10.68007689781436
 DFT Correlation      Energy =  -3.12954729839610
 DFT Exchange         Energy = -85.71701554429529
 One-Electron (alpha) Energy = -2037.33851238266880
 One-Electron (beta)  Energy = -2003.63572768485983
 Total Coulomb        Energy = 1308.64701694086511
    4   -2692.2857776470      2.59e-03  
 Alpha HF Exchange    Energy = -10.84896834265041
 Beta HF Exchange     Energy = -10.65831457551749
 DFT Correlation      Energy =  -3.11960165422878
 DFT Exchange         Energy = -85.52715059723307
 One-Electron (alpha) Energy = -2035.67117534436352
 One-Electron (beta)  Energy = -2002.07753302220658
 Total Coulomb        Energy = 1305.13351535429547
    5   -2692.3277523344      2.23e-04  
 Alpha HF Exchange    Energy = -10.84737417020283
 Beta HF Exchange     Energy = -10.65679545002176
 DFT Correlation      Energy =  -3.11949364420798
 DFT Exchange         Energy = -85.51549141919679
 One-Electron (alpha) Energy = -2035.48483124061863
 One-Electron (beta)  Energy = -2001.91157668395499
 Total Coulomb        Energy = 1304.76617499870667
    6   -2692.3279117620      4.49e-05  
 Alpha HF Exchange    Energy = -10.84723569726102
 Beta HF Exchange     Energy = -10.65673638543272
 DFT Correlation      Energy =  -3.11932834428320
 DFT Exchange         Energy = -85.51448664658258
 One-Electron (alpha) Energy = -2035.47941215828951
 One-Electron (beta)  Energy = -2001.90651808716007
 Total Coulomb        Energy = 1304.75431820145627
    7   -2692.3279232700      8.74e-06  
 Alpha HF Exchange    Energy = -10.84733553211659
 Beta HF Exchange     Energy = -10.65681071496419
 DFT Correlation      Energy =  -3.11934209409182
 DFT Exchange         Energy = -85.51515829943058
 One-Electron (alpha) Energy = -2035.48831225402887
 One-Electron (beta)  Energy = -2001.91317565564987
 Total Coulomb        Energy = 1304.77073448872352
    8   -2692.3279242140      4.03e-06  
 Alpha HF Exchange    Energy = -10.84732408806290
 Beta HF Exchange     Energy = -10.65681880950821
 DFT Correlation      Energy =  -3.11933586958581
 DFT Exchange         Energy = -85.51513608199221
 One-Electron (alpha) Energy = -2035.48684652737870
 One-Electron (beta)  Energy = -2001.91235085743347
 Total Coulomb        Energy = 1304.76841202764604
    9   -2692.3279243588      2.15e-06  
 Alpha HF Exchange    Energy = -10.84732329004878
 Beta HF Exchange     Energy = -10.65681660684169
 DFT Correlation      Energy =  -3.11933410200090
 DFT Exchange         Energy = -85.51512321926737
 One-Electron (alpha) Energy = -2035.48646280872140
 One-Electron (beta)  Energy = -2001.91233446249271
 Total Coulomb        Energy = 1304.76799424539240
   10   -2692.3279243965      3.49e-07  Convergence criterion met
 ---------------------------------------
 SCF time:   CPU 23.83s  wall 2.00s 
<S^2> =          2.005412618
 Alpha HF Exchange    Energy = -10.84732329004878
 Beta HF Exchange     Energy = -10.65681660684169
 DFT Correlation      Energy =  -3.11933410200090
 DFT Exchange         Energy = -85.51512321926737
 One-Electron (alpha) Energy = -2035.48646280872140
 One-Electron (beta)  Energy = -2001.91233446249271
 Total Coulomb        Energy = 1304.76799424539240
 Nuclear repulsion Energy = 150.44147584752849
 SCF   energy in the final basis set =    -2692.3279243965
 Total energy in the final basis set =    -2692.3279243965
 
 --------------------------------------------------------------
 
                    Orbital Energies (a.u.)
 --------------------------------------------------------------
 
 Alpha MOs
 -- Occupied --
******* -62.557 -56.382 -56.374 -56.374 -10.183 -10.175 -10.175
 -8.745  -6.581  -6.559  -6.559  -2.672  -2.667  -2.667  -2.650
 -2.650  -0.797  -0.775  -0.685  -0.567  -0.446  -0.423  -0.403
 -0.380  -0.372  -0.349  -0.344  -0.323  -0.323  -0.177
 -- Virtual --
  0.108   0.129   0.146   0.165   0.175   0.182   0.189   0.192
  0.260   0.286   0.296   0.311   0.314   0.500   0.514   0.533
  0.544   0.545   0.556   0.567   0.580   0.581   0.589   0.638
  0.724   0.732   0.748   0.813   0.854   0.858   0.882   0.888
  0.928   0.945   0.951   1.247   1.297   1.354   1.358   1.536
  1.676   1.691   1.797   1.817   1.862   1.893   1.983   2.048
  2.052   2.077   2.107   2.121   2.141   2.283   2.297   2.379
  2.388   2.490   2.542   2.594   2.682   2.730   2.770   2.841
  2.871   2.915   2.974   3.155   3.206   3.360   3.426   3.431
  3.456   3.543   4.187   4.490   4.563   4.648   4.656   4.656
  4.681   4.682   6.205  90.122
 
 Beta MOs
 -- Occupied --
******* -62.556 -56.376 -56.373 -56.373 -10.176 -10.176 -10.169
 -8.741  -6.570  -6.557  -6.557  -2.664  -2.661  -2.661  -2.649
 -2.649  -0.758  -0.754  -0.683  -0.545  -0.441  -0.406  -0.397
 -0.374  -0.345  -0.339  -0.309  -0.309
 -- Virtual --
 -0.236  -0.026   0.109   0.133   0.149   0.173   0.184   0.187
  0.192   0.200   0.271   0.303   0.315   0.315   0.319   0.502
  0.517   0.576   0.588   0.589   0.590   0.591   0.593   0.594
  0.595   0.670   0.733   0.744   0.749   0.829   0.860   0.863
  0.886   0.897   0.933   0.949   0.960   1.261   1.306   1.361
  1.380   1.536   1.694   1.698   1.820   1.828   1.890   1.916
  2.007   2.053   2.058   2.083   2.112   2.124   2.148   2.286
  2.316   2.389   2.393   2.510   2.560   2.605   2.686   2.734
  2.775   2.848   2.879   2.923   2.979   3.160   3.212   3.367
  3.428   3.434   3.460   3.549   4.208   4.490   4.575   4.667
  4.671   4.671   4.684   4.684   6.221  90.128
 --------------------------------------------------------------
 
          Ground-State Mulliken Net Atomic Charges

     Atom                 Charge (a.u.)    Spin (a.u.)
  --------------------------------------------------------
      1 Br                    0.000034       1.000031
      2 C                    -0.071538       1.019149
      3 C                    -0.333597      -0.080254
      4 C                    -0.333599      -0.080253
      5 H                     0.090265      -0.046276
      6 H                     0.108306       0.007055
      7 H                     0.108706       0.062917
      8 H                     0.107198       0.023832
      9 H                     0.108326       0.007059
     10 H                     0.108703       0.062916
     11 H                     0.107195       0.023824
  --------------------------------------------------------
  Sum of atomic charges =    -0.000000
  Sum of spin   charges =     2.000000

 -----------------------------------------------------------------
                    Cartesian Multipole Moments
 -----------------------------------------------------------------
    Charge (ESU x 10^10)
                 0.0000
    Dipole Moment (Debye)
         X      -0.1674      Y       0.0002      Z       0.0706
       Tot       0.1817
    Quadrupole Moments (Debye-Ang)
        XX     -39.4148     XY       0.0112     YY     -36.4031
        XZ       0.4530     YZ       0.0165     ZZ     -39.6050
    Octopole Moments (Debye-Ang^2)
       XXX    -219.6045    XXY       0.1327    XYY     -58.2739
       YYY       0.0524    XXZ     -13.1928    XYZ       0.0913
       YYZ     -10.6875    XZZ     -73.1704    YZZ       0.0473
       ZZZ     -40.8338
    Hexadecapole Moments (Debye-Ang^3)
      XXXX   -3029.8923   XXXY       1.2542   XXYY    -472.3911
      XYYY       0.3630   YYYY    -221.1025   XXXZ    -235.4530
      XXYZ       0.5295   XYYZ     -66.9213   YYYZ       0.0787
      XXZZ    -527.3880   XYZZ       0.2772   YYZZ     -58.9808
      XZZZ    -230.5318   YZZZ       0.1190   ZZZZ    -136.8092
 -----------------------------------------------------------------
 Calculating analytic gradient of the SCF energy
 Gradient of SCF Energy
            1           2           3           4           5           6
    1  -0.0000458   0.0056934   0.0000705   0.0000696  -0.0057225   0.0000023
    2  -0.0000009  -0.0000024   0.0000406  -0.0000409   0.0000028   0.0000094
    3  -0.0000984   0.0059292   0.0000657   0.0000671  -0.0059364   0.0000081
            7           8           9          10          11
    1  -0.0000236  -0.0000120   0.0000027  -0.0000232  -0.0000115
    2  -0.0000270  -0.0000206  -0.0000095   0.0000275   0.0000208
    3  -0.0000151  -0.0000064   0.0000080  -0.0000153  -0.0000065
 Max gradient component =       5.936E-03
 RMS gradient           =       2.027E-03
 Gradient time:  CPU 8.04 s  wall 0.68 s
 Geometry Optimization Parameters
   NAtoms,    NIC,     NZ,  NCons,   NDum,   NFix, NCnnct, MaxDiis
       11      62       0       1       0       0       0       0

 Cartesian Hessian Update
 Hessian Updated using BFGS Update


** CONSTRAINED OPTIMIZATION IN DELOCALIZED INTERNAL COORDINATES **
   Searching for a Minimum

   Optimization Cycle:   3

                       Coordinates (Angstroms)
     ATOM                X               Y               Z
      1  Br        4.9926836229   -0.0014248803    0.7853251058
      2  C        -0.5782823359    0.0002224585    0.2158165020
      3  C        -1.1879525704   -1.2988160050   -0.1928091017
      4  C        -1.1875951206    1.2993925376   -0.1929287359
      5  H         0.1649392741    0.0001765181    0.9925922264
      6  H        -0.5142966725   -2.1427181692   -0.0129385581
      7  H        -2.1220949408   -1.5130605796    0.3572021149
      8  H        -1.4579991291   -1.3004538376   -1.2576897421
      9  H        -0.5136328120    2.1430981325   -0.0132821889
     10  H        -2.1215866646    1.5140264328    0.3571847029
     11  H        -1.4577826512    1.3009553920   -1.2577723253
   Point Group: c1    Number of degrees of freedom:    27


   Energy is  -2692.327924396

              Constraints and their Current Values
                                        Value     Constraint
   Distance(Angs):        1   2             5.600000     5.600000
 Hessian Updated using BFGS Update

 23 Hessian modes will be used to form the next step
  Hessian Eigenvalues:
     0.044933    0.045000    0.045000    0.045513    0.058905    0.092073
     0.092078    0.092871    0.092872    0.156818    0.159963    0.160000
     0.160079    0.218341    0.331326    0.331328    0.331990    0.332455
     0.338325    0.338351    0.342798    0.342810    0.354257

 Minimum Search - Taking Simple RFO Step
 Searching for Lamda that Minimizes Along All modes
 Value Taken    Lamda =  -0.00017318
 Step Taken.  Stepsize is  0.027993

                             Maximum     Tolerance    Cnvgd?
         Gradient           0.004721      0.000300      NO
         Displacement       0.019735      0.001200      NO
         Energy change     -0.000317      0.000001      NO


 New Cartesian Coordinates Obtained by Inverse Iteration

 Displacement from previous Coordinates is:  0.026048
 ----------------------------------------------------------------
             Standard Nuclear Orientation (Angstroms)
    I     Atom           X                Y                Z
 ----------------------------------------------------------------
    1      Br      4.9923481888    -0.0013335491     0.7892924695
    2      C      -0.5778935347     0.0002023805     0.2127430268
    3      C      -1.1888249193    -1.2988310873    -0.1938344971
    4      C      -1.1884105623     1.2993961053    -0.1939500264
    5      H       0.1742071230     0.0001300855     0.9962532418
    6      H      -0.5150821793    -2.1430954609    -0.0160165629
    7      H      -2.1212979037    -1.5124373806     0.3592196063
    8      H      -1.4619329195    -1.2999396218    -1.2578923562
    9      H      -0.5143271748     2.1434358139    -0.0163552193
   10      H      -2.1207226348     1.5134268001     0.3592095138
   11      H      -1.4616634834     1.3004439145    -1.2579691962
 ----------------------------------------------------------------
 Nuclear Repulsion Energy =   150.3965935269 hartrees
 There are       31 alpha and       29 beta electrons

                       Distance Matrix (Angstroms)
             Br(  1)   C (  2)   C (  3)   C (  4)   H (  5)   H (  6)
   C (  2)  5.600000
   C (  3)  6.391943  1.491989
   C (  4)  6.392217  1.491990  2.598227
   H (  5)  4.822584  1.086068  2.227435  2.227421
   H (  6)  5.963846  2.156386  1.094683  3.512233  2.468446
   H (  7)  7.285078  2.166017  1.104990  3.013749  2.821882  1.765916
   H (  8)  6.894569  2.152827  1.098548  2.821938  3.073810  1.774738
   H (  9)  5.964275  2.156380  3.512214  1.094683  2.468444  4.286531
   H ( 10)  7.285276  2.166015  3.013816  1.104989  2.821807  4.011113
   H ( 11)  6.894938  2.152829  2.821888  1.098547  3.073826  3.781061
             H (  7)   H (  8)   H (  9)   H ( 10)
   H (  8)  1.759252
   H (  9)  4.011087  3.781032
   H ( 10)  3.025864  3.311201  1.765918
   H ( 11)  3.311000  2.600384  1.774736  1.759258
 
 Applying Cartesian multipole field
    Component          Value
    ---------          -----
     (2,0,0)        1.00000E-11
     (0,2,0)        2.00000E-11
     (0,0,2)       -3.00000E-10
 Nucleus-field energy     =     0.0000000061 hartrees
 Requested basis set is 6-31G(d,p)
 There are 41 shells and 115 basis functions
 A cutoff of  1.0D-14 yielded    709 shell pairs
 There are      5102 function pairs
 Smallest overlap matrix eigenvalue = 7.27E-04
 Guess from superposition of atomic densities
 Warning:  Energy on first SCF cycle will be non-variational
 SAD guess density has 59.972873 electrons

 -----------------------------------------------------------------------
  General SCF calculation program by
  Eric Jon Sundstrom, Paul Horn, Yuezhi Mao, Dmitri Zuev, Alec White,
  David Stuck, Shaama M.S., Shane Yost, Joonho Lee, David Small,
  Daniel Levine, Susi Lehtola, Hugh Burton, Evgeny Epifanovsky
 -----------------------------------------------------------------------
 Exchange:     0.2000 Hartree-Fock + 0.0800 Slater + 0.7200 B88
 Correlation:  0.1900 VWN1RPA + 0.8100 LYP
 Using SG-1 standard quadrature grid
 using 12 threads for integral computing
 -------------------------------------------------------
 OpenMP Integral computing Module                
 Release: version 1.0, May 2013, Q-Chem Inc. Pittsburgh 
 -------------------------------------------------------
 -------------------------------------------------------
 OpenMP BLAS3 based DFT computing Module                
 Release: version 1.0, May 2013, Q-Chem Inc. Pittsburgh 
 -------------------------------------------------------
 A unrestricted SCF calculation will be
 performed using DIIS
 SCF converges when DIIS error is below 1.0e-06
 Alpha HF Exchange    Energy = -10.71394088017893
 Beta HF Exchange     Energy = -10.71394088017893
 DFT Correlation      Energy =  -3.10437331761624
 DFT Exchange         Energy = -84.97949332716919
 One-Electron (alpha) Energy = -2017.02717375297971
 One-Electron (beta)  Energy = -2017.02717375297971
 Total Coulomb        Energy = 1297.63725981256698
 ---------------------------------------
  Cycle       Energy         DIIS error
 ---------------------------------------
    1   -2695.5322425655      1.64e-01  
 Alpha HF Exchange    Energy = -10.89672136826479
 Beta HF Exchange     Energy = -10.70109020817133
 DFT Correlation      Energy =  -3.13852075259448
 DFT Exchange         Energy = -85.90397039075188
 One-Electron (alpha) Energy = -2039.24949681057592
 One-Electron (beta)  Energy = -2005.59541858499210
 Total Coulomb        Energy = 1312.87491570991529
    2   -2692.2137088724      9.58e-03  
 Alpha HF Exchange    Energy = -10.79778311057184
 Beta HF Exchange     Energy = -10.61273581397684
 DFT Correlation      Energy =  -3.10157410187333
 DFT Exchange         Energy = -85.13607182504651
 One-Electron (alpha) Energy = -2031.55588680596907
 One-Electron (beta)  Energy = -1998.43586090648796
 Total Coulomb        Energy = 1297.03150167821855
    3   -2692.2118173526      4.33e-03  
 Alpha HF Exchange    Energy = -10.87300130115773
 Beta HF Exchange     Energy = -10.67968761672728
 DFT Correlation      Energy =  -3.12938647031580
 DFT Exchange         Energy = -85.71427037631378
 One-Electron (alpha) Energy = -2037.29635231805673
 One-Electron (beta)  Energy = -2003.59501316639557
 Total Coulomb        Energy = 1308.60543934018347
    4   -2692.2856783757      2.59e-03  
 Alpha HF Exchange    Energy = -10.84854838978614
 Beta HF Exchange     Energy = -10.65789735443840
 DFT Correlation      Energy =  -3.11941340238664
 DFT Exchange         Energy = -85.52415353866601
 One-Electron (alpha) Energy = -2035.62819572195326
 One-Electron (beta)  Energy = -2002.03576860422868
 Total Coulomb        Energy = 1305.08954263109786
    5   -2692.3278408473      2.24e-04  
 Alpha HF Exchange    Energy = -10.84696646086933
 Beta HF Exchange     Energy = -10.65637204921197
 DFT Correlation      Energy =  -3.11931025003795
 DFT Exchange         Energy = -85.51252667457209
 One-Electron (alpha) Energy = -2035.44230719123425
 One-Electron (beta)  Energy = -2001.86992403209274
 Total Coulomb        Energy = 1304.72280982557595
    6   -2692.3280032994      4.50e-05  
 Alpha HF Exchange    Energy = -10.84682090073913
 Beta HF Exchange     Energy = -10.65630954538171
 DFT Correlation      Energy =  -3.11914251880742
 DFT Exchange         Energy = -85.51147916435411
 One-Electron (alpha) Energy = -2035.43620572288341
 One-Electron (beta)  Energy = -2001.86416576798615
 Total Coulomb        Energy = 1304.70951508067401
    7   -2692.3280150064      9.01e-06  
 Alpha HF Exchange    Energy = -10.84692438026952
 Beta HF Exchange     Energy = -10.65638305742930
 DFT Correlation      Energy =  -3.11915661638287
 DFT Exchange         Energy = -85.51216229997291
 One-Electron (alpha) Energy = -2035.44540932737686
 One-Electron (beta)  Energy = -2001.87099207956203
 Total Coulomb        Energy = 1304.72641825807204
    8   -2692.3280159699      4.49e-06  
 Alpha HF Exchange    Energy = -10.84691335781041
 Beta HF Exchange     Energy = -10.65639188909041
 DFT Correlation      Energy =  -3.11915061133530
 DFT Exchange         Energy = -85.51214462840784
 One-Electron (alpha) Energy = -2035.44401776075506
 One-Electron (beta)  Energy = -2001.87016025710932
 Total Coulomb        Energy = 1304.72416882930543
    9   -2692.3280161421      2.18e-06  
 Alpha HF Exchange    Energy = -10.84691202421414
 Beta HF Exchange     Energy = -10.65638946802457
 DFT Correlation      Energy =  -3.11914838840562
 DFT Exchange         Energy = -85.51212832937978
 One-Electron (alpha) Energy = -2035.44354406118919
 One-Electron (beta)  Energy = -2001.87007671150150
 Total Coulomb        Energy = 1304.72358926702282
   10   -2692.3280161826      3.39e-07  Convergence criterion met
 ---------------------------------------
 SCF time:   CPU 23.97s  wall 2.00s 
<S^2> =          2.005449185
 Alpha HF Exchange    Energy = -10.84691202421414
 Beta HF Exchange     Energy = -10.65638946802457
 DFT Correlation      Energy =  -3.11914838840562
 DFT Exchange         Energy = -85.51212832937978
 One-Electron (alpha) Energy = -2035.44354406118919
 One-Electron (beta)  Energy = -2001.87007671150150
 Total Coulomb        Energy = 1304.72358926702282
 Nuclear repulsion Energy = 150.39659353307070
 SCF   energy in the final basis set =    -2692.3280161826
 Total energy in the final basis set =    -2692.3280161826
 
 --------------------------------------------------------------
 
                    Orbital Energies (a.u.)
 --------------------------------------------------------------
 
 Alpha MOs
 -- Occupied --
******* -62.557 -56.382 -56.374 -56.374 -10.184 -10.175 -10.175
 -8.745  -6.581  -6.559  -6.559  -2.672  -2.667  -2.667  -2.650
 -2.650  -0.797  -0.775  -0.685  -0.566  -0.446  -0.423  -0.403
 -0.380  -0.372  -0.350  -0.343  -0.323  -0.323  -0.177
 -- Virtual --
  0.107   0.127   0.146   0.165   0.174   0.182   0.188   0.192
  0.259   0.286   0.296   0.311   0.314   0.500   0.514   0.533
  0.544   0.545   0.556   0.567   0.580   0.581   0.589   0.639
  0.723   0.734   0.748   0.812   0.854   0.858   0.882   0.885
  0.928   0.945   0.948   1.247   1.297   1.354   1.358   1.535
  1.676   1.687   1.798   1.818   1.863   1.893   1.978   2.048
  2.052   2.077   2.107   2.121   2.139   2.283   2.295   2.378
  2.387   2.484   2.543   2.589   2.679   2.730   2.768   2.841
  2.870   2.912   2.969   3.155   3.206   3.351   3.426   3.428
  3.455   3.534   4.187   4.490   4.563   4.648   4.656   4.656
  4.681   4.682   6.205  90.122
 
 Beta MOs
 -- Occupied --
******* -62.556 -56.376 -56.373 -56.373 -10.176 -10.176 -10.170
 -8.741  -6.570  -6.557  -6.557  -2.664  -2.661  -2.660  -2.649
 -2.649  -0.758  -0.753  -0.683  -0.544  -0.441  -0.406  -0.397
 -0.374  -0.346  -0.338  -0.309  -0.309
 -- Virtual --
 -0.236  -0.026   0.109   0.132   0.149   0.173   0.184   0.187
  0.192   0.199   0.270   0.303   0.315   0.315   0.319   0.501
  0.517   0.576   0.588   0.589   0.590   0.591   0.593   0.594
  0.595   0.670   0.732   0.745   0.749   0.828   0.859   0.863
  0.886   0.895   0.933   0.949   0.957   1.261   1.306   1.361
  1.381   1.535   1.692   1.695   1.821   1.829   1.890   1.914
  2.004   2.053   2.058   2.082   2.112   2.124   2.146   2.286
  2.313   2.389   2.391   2.505   2.560   2.600   2.683   2.734
  2.773   2.847   2.877   2.919   2.973   3.159   3.211   3.357
  3.428   3.431   3.460   3.539   4.209   4.489   4.575   4.667
  4.671   4.671   4.684   4.684   6.221  90.128
 --------------------------------------------------------------
 
          Ground-State Mulliken Net Atomic Charges

     Atom                 Charge (a.u.)    Spin (a.u.)
  --------------------------------------------------------
      1 Br                    0.000034       1.000030
      2 C                    -0.071818       1.019517
      3 C                    -0.333327      -0.080253
      4 C                    -0.333329      -0.080252
      5 H                     0.089336      -0.046636
      6 H                     0.108530       0.007092
      7 H                     0.108757       0.062966
      8 H                     0.107259       0.023741
      9 H                     0.108549       0.007097
     10 H                     0.108754       0.062966
     11 H                     0.107256       0.023732
  --------------------------------------------------------
  Sum of atomic charges =     0.000000
  Sum of spin   charges =     2.000000

 -----------------------------------------------------------------
                    Cartesian Multipole Moments
 -----------------------------------------------------------------
    Charge (ESU x 10^10)
                 0.0000
    Dipole Moment (Debye)
         X      -0.1737      Y       0.0002      Z       0.0668
       Tot       0.1861
    Quadrupole Moments (Debye-Ang)
        XX     -39.4157     XY       0.0103     YY     -36.4003
        XZ       0.4569     YZ       0.0152     ZZ     -39.6155
    Octopole Moments (Debye-Ang^2)
       XXX    -219.5870    XXY       0.1228    XYY     -58.2721
       YYY       0.0485    XXZ     -13.2496    XYZ       0.0846
       YYZ     -10.7406    XZZ     -73.1650    YZZ       0.0439
       ZZZ     -41.0100
    Hexadecapole Moments (Debye-Ang^3)
      XXXX   -3029.8001   XXXY       1.1615   XXYY    -472.3706
      XYYY       0.3377   YYYY    -221.0036   XXXZ    -236.6760
      XXYZ       0.4911   XYYZ     -67.2762   YYYZ       0.0740
      XXZZ    -527.4660   XYZZ       0.2580   YYZZ     -59.0938
      XZZZ    -231.7350   YZZZ       0.1118   ZZZZ    -137.6163
 -----------------------------------------------------------------
 Calculating analytic gradient of the SCF energy
 Gradient of SCF Energy
            1           2           3           4           5           6
    1  -0.0000849   0.0003782   0.0000126   0.0000119  -0.0003305  -0.0000080
    2  -0.0000007  -0.0000014   0.0000161  -0.0000161   0.0000015  -0.0000261
    3  -0.0000827   0.0005562  -0.0000653  -0.0000648  -0.0004314   0.0000186
            7           8           9          10          11
    1   0.0000020   0.0000120  -0.0000077   0.0000022   0.0000123
    2   0.0000076  -0.0000016   0.0000261  -0.0000073   0.0000018
    3   0.0000100   0.0000155   0.0000185   0.0000099   0.0000153
 Max gradient component =       5.562E-04
 RMS gradient           =       1.532E-04
 Gradient time:  CPU 8.00 s  wall 0.68 s
 Geometry Optimization Parameters
   NAtoms,    NIC,     NZ,  NCons,   NDum,   NFix, NCnnct, MaxDiis
       11      62       0       1       0       0       0       0

 Cartesian Hessian Update
 Hessian Updated using BFGS Update


** CONSTRAINED OPTIMIZATION IN DELOCALIZED INTERNAL COORDINATES **
   Searching for a Minimum

   Optimization Cycle:   4

                       Coordinates (Angstroms)
     ATOM                X               Y               Z
      1  Br        4.9923481888   -0.0013335491    0.7892924695
      2  C        -0.5778935347    0.0002023805    0.2127430268
      3  C        -1.1888249193   -1.2988310873   -0.1938344971
      4  C        -1.1884105623    1.2993961053   -0.1939500264
      5  H         0.1742071230    0.0001300855    0.9962532418
      6  H        -0.5150821793   -2.1430954609   -0.0160165629
      7  H        -2.1212979037   -1.5124373806    0.3592196063
      8  H        -1.4619329195   -1.2999396218   -1.2578923562
      9  H        -0.5143271748    2.1434358139   -0.0163552193
     10  H        -2.1207226348    1.5134268001    0.3592095138
     11  H        -1.4616634834    1.3004439145   -1.2579691962
   Point Group: c1    Number of degrees of freedom:    27


   Energy is  -2692.328016183

              Constraints and their Current Values
                                        Value     Constraint
   Distance(Angs):        1   2             5.600000     5.600000
 Hessian Updated using BFGS Update

 24 Hessian modes will be used to form the next step
  Hessian Eigenvalues:
     0.044708    0.045000    0.045000    0.045330    0.057402    0.092073
     0.092078    0.092871    0.092872    0.156818    0.159981    0.160000
     0.160018    0.160170    0.218052    0.330884    0.331328    0.331358
     0.332455    0.338351    0.338352    0.341081    0.342810    0.343965

 Minimum Search - Taking Simple RFO Step
 Searching for Lamda that Minimizes Along All modes
 Value Taken    Lamda =  -0.00000147
 Step Taken.  Stepsize is  0.004489

                             Maximum     Tolerance    Cnvgd?
         Gradient           0.000318      0.000300      NO
         Displacement       0.002304      0.001200      NO
         Energy change     -0.000092      0.000001      NO


 New Cartesian Coordinates Obtained by Inverse Iteration

 Displacement from previous Coordinates is:  0.008851
 ----------------------------------------------------------------
             Standard Nuclear Orientation (Angstroms)
    I     Atom           X                Y                Z
 ----------------------------------------------------------------
    1      Br      4.9924440829    -0.0012933370     0.7913325365
    2      C      -0.5774509851     0.0001935415     0.2114435836
    3      C      -1.1889841067    -1.2988870432    -0.1940173470
    4      C      -1.1885445530     1.2994467055    -0.1941303737
    5      H       0.1756557892     0.0001111768     0.9951603207
    6      H      -0.5148761159    -2.1430042597    -0.0170785771
    7      H      -2.1206434016    -1.5124651524     0.3604268793
    8      H      -1.4636874882    -1.3001766214    -1.2576844700
    9      H      -0.5140807233     2.1433266336    -0.0174147721
   10      H      -2.1200383575     1.5134651373     0.3604203802
   11      H      -1.4633941408     1.3006812189    -1.2577581603
 ----------------------------------------------------------------
 Nuclear Repulsion Energy =   150.3895547000 hartrees
 There are       31 alpha and       29 beta electrons

                       Distance Matrix (Angstroms)
             Br(  1)   C (  2)   C (  3)   C (  4)   H (  5)   H (  6)
   C (  2)  5.600000
   C (  3)  6.392552  1.491972
   C (  4)  6.392784  1.491973  2.598334
   H (  5)  4.821099  1.086914  2.227955  2.227942
   H (  6)  5.964145  2.156255  1.094652  3.512214  2.468685
   H (  7)  7.284596  2.166051  1.104995  3.013833  2.822014  1.765950
   H (  8)  6.896898  2.152839  1.098568  2.822214  3.074655  1.774741
   H (  9)  5.964502  2.156249  3.512196  1.094652  2.468687  4.286331
   H ( 10)  7.284750  2.166047  3.013899  1.104994  2.821940  4.011087
   H ( 11)  6.897228  2.152839  2.822162  1.098566  3.074672  3.781262
             H (  7)   H (  8)   H (  9)   H ( 10)
   H (  8)  1.759245
   H (  9)  4.011062  3.781235
   H ( 10)  3.025930  3.311441  1.765952
   H ( 11)  3.311237  2.600858  1.774739  1.759250
 
 Applying Cartesian multipole field
    Component          Value
    ---------          -----
     (2,0,0)        1.00000E-11
     (0,2,0)        2.00000E-11
     (0,0,2)       -3.00000E-10
 Nucleus-field energy     =     0.0000000060 hartrees
 Requested basis set is 6-31G(d,p)
 There are 41 shells and 115 basis functions
 A cutoff of  1.0D-14 yielded    709 shell pairs
 There are      5102 function pairs
 Smallest overlap matrix eigenvalue = 7.27E-04
 Guess from superposition of atomic densities
 Warning:  Energy on first SCF cycle will be non-variational
 SAD guess density has 59.972873 electrons

 -----------------------------------------------------------------------
  General SCF calculation program by
  Eric Jon Sundstrom, Paul Horn, Yuezhi Mao, Dmitri Zuev, Alec White,
  David Stuck, Shaama M.S., Shane Yost, Joonho Lee, David Small,
  Daniel Levine, Susi Lehtola, Hugh Burton, Evgeny Epifanovsky
 -----------------------------------------------------------------------
 Exchange:     0.2000 Hartree-Fock + 0.0800 Slater + 0.7200 B88
 Correlation:  0.1900 VWN1RPA + 0.8100 LYP
 Using SG-1 standard quadrature grid
 using 12 threads for integral computing
 -------------------------------------------------------
 OpenMP Integral computing Module                
 Release: version 1.0, May 2013, Q-Chem Inc. Pittsburgh 
 -------------------------------------------------------
 -------------------------------------------------------
 OpenMP BLAS3 based DFT computing Module                
 Release: version 1.0, May 2013, Q-Chem Inc. Pittsburgh 
 -------------------------------------------------------
 A unrestricted SCF calculation will be
 performed using DIIS
 SCF converges when DIIS error is below 1.0e-06
 Alpha HF Exchange    Energy = -10.71389587083565
 Beta HF Exchange     Energy = -10.71389587083565
 DFT Correlation      Energy =  -3.10436348887900
 DFT Exchange         Energy = -84.97939304529604
 One-Electron (alpha) Energy = -2017.02055675276824
 One-Electron (beta)  Energy = -2017.02055675276824
 Total Coulomb        Energy = 1297.63115506012537
 ---------------------------------------
  Cycle       Energy         DIIS error
 ---------------------------------------
    1   -2695.5319520153      1.64e-01  
 Alpha HF Exchange    Energy = -10.89668285949276
 Beta HF Exchange     Energy = -10.70105706379869
 DFT Correlation      Energy =  -3.13850596223631
 DFT Exchange         Energy = -85.90371013458324
 One-Electron (alpha) Energy = -2039.24207267696374
 One-Electron (beta)  Energy = -2005.58849643828330
 Total Coulomb        Energy = 1312.86725216750892
    2   -2692.2137182619      9.58e-03  
 Alpha HF Exchange    Energy = -10.79775559251244
 Beta HF Exchange     Energy = -10.61270425364977
 DFT Correlation      Energy =  -3.10155892511796
 DFT Exchange         Energy = -85.13586074473501
 One-Electron (alpha) Energy = -2031.54893386951562
 One-Electron (beta)  Energy = -1998.42917382912719
 Total Coulomb        Energy = 1297.02462721709253
    3   -2692.2118052916      4.33e-03  
 Alpha HF Exchange    Energy = -10.87297404625464
 Beta HF Exchange     Energy = -10.67965882409763
 DFT Correlation      Energy =  -3.12937395795971
 DFT Exchange         Energy = -85.71407393880850
 One-Electron (alpha) Energy = -2037.28936925854350
 One-Electron (beta)  Energy = -2003.58833155677780
 Total Coulomb        Energy = 1308.59856100723232
    4   -2692.2856658692      2.59e-03  
 Alpha HF Exchange    Energy = -10.84851854306538
 Beta HF Exchange     Energy = -10.65786649021893
 DFT Correlation      Energy =  -3.11939870182779
 DFT Exchange         Energy = -85.52393678531332
 One-Electron (alpha) Energy = -2035.62115479952786
 One-Electron (beta)  Energy = -2002.02900999210033
 Total Coulomb        Energy = 1305.08248905735786
    5   -2692.3278415487      2.24e-04  
 Alpha HF Exchange    Energy = -10.84693775883572
 Beta HF Exchange     Energy = -10.65634078524172
 DFT Correlation      Energy =  -3.11929596409681
 DFT Exchange         Energy = -85.51231354283030
 One-Electron (alpha) Energy = -2035.43531641170716
 One-Electron (beta)  Energy = -2001.86318691475230
 Total Coulomb        Energy = 1304.71583241686176
    6   -2692.3280042546      4.50e-05  
 Alpha HF Exchange    Energy = -10.84679160774608
 Beta HF Exchange     Energy = -10.65627802402211
 DFT Correlation      Energy =  -3.11912803672567
 DFT Exchange         Energy = -85.51126257926944
 One-Electron (alpha) Energy = -2035.42915830446168
 One-Electron (beta)  Energy = -2001.85737160473059
 Total Coulomb        Energy = 1304.70241947294494
    7   -2692.3280159780      9.03e-06  
 Alpha HF Exchange    Energy = -10.84689536658387
 Beta HF Exchange     Energy = -10.65635146187258
 DFT Correlation      Energy =  -3.11914215868064
 DFT Exchange         Energy = -85.51194654706232
 One-Electron (alpha) Energy = -2035.43838576770304
 One-Electron (beta)  Energy = -2001.86421159980773
 Total Coulomb        Energy = 1304.71936125270167
    8   -2692.3280169430      4.53e-06  
 Alpha HF Exchange    Energy = -10.84688439759685
 Beta HF Exchange     Energy = -10.65636036520826
 DFT Correlation      Energy =  -3.11913617637524
 DFT Exchange         Energy = -85.51192936927254
 One-Electron (alpha) Energy = -2035.43700142651642
 One-Electron (beta)  Energy = -2001.86338032685853
 Total Coulomb        Energy = 1304.71712023803479
    9   -2692.3280171178      2.18e-06  
 Alpha HF Exchange    Energy = -10.84688301641563
 Beta HF Exchange     Energy = -10.65635792705247
 DFT Correlation      Energy =  -3.11913391643447
 DFT Exchange         Energy = -85.51191277799839
 One-Electron (alpha) Energy = -2035.43652045192675
 One-Electron (beta)  Energy = -2001.86329115999388
 Total Coulomb        Energy = 1304.71652738539092
   10   -2692.3280171584      3.38e-07  Convergence criterion met
 ---------------------------------------
 SCF time:   CPU 24.01s  wall 2.00s 
<S^2> =          2.005450875
 Alpha HF Exchange    Energy = -10.84688301641563
 Beta HF Exchange     Energy = -10.65635792705247
 DFT Correlation      Energy =  -3.11913391643447
 DFT Exchange         Energy = -85.51191277799839
 One-Electron (alpha) Energy = -2035.43652045192675
 One-Electron (beta)  Energy = -2001.86329115999388
 Total Coulomb        Energy = 1304.71652738539092
 Nuclear repulsion Energy = 150.38955470599819
 SCF   energy in the final basis set =    -2692.3280171584
 Total energy in the final basis set =    -2692.3280171584
 
 --------------------------------------------------------------
 
                    Orbital Energies (a.u.)
 --------------------------------------------------------------
 
 Alpha MOs
 -- Occupied --
******* -62.557 -56.382 -56.374 -56.374 -10.184 -10.175 -10.175
 -8.745  -6.581  -6.559  -6.559  -2.672  -2.667  -2.667  -2.650
 -2.650  -0.797  -0.775  -0.685  -0.565  -0.446  -0.423  -0.403
 -0.380  -0.372  -0.350  -0.343  -0.323  -0.323  -0.177
 -- Virtual --
  0.107   0.127   0.146   0.165   0.174   0.182   0.188   0.192
  0.259   0.286   0.296   0.311   0.314   0.500   0.514   0.533
  0.544   0.545   0.556   0.567   0.580   0.581   0.589   0.638
  0.723   0.734   0.748   0.812   0.854   0.858   0.882   0.885
  0.928   0.945   0.948   1.248   1.297   1.354   1.358   1.535
  1.676   1.687   1.798   1.819   1.863   1.893   1.978   2.048
  2.052   2.077   2.107   2.121   2.138   2.283   2.294   2.378
  2.387   2.484   2.543   2.589   2.679   2.730   2.768   2.841
  2.870   2.912   2.968   3.155   3.206   3.350   3.426   3.427
  3.455   3.533   4.187   4.490   4.563   4.648   4.656   4.656
  4.681   4.682   6.205  90.122
 
 Beta MOs
 -- Occupied --
******* -62.556 -56.376 -56.373 -56.373 -10.176 -10.176 -10.170
 -8.741  -6.570  -6.557  -6.557  -2.664  -2.661  -2.660  -2.649
 -2.649  -0.758  -0.753  -0.683  -0.544  -0.441  -0.406  -0.397
 -0.374  -0.346  -0.338  -0.309  -0.309
 -- Virtual --
 -0.236  -0.026   0.109   0.132   0.149   0.173   0.184   0.187
  0.192   0.199   0.270   0.303   0.315   0.315   0.319   0.501
  0.517   0.576   0.588   0.589   0.590   0.591   0.593   0.594
  0.595   0.670   0.732   0.745   0.749   0.828   0.859   0.863
  0.886   0.895   0.933   0.949   0.956   1.261   1.306   1.361
  1.381   1.535   1.692   1.695   1.822   1.829   1.890   1.914
  2.003   2.053   2.058   2.082   2.112   2.124   2.146   2.286
  2.313   2.389   2.391   2.504   2.560   2.600   2.683   2.734
  2.773   2.847   2.877   2.919   2.973   3.159   3.211   3.357
  3.428   3.431   3.460   3.539   4.209   4.489   4.575   4.667
  4.671   4.671   4.684   4.684   6.221  90.128
 --------------------------------------------------------------
 
          Ground-State Mulliken Net Atomic Charges

     Atom                 Charge (a.u.)    Spin (a.u.)
  --------------------------------------------------------
      1 Br                    0.000034       1.000030
      2 C                    -0.071806       1.019493
      3 C                    -0.333312      -0.080237
      4 C                    -0.333314      -0.080236
      5 H                     0.089241      -0.046644
      6 H                     0.108559       0.007100
      7 H                     0.108754       0.062994
      8 H                     0.107258       0.023706
      9 H                     0.108577       0.007104
     10 H                     0.108751       0.062994
     11 H                     0.107255       0.023697
  --------------------------------------------------------
  Sum of atomic charges =     0.000000
  Sum of spin   charges =     2.000000

 -----------------------------------------------------------------
                    Cartesian Multipole Moments
 -----------------------------------------------------------------
    Charge (ESU x 10^10)
                -0.0000
    Dipole Moment (Debye)
         X      -0.1745      Y       0.0002      Z       0.0671
       Tot       0.1870
    Quadrupole Moments (Debye-Ang)
        XX     -39.4144     XY       0.0099     YY     -36.4002
        XZ       0.4569     YZ       0.0147     ZZ     -39.6172
    Octopole Moments (Debye-Ang^2)
       XXX    -219.5952    XXY       0.1176    XYY     -58.2742
       YYY       0.0467    XXZ     -13.2806    XYZ       0.0817
       YYZ     -10.7673    XZZ     -73.1719    YZZ       0.0425
       ZZZ     -41.0997
    Hexadecapole Moments (Debye-Ang^3)
      XXXX   -3029.9441   XXXY       1.1149   XXYY    -472.3912
      XYYY       0.3265   YYYY    -221.0141   XXXZ    -237.2778
      XXYZ       0.4741   XYYZ     -67.4493   YYYZ       0.0720
      XXZZ    -527.5359   XYZZ       0.2497   YYZZ     -59.1443
      XZZZ    -232.3414   YZZZ       0.1086   ZZZZ    -137.9716
 -----------------------------------------------------------------
 Calculating analytic gradient of the SCF energy
 Gradient of SCF Energy
            1           2           3           4           5           6
    1  -0.0000954   0.0000053   0.0000206   0.0000202   0.0000646  -0.0000104
    2  -0.0000006  -0.0000009   0.0000003  -0.0000004   0.0000012  -0.0000040
    3  -0.0000784   0.0001286  -0.0000372  -0.0000367  -0.0000262   0.0000176
            7           8           9          10          11
    1  -0.0000029   0.0000053  -0.0000101  -0.0000027   0.0000055
    2   0.0000091  -0.0000040   0.0000040  -0.0000088   0.0000041
    3   0.0000039   0.0000036   0.0000175   0.0000038   0.0000036
 Max gradient component =       1.286E-04
 RMS gradient           =       3.543E-05
 Gradient time:  CPU 8.07 s  wall 0.68 s
 Geometry Optimization Parameters
   NAtoms,    NIC,     NZ,  NCons,   NDum,   NFix, NCnnct, MaxDiis
       11      62       0       1       0       0       0       0

 Cartesian Hessian Update
 Hessian Updated using BFGS Update


** CONSTRAINED OPTIMIZATION IN DELOCALIZED INTERNAL COORDINATES **
   Searching for a Minimum

   Optimization Cycle:   5

                       Coordinates (Angstroms)
     ATOM                X               Y               Z
      1  Br        4.9924440829   -0.0012933370    0.7913325365
      2  C        -0.5774509851    0.0001935415    0.2114435836
      3  C        -1.1889841067   -1.2988870432   -0.1940173470
      4  C        -1.1885445530    1.2994467055   -0.1941303737
      5  H         0.1756557892    0.0001111768    0.9951603207
      6  H        -0.5148761159   -2.1430042597   -0.0170785771
      7  H        -2.1206434016   -1.5124651524    0.3604268793
      8  H        -1.4636874882   -1.3001766214   -1.2576844700
      9  H        -0.5140807233    2.1433266336   -0.0174147721
     10  H        -2.1200383575    1.5134651373    0.3604203802
     11  H        -1.4633941408    1.3006812189   -1.2577581603
   Point Group: c1    Number of degrees of freedom:    27


   Energy is  -2692.328017158

              Constraints and their Current Values
                                        Value     Constraint
   Distance(Angs):        1   2             5.600000     5.600000
 Hessian Updated using BFGS Update

 23 Hessian modes will be used to form the next step
  Hessian Eigenvalues:
     0.022812    0.045000    0.045000    0.045205    0.054353    0.092057
     0.092073    0.092871    0.092872    0.156818    0.159835    0.160015
     0.160110    0.216859    0.331319    0.331328    0.332455    0.332553
     0.338351    0.338360    0.342810    0.342921    0.476514

 Minimum Search - Taking Simple RFO Step
 Searching for Lamda that Minimizes Along All modes
 Value Taken    Lamda =   0.00000000
 Step Taken.  Stepsize is  0.005763

                             Maximum     Tolerance    Cnvgd?
         Gradient           0.000114      0.000300     YES
         Displacement       0.003207      0.001200      NO
         Energy change     -0.000001      0.000001     YES


                       Distance Matrix (Angstroms)
             Br(  1)   C (  2)   C (  3)   C (  4)   H (  5)   H (  6)
   C (  2)  5.600000
   C (  3)  6.392552  1.491972
   C (  4)  6.392784  1.491973  2.598334
   H (  5)  4.821099  1.086914  2.227955  2.227942
   H (  6)  5.964145  2.156255  1.094652  3.512214  2.468685
   H (  7)  7.284596  2.166051  1.104995  3.013833  2.822014  1.765950
   H (  8)  6.896898  2.152839  1.098568  2.822214  3.074655  1.774741
   H (  9)  5.964502  2.156249  3.512196  1.094652  2.468687  4.286331
   H ( 10)  7.284750  2.166047  3.013899  1.104994  2.821940  4.011087
   H ( 11)  6.897228  2.152839  2.822162  1.098566  3.074672  3.781262
             H (  7)   H (  8)   H (  9)   H ( 10)
   H (  8)  1.759245
   H (  9)  4.011062  3.781235
   H ( 10)  3.025930  3.311441  1.765952
   H ( 11)  3.311237  2.600858  1.774739  1.759250
 
 Final energy is   -2692.32801715843     


 ******************************
 **  OPTIMIZATION CONVERGED  **
 ******************************

                       Coordinates (Angstroms)
     ATOM                X               Y               Z
      1  Br        4.9924440829   -0.0012933370    0.7913325365
      2  C        -0.5774509851    0.0001935415    0.2114435836
      3  C        -1.1889841067   -1.2988870432   -0.1940173470
      4  C        -1.1885445530    1.2994467055   -0.1941303737
      5  H         0.1756557892    0.0001111768    0.9951603207
      6  H        -0.5148761159   -2.1430042597   -0.0170785771
      7  H        -2.1206434016   -1.5124651524    0.3604268793
      8  H        -1.4636874882   -1.3001766214   -1.2576844700
      9  H        -0.5140807233    2.1433266336   -0.0174147721
     10  H        -2.1200383575    1.5134651373    0.3604203802
     11  H        -1.4633941408    1.3006812189   -1.2577581603

Z-matrix Print:
$molecule
0 3
Br
H  1 4.821099
C  2 1.086914 1 131.435862
C  3 1.491972 2 118.678129 1 97.002982 0
H  4 1.094652 3 112.029942 2 -27.205648 0
H  4 1.098568 3 111.508768 2 -148.432752 0
H  4 1.104995 3 112.180250 2 92.908219 0
C  3 1.491973 2 118.676965 1 -97.022332 0
H  8 1.094652 3 112.029423 2 27.214911 0
H  8 1.098566 3 111.508845 2 148.441657 0
H  8 1.104994 3 112.179970 2 -92.898656 0
$end

PES scan, value:    5.6000 energy: -2692.3280171584
------- Summary of potential scan: ------ 
    5.6000     -2692.3280171584
----------------------------------------- 
Archival summary:
1\1\hpc0242\JobtypUnspecified\ProcedureUnspecified\6-31G**\r137(3)\knomura\WedMar1315:08:032019WedMar1315:08:032019\0\\#,JobtypUnspecified,ProcedureUnspecified,6-31G**,\\0,3\Br\H,1,4.8211\C,2,1.08691,1,131.436\C,3,1.49197,2,118.678,1,97.003,0\H,4,1.09465,3,112.03,2,-27.2056,0\H,4,1.09857,3,111.509,2,-148.433,0\H,4,1.10499,3,112.18,2,92.9082,0\C,3,1.49197,2,118.677,1,-97.0223,0\H,8,1.09465,3,112.029,2,27.2149,0\H,8,1.09857,3,111.509,2,148.442,0\H,8,1.10499,3,112.18,2,-92.8987,0\\\@

 Total job time:  15.68s(wall), 180.12s(cpu) 
 Wed Mar 13 15:08:03 2019

        *************************************************************
        *                                                           *
        *  Thank you very much for using Q-Chem.  Have a nice day.  *
        *                                                           *
        *************************************************************


