
Running Job 1 of 1 halogens/Bromine/01/Br_2.xyz.data/inputs/bond_singlet_2.5.in
qchem halogens/Bromine/01/Br_2.xyz.data/inputs/bond_singlet_2.5.in_20382.0 /staging/scratch/2868759/qchem20382/ 1
/usr/usc/qchem/5.1.1/exe/qcprog.exe_s halogens/Bromine/01/Br_2.xyz.data/inputs/bond_singlet_2.5.in_20382.0 /staging/scratch/2868759/qchem20382/
Check license passed

                  Welcome to Q-Chem
     A Quantum Leap Into The Future Of Chemistry


 Q-Chem 5.1, Q-Chem, Inc., Pleasanton, CA (2018)

 Yihan Shao,  Zhengting Gan,  E. Epifanovsky,  A. T. B. Gilbert,  M. Wormit,  
 J. Kussmann,  A. W. Lange,  A. Behn,  Jia Deng,  Xintian Feng,  D. Ghosh,  
 M. Goldey,  P. R. Horn,  L. D. Jacobson,  I. Kaliman,  T. Kus,  A. Landau,  
 Jie Liu,  E. I. Proynov,  R. M. Richard,  R. P. Steele,  E. J. Sundstrom,  
 H. L. Woodcock III,  P. M. Zimmerman,  D. Zuev,  B. Albrecht,  E. Alguire,  
 S. A. Baeppler,  D. Barton,  Z. Benda,  Y. A. Bernard,  E. J. Berquist,  
 K. B. Bravaya,  H. Burton,  D. Casanova,  Chun-Min Chang,  Yunqing Chen,  
 A. Chien,  K. D. Closser,  M. P. Coons,  S. Coriani,  S. Dasgupta,  
 A. L. Dempwolff,  M. Diedenhofen,  Hainam Do,  R. G. Edgar,  Po-Tung Fang,  
 S. Faraji,  S. Fatehi,  Qingguo Feng,  K. D. Fenk,  J. Fosso-Tande,  
 Qinghui Ge,  A. Ghysels,  G. Gidofalvi,  J. Gomes,  J. Gonthier,  A. Gunina,  
 D. Hait,  M. W. D. Hanson-Heine,  P. H. P. Harbach,  A. W. Hauser,  
 J. E. Herr,  E. G. Hohenstein,  Z. C. Holden,  Kerwin Hui,  B. C. Huynh,  
 T.-C. Jagau,  Hyunjun Ji,  B. Kaduk,  K. Khistyaev,  Jaehoon Kim,  
 P. Klunzinger,  K. Koh,  D. Kosenkov,  L. Koulias,  T. Kowalczyk,  
 C. M. Krauter,  A. Kunitsa,  Ka Un Lao,  A. Laurent,  K. V. Lawler,  
 Joonho Lee,  D. Lefrancois,  S. Lehtola,  D. S. Levine,  Yi-Pei Li,  
 You-Sheng Lin,  Fenglai Liu,  E. Livshits,  A. Luenser,  P. Manohar,  
 E. Mansoor,  S. F. Manzer,  Shan-Ping Mao,  Yuezhi Mao,  N. Mardirossian,  
 A. V. Marenich,  T. Markovich,  L. A. Martinez-Martinez,  S. A. Maurer,  
 N. J. Mayhall,  S. C. McKenzie,  J.-M. Mewes,  A. F. Morrison,  
 J. W. Mullinax,  K. Nanda,  T. S. Nguyen-Beck,  R. Olivares-Amaya,  
 J. A. Parkhill,  T. M. Perrine,  F. Plasser,  P. Pokhilko,  S. Prager,  
 A. Prociuk,  E. Ramos,  D. R. Rehn,  F. Rob,  M. Schneider,  N. Sergueev,  
 S. M. Sharada,  S. Sharma,  D. W. Small,  T. Stauch,  T. Stein,  
 Yu-Chuan Su,  A. J. W. Thom,  A. Tkatchenko,  T. Tsuchimochi,  N. M. Tubman,  
 L. Vogt,  M. L. Vidal,  O. Vydrov,  M. A. Watson,  J. Wenzel,  
 M. de Wergifosse,  T. A. Wesolowski,  A. White,  J. Witte,  A. Yamada,  
 Jun Yang,  K. Yao,  S. Yeganeh,  S. R. Yost,  Zhi-Qiang You,  A. Zech,  
 Igor Ying Zhang,  Xing Zhang,  Yan Zhao,  Ying Zhu,  B. R. Brooks,  
 G. K. L. Chan,  C. J. Cramer,  M. S. Gordon,  W. J. Hehre,  A. Klamt,  
 M. W. Schmidt,  C. D. Sherrill,  D. G. Truhlar,  A. Aspuru-Guzik,  R. Baer,  
 A. T. Bell,  N. A. Besley,  Jeng-Da Chai,  A. E. DePrince, III,  
 R. A. DiStasio Jr.,  A. Dreuw,  B. D. Dunietz,  T. R. Furlani,  
 Chao-Ping Hsu,  Yousung Jung,  Jing Kong,  D. S. Lambrecht,  WanZhen Liang,  
 C. Ochsenfeld,  V. A. Rassolov,  L. V. Slipchenko,  J. E. Subotnik,  
 T. Van Voorhis,  J. M. Herbert,  A. I. Krylov,  P. M. W. Gill,  M. Head-Gordon

 Contributors to earlier versions of Q-Chem not listed above: 
 R. D. Adamson,  B. Austin,  J. Baker,  G. J. O. Beran,  K. Brandhorst,  
 S. T. Brown,  E. F. C. Byrd,  A. K. Chakraborty,  C.-L. Cheng,  
 Siu Hung Chien,  D. M. Chipman,  D. L. Crittenden,  H. Dachsel,  
 R. J. Doerksen,  A. D. Dutoi,  L. Fusti-Molnar,  W. A. Goddard III,  
 A. Golubeva-Zadorozhnaya,  S. R. Gwaltney,  G. Hawkins,  A. Heyden,  
 S. Hirata,  G. Kedziora,  F. J. Keil,  C. Kelley,  Jihan Kim,  R. A. King,  
 R. Z. Khaliullin,  P. P. Korambath,  W. Kurlancheek,  A. M. Lee,  M. S. Lee,  
 S. V. Levchenko,  Ching Yeh Lin,  D. Liotard,  R. C. Lochan,  I. Lotan,  
 P. E. Maslen,  N. Nair,  D. P. O'Neill,  D. Neuhauser,  E. Neuscamman,  
 C. M. Oana,  R. Olson,  B. Peters,  R. Peverati,  P. A. Pieniazek,  
 Y. M. Rhee,  J. Ritchie,  M. A. Rohrdanz,  E. Rosta,  N. J. Russ,  
 H. F. Schaefer III,  N. E. Schultz,  N. Shenvi,  A. C. Simmonett,  A. Sodt,  
 D. Stuck,  K. S. Thanthiriwatte,  V. Vanovschi,  Tao Wang,  A. Warshel,  
 C. F. Williams,  Q. Wu,  X. Xu,  W. Zhang

 Please cite Q-Chem as follows:
 Y. Shao et al., Mol. Phys. 113, 184-215 (2015)
 DOI: 10.1080/00268976.2014.952696

 Q-Chem 5.1.1 for Intel X86 EM64T Linux

 Parts of Q-Chem use Armadillo 8.300.2 (Tropical Shenanigans).
 http://arma.sourceforge.net/

 Q-Chem begins on Wed Mar 13 14:11:08 2019  

Host: 
0

     Scratch files written to /staging/scratch/2868759/qchem20382//
 Aug318 |scratch|qcdevops|jenkins|workspace|build_RNUM 6013   
Processing $rem in /usr/usc/qchem/5.1.1/config/preferences.
 MEM_TOTAL  2000 
Input Ideriv = 2
Curr. Ideriv = -1
Max.  Ideriv = 2

Checking the input file for inconsistencies... 	...done.

--------------------------------------------------------------
User input:
--------------------------------------------------------------

$comment
potential surface scanner
$end

$rem
JOBTYPE  PES_SCAN
UNRESTRICTED TRUE
SYM_IGNORE  TRUE
GEOM_OPT_MAX_CYCLES 400
SCF_MAX_CYCLES 400
METHOD   B3LYP
BASIS   6-31G**
PDB_PRINT 2
SCF_CONVERGENCE 6
THRESH 14
SCF_PRINT 1
$end
$molecule
0 1
Br 2.036720 -0.000523 -0.106667
C -0.306423 0.000072 0.412641
C -0.826587 -1.287061 -0.150428
C -0.825931 1.287455 -0.150452
H -0.156618 0.000046 1.489487
H -0.298684 -2.152225 0.252871
H -1.887949 -1.371775 0.131372
H -0.766977 -1.305008 -1.241145
H -0.297541 2.152348 0.252789
H -1.887232 1.372740 0.131406
H -0.766377 1.305332 -1.241173
$end
$scan
stre 1 2 2.500000 2.501000 0.100000
$end
--------------------------------------------------------------
 ----------------------------------------------------------------
             Standard Nuclear Orientation (Angstroms)
    I     Atom           X                Y                Z
 ----------------------------------------------------------------
    1      Br      2.0367200000    -0.0005230000    -0.1066670000
    2      C      -0.3064230000     0.0000720000     0.4126410000
    3      C      -0.8265870000    -1.2870610000    -0.1504280000
    4      C      -0.8259310000     1.2874550000    -0.1504520000
    5      H      -0.1566180000     0.0000460000     1.4894870000
    6      H      -0.2986840000    -2.1522250000     0.2528710000
    7      H      -1.8879490000    -1.3717750000     0.1313720000
    8      H      -0.7669770000    -1.3050080000    -1.2411450000
    9      H      -0.2975410000     2.1523480000     0.2527890000
   10      H      -1.8872320000     1.3727400000     0.1314060000
   11      H      -0.7663770000     1.3053320000    -1.2411730000
 ----------------------------------------------------------------
 Nuclear Repulsion Energy =   231.2462518267 hartrees
 There are       30 alpha and       30 beta electrons
 Requested basis set is 6-31G(d,p)
 There are 41 shells and 115 basis functions

 Total QAlloc Memory Limit   2000 MB
 Mega-Array Size       188 MB
 MEM_STATIC part       192 MB
A total of 1 constraints
  
            1
    1   1.0100000
    2   1.0100000
    3   2.0100000
    4   2.5000000
    5   2.5010000
    6   0.1000000
    7   0.0000000
    8   0.0000000
    9   0.0000000
   10   0.0000000

                       Distance Matrix (Angstroms)
             Br(  1)   C (  2)   C (  3)   C (  4)   H (  5)   H (  6)
   C (  2)  2.400000
   C (  3)  3.139367  1.498108
   C (  4)  3.139359  1.498105  2.574516
   H (  5)  2.712644  1.087216  2.189709  2.189704
   H (  6)  3.195810  2.158233  1.090798  3.503150  2.486297
   H (  7)  4.164135  2.112416  1.101398  2.877292  2.593044  1.774719
   H (  8)  3.293849  2.156467  1.092492  2.813175  3.087403  1.780213
   H (  9)  3.195753  2.158222  3.503143  1.090798  2.486299  4.304573
   H ( 10)  4.164124  2.112408  2.877315  1.101398  2.593009  3.868283
   H ( 11)  3.293890  2.156470  2.813157  1.092492  3.087407  3.795472
             H (  7)   H (  8)   H (  9)   H ( 10)
   H (  8)  1.773369
   H (  9)  3.868279  3.795460
   H ( 10)  2.744515  3.210795  1.774722
   H ( 11)  3.210717  2.610340  1.780215  1.773368
 
 A cutoff of  1.0D-14 yielded    820 shell pairs
 There are      6564 function pairs
 
 -------------------------------------------------------
 OpenMP Integral Computing Module                       
 Release: version 1.0, May 2013, Q-Chem Inc. Pittsburgh 
 -------------------------------------------------------
 Integral Job Info:
 Integral job number is                      11
 Integral operator is                         1
 short-range coefficients                     0
 long-range coefficients              100000000
 Omega coefficients                           0
 if combine SR and LR in K                    0
 Integral screening is                        0
 Integral computing path is                   2
 max size of driver memory is            800000
 size of driver memory is                593474
 size of scratch memory is             15267112
 max col of scratch BK array               1296
 max len of scratch array in speh3          155
 max len of scratch index in speh4           18
 max int batch size is                      520
 min int batch size is                       52
 fixed nKL is                                52
 max L of basis functions is                  2
 order of int derivative is                   0
 number of shells is                         41
 number of basis is                         115
 number of cartesian basis is               115
 number of contracted shell pairs           820
 number of primitive shell pairs           3190
 maxK2 (contraction) of shell pair           36
 max number of K2 of shell pair               1
 max number of CS2 of shell pair             59
 max number of PS2 of shell pair            258
 mem total for path MDJ                  519708
 -------------------------------------------------------
 Smallest overlap matrix eigenvalue = 7.24E-04

 Scale SEOQF with 1.000000e-01/1.000000e-01/1.000000e+00

 Standard Electronic Orientation quadrupole field applied
 Nucleus-field energy     =     0.0000000007 hartrees
 Guess from superposition of atomic densities
 Warning:  Energy on first SCF cycle will be non-variational
 SAD guess density has 59.972873 electrons

 -----------------------------------------------------------------------
  General SCF calculation program by
  Eric Jon Sundstrom, Paul Horn, Yuezhi Mao, Dmitri Zuev, Alec White,
  David Stuck, Shaama M.S., Shane Yost, Joonho Lee, David Small,
  Daniel Levine, Susi Lehtola, Hugh Burton, Evgeny Epifanovsky
 -----------------------------------------------------------------------
 Exchange:     0.2000 Hartree-Fock + 0.0800 Slater + 0.7200 B88
 Correlation:  0.1900 VWN1RPA + 0.8100 LYP
 Using SG-1 standard quadrature grid
 using 12 threads for integral computing
 -------------------------------------------------------
 OpenMP Integral computing Module                
 Release: version 1.0, May 2013, Q-Chem Inc. Pittsburgh 
 -------------------------------------------------------
 -------------------------------------------------------
 OpenMP BLAS3 based DFT computing Module                
 Release: version 1.0, May 2013, Q-Chem Inc. Pittsburgh 
 -------------------------------------------------------
 A unrestricted SCF calculation will be
 performed using DIIS
 SCF converges when DIIS error is below 1.0e-06
 Alpha HF Exchange    Energy = -10.72955695591673
 Beta HF Exchange     Energy = -10.72955695591673
 DFT Correlation      Energy =  -3.11786137529625
 DFT Exchange         Energy = -85.00493593669188
 One-Electron (alpha) Energy = -2097.82929182432508
 One-Electron (beta)  Energy = -2097.82929182432508
 Total Coulomb        Energy = 1378.20470010753866
 ---------------------------------------
  Cycle       Energy         DIIS error
 ---------------------------------------
    1   -2695.7895429375      1.64e-01  
 Alpha HF Exchange    Energy = -10.80014426021148
 Beta HF Exchange     Energy = -10.80014426021146
 DFT Correlation      Energy =  -3.15853219381449
 DFT Exchange         Energy = -85.92268769199148
 One-Electron (alpha) Energy = -2106.05437711840068
 One-Electron (beta)  Energy = -2106.05437711839886
 Total Coulomb        Energy = 1399.26435856665262
    2   -2692.2796522490      9.77e-03  
 Alpha HF Exchange    Energy = -10.69097502545528
 Beta HF Exchange     Energy = -10.69097502545529
 DFT Correlation      Energy =  -3.12631529475085
 DFT Exchange         Energy = -85.06806141179175
 One-Electron (alpha) Energy = -2093.21807482718123
 One-Electron (beta)  Energy = -2093.21807482718350
 Total Coulomb        Energy = 1372.57700807344895
    3   -2692.1892165110      6.12e-03  
 Alpha HF Exchange    Energy = -10.77235147991649
 Beta HF Exchange     Energy = -10.77235147991647
 DFT Correlation      Energy =  -3.14542783772029
 DFT Exchange         Energy = -85.67892374409055
 One-Electron (alpha) Energy = -2103.75036820713876
 One-Electron (beta)  Energy = -2103.75036820713558
 Total Coulomb        Energy = 1394.31570732668865
    4   -2692.3078318018      4.06e-03  
 Alpha HF Exchange    Energy = -10.75194284725748
 Beta HF Exchange     Energy = -10.75194284725750
 DFT Correlation      Energy =  -3.14567528901896
 DFT Exchange         Energy = -85.55118010067616
 One-Electron (alpha) Energy = -2100.71710321938781
 One-Electron (beta)  Energy = -2100.71710321939008
 Total Coulomb        Energy = 1387.98023785103715
    5   -2692.4084578446      1.35e-03  
 Alpha HF Exchange    Energy = -10.74502729628845
 Beta HF Exchange     Energy = -10.74502729628845
 DFT Correlation      Energy =  -3.14160533778802
 DFT Exchange         Energy = -85.48701313042983
 One-Electron (alpha) Energy = -2100.37845175281791
 One-Electron (beta)  Energy = -2100.37845175281882
 Total Coulomb        Energy = 1387.20760030592783
    6   -2692.4217244331      1.54e-04  
 Alpha HF Exchange    Energy = -10.74494742243194
 Beta HF Exchange     Energy = -10.74494742243196
 DFT Correlation      Energy =  -3.14165163340913
 DFT Exchange         Energy = -85.48748954169153
 One-Electron (alpha) Energy = -2100.24765416788341
 One-Electron (beta)  Energy = -2100.24765416788341
 Total Coulomb        Energy = 1386.94618871123362
    7   -2692.4219038171      6.45e-05  
 Alpha HF Exchange    Energy = -10.74535097143060
 Beta HF Exchange     Energy = -10.74535097143056
 DFT Correlation      Energy =  -3.14175689884352
 DFT Exchange         Energy = -85.49040408053384
 One-Electron (alpha) Energy = -2100.33148092743295
 One-Electron (beta)  Energy = -2100.33148092742977
 Total Coulomb        Energy = 1387.11762467764129
    8   -2692.4219482721      1.32e-05  
 Alpha HF Exchange    Energy = -10.74531947480865
 Beta HF Exchange     Energy = -10.74531947480864
 DFT Correlation      Energy =  -3.14175879541353
 DFT Exchange         Energy = -85.49014210557664
 One-Electron (alpha) Energy = -2100.32512015581278
 One-Electron (beta)  Energy = -2100.32512015581005
 Total Coulomb        Energy = 1387.10457913184473
    9   -2692.4219492030      1.65e-06  
 Alpha HF Exchange    Energy = -10.74532692622864
 Beta HF Exchange     Energy = -10.74532692622864
 DFT Correlation      Energy =  -3.14175913509961
 DFT Exchange         Energy = -85.49019228804002
 One-Electron (alpha) Energy = -2100.32665268772644
 One-Electron (beta)  Energy = -2100.32665268772644
 Total Coulomb        Energy = 1387.10770960315926
   10   -2692.4219492205      2.41e-07  Convergence criterion met
 ---------------------------------------
 SCF time:   CPU 29.90s  wall 2.00s 
<S^2> =         -0.000000000
 Alpha HF Exchange    Energy = -10.74532692622864
 Beta HF Exchange     Energy = -10.74532692622864
 DFT Correlation      Energy =  -3.14175913509961
 DFT Exchange         Energy = -85.49019228804002
 One-Electron (alpha) Energy = -2100.32665268772644
 One-Electron (beta)  Energy = -2100.32665268772644
 Total Coulomb        Energy = 1387.10770960315926
 Nuclear repulsion Energy = 231.24625182739081
 SCF   energy in the final basis set =    -2692.4219492205
 Total energy in the final basis set =    -2692.4219492205
 
 --------------------------------------------------------------
 
                    Orbital Energies (a.u.)
 --------------------------------------------------------------
 
 Alpha MOs
 -- Occupied --
******* -62.477 -56.298 -56.295 -56.295 -10.280 -10.208 -10.208
 -8.663  -6.492  -6.481  -6.481  -2.585  -2.582  -2.582  -2.574
 -2.574  -0.825  -0.721  -0.712  -0.600  -0.486  -0.460  -0.439
 -0.415  -0.385  -0.381  -0.296  -0.256  -0.255
 -- Virtual --
 -0.076   0.077   0.114   0.131   0.143   0.151   0.162   0.171
  0.206   0.246   0.246   0.359   0.370   0.373   0.460   0.473
  0.507   0.527   0.540   0.614   0.626   0.642   0.678   0.695
  0.724   0.731   0.775   0.783   0.850   0.851   0.863   0.878
  0.897   0.927   0.934   1.064   1.271   1.339   1.340   1.387
  1.512   1.651   1.756   1.815   1.844   1.867   1.869   2.001
  2.017   2.020   2.048   2.075   2.080   2.086   2.227   2.258
  2.331   2.370   2.490   2.553   2.603   2.643   2.677   2.718
  2.841   2.850   2.875   2.901   3.152   3.197   3.318   3.394
  3.434   3.444   3.454   4.213   4.454   4.565   4.760   4.763
  4.792   4.799   4.921   6.323  90.329
 
 Beta MOs
 -- Occupied --
******* -62.477 -56.298 -56.295 -56.295 -10.280 -10.208 -10.208
 -8.663  -6.492  -6.481  -6.481  -2.585  -2.582  -2.582  -2.574
 -2.574  -0.825  -0.721  -0.712  -0.600  -0.486  -0.460  -0.439
 -0.415  -0.385  -0.381  -0.296  -0.256  -0.255
 -- Virtual --
 -0.076   0.077   0.114   0.131   0.143   0.151   0.162   0.171
  0.206   0.246   0.246   0.359   0.370   0.373   0.460   0.473
  0.507   0.527   0.540   0.614   0.626   0.642   0.678   0.695
  0.724   0.731   0.775   0.783   0.850   0.851   0.863   0.878
  0.897   0.927   0.934   1.064   1.271   1.339   1.340   1.387
  1.512   1.651   1.756   1.815   1.844   1.867   1.869   2.001
  2.017   2.020   2.048   2.075   2.080   2.086   2.227   2.258
  2.331   2.370   2.490   2.553   2.603   2.643   2.677   2.718
  2.841   2.850   2.875   2.901   3.152   3.197   3.318   3.394
  3.434   3.444   3.454   4.213   4.454   4.565   4.760   4.763
  4.792   4.799   4.921   6.323  90.329
 --------------------------------------------------------------
 
          Ground-State Mulliken Net Atomic Charges

     Atom                 Charge (a.u.)    Spin (a.u.)
  --------------------------------------------------------
      1 Br                   -0.303813      -0.000000
      2 C                    -0.058352      -0.000000
      3 C                    -0.317851      -0.000000
      4 C                    -0.317849       0.000000
      5 H                     0.164131      -0.000000
      6 H                     0.149288      -0.000000
      7 H                     0.123778      -0.000000
      8 H                     0.143802       0.000000
      9 H                     0.149290      -0.000000
     10 H                     0.123778       0.000000
     11 H                     0.143799      -0.000000
  --------------------------------------------------------
  Sum of atomic charges =    -0.000000
  Sum of spin   charges =    -0.000000

 -----------------------------------------------------------------
                    Cartesian Multipole Moments
 -----------------------------------------------------------------
    Charge (ESU x 10^10)
                -0.0000
    Dipole Moment (Debye)
         X      -4.2304      Y       0.0011      Z       0.5794
       Tot       4.2699
    Quadrupole Moments (Debye-Ang)
        XX     -43.7252     XY       0.0016     YY     -37.4245
        XZ      -0.0352     YZ       0.0000     ZZ     -38.2569
    Octopole Moments (Debye-Ang^2)
       XXX     -82.0275    XXY       0.0077    XYY     -26.5664
       YYY       0.0211    XXZ       1.0112    XYZ       0.0003
       YYZ       2.2166    XZZ     -26.1688    YZZ       0.0069
       ZZZ       5.5267
    Hexadecapole Moments (Debye-Ang^3)
      XXXX    -589.2080   XXXY       0.0441   XXYY    -138.7947
      XYYY       0.0533   YYYY    -208.1487   XXXZ       0.7620
      XXYZ       0.0017   XYYZ       3.1996   YYYZ      -0.0021
      XXZZ    -115.7487   XYZZ       0.0171   YYZZ     -48.3343
      XZZZ       9.5026   YZZZ      -0.0018   ZZZZ     -70.0527
 -----------------------------------------------------------------
 Calculating analytic gradient of the SCF energy
 Gradient of SCF Energy
            1           2           3           4           5           6
    1   0.0336259  -0.0336791   0.0000422   0.0000426   0.0000852  -0.0000138
    2  -0.0000085   0.0000093   0.0000069  -0.0000080  -0.0000001  -0.0000006
    3  -0.0075912   0.0074935  -0.0000155  -0.0000155  -0.0000155   0.0000245
            7           8           9          10          11
    1  -0.0000053  -0.0000392  -0.0000137  -0.0000056  -0.0000393
    2  -0.0000076  -0.0000034   0.0000008   0.0000075   0.0000036
    3   0.0000359   0.0000115   0.0000247   0.0000360   0.0000117
 Max gradient component =       3.368E-02
 RMS gradient           =       8.490E-03
 Gradient time:  CPU 11.06 s  wall 0.98 s
 Geometry Optimization Parameters
   NAtoms,    NIC,     NZ,  NCons,   NDum,   NFix, NCnnct, MaxDiis
       11      68       0       1       0       0       0       0


** CONSTRAINED OPTIMIZATION IN DELOCALIZED INTERNAL COORDINATES **
   Searching for a Minimum

   Optimization Cycle:   1

                       Coordinates (Angstroms)
     ATOM                X               Y               Z
      1  Br        2.0367200000   -0.0005230000   -0.1066670000
      2  C        -0.3064230000    0.0000720000    0.4126410000
      3  C        -0.8265870000   -1.2870610000   -0.1504280000
      4  C        -0.8259310000    1.2874550000   -0.1504520000
      5  H        -0.1566180000    0.0000460000    1.4894870000
      6  H        -0.2986840000   -2.1522250000    0.2528710000
      7  H        -1.8879490000   -1.3717750000    0.1313720000
      8  H        -0.7669770000   -1.3050080000   -1.2411450000
      9  H        -0.2975410000    2.1523480000    0.2527890000
     10  H        -1.8872320000    1.3727400000    0.1314060000
     11  H        -0.7663770000    1.3053320000   -1.2411730000
   Point Group: c1    Number of degrees of freedom:    27


   Energy is  -2692.421949221

              Constraints and their Current Values
                                        Value     Constraint
   Distance(Angs):        1   2             2.400000     2.500000

 Attempting to Generate Delocalized Internal Coordinates

   Using Lagrange Multiplier Algorithm


 28 Hessian modes will be used to form the next step
  Hessian Eigenvalues:
    -0.968815    0.045000    0.045000    0.064011    0.081560    0.081560
     0.083246    0.085517    0.085518    0.131486    0.160000    0.160000
     0.160000    0.160000    0.160000    0.160000    0.183630    0.225888
     0.325766    0.325770    0.335280    0.335280    0.345262    0.345262
     0.347206    0.347206    0.351363    1.032188

 Minimum Search - Taking P-RFO Step
 Searching for Lamda that Maximizes Along the Constraint modes Only
 Value Taken    Lamda =   0.02564522
 Searching for Lamda that Minimizes Along All other modes
 Value Taken    Lamda =  -0.01092371
 Step Taken.  Stepsize is  0.185241

                             Maximum     Tolerance    Cnvgd?
         Gradient            0.188973       0.000300      NO
         Displacement        0.185237       0.001200      NO
         Energy change     *********       0.000001      NO


 New Cartesian Coordinates Obtained by Inverse Iteration

 Displacement from previous Coordinates is:  0.175521
 ----------------------------------------------------------------
             Standard Nuclear Orientation (Angstroms)
    I     Atom           X                Y                Z
 ----------------------------------------------------------------
    1      Br      2.1242092305    -0.0005455515    -0.1181052811
    2      C      -0.3162296819     0.0000741267     0.4151651431
    3      C      -0.8349671519    -1.2870095962    -0.1493356708
    4      C      -0.8343115405     1.2874083431    -0.1493595502
    5      H      -0.1694361131     0.0000490432     1.4924214448
    6      H      -0.3081091916    -2.1522457312     0.2551680256
    7      H      -1.8970489495    -1.3716167828     0.1297261968
    8      H      -0.7725032708    -1.3048552087    -1.2398988263
    9      H      -0.3069666472     2.1523738044     0.2550857529
   10      H      -1.8963319853     1.3725868458     0.1297607896
   11      H      -0.7719036988     1.3051817072    -1.2399270246
 ----------------------------------------------------------------
 Nuclear Repulsion Energy =   226.5895000524 hartrees
 There are       30 alpha and       30 beta electrons

                       Distance Matrix (Angstroms)
             Br(  1)   C (  2)   C (  3)   C (  4)   H (  5)   H (  6)
   C (  2)  2.498023
   C (  3)  3.226870  1.498110
   C (  4)  3.226863  1.498108  2.574418
   H (  5)  2.802607  1.087212  2.189707  2.189703
   H (  6)  3.268841  2.158274  1.090796  3.503106  2.486443
   H (  7)  4.255793  2.112345  1.101386  2.877102  2.592885  1.774781
   H (  8)  3.369063  2.156447  1.092496  2.812992  3.087400  1.780157
   H (  9)  3.268784  2.158264  3.503099  1.090795  2.486446  4.304620
   H ( 10)  4.255782  2.112338  2.877124  1.101386  2.592850  3.868155
   H ( 11)  3.369106  2.156450  2.812974  1.092496  3.087405  3.795289
             H (  7)   H (  8)   H (  9)   H ( 10)
   H (  8)  1.773396
   H (  9)  3.868150  3.795278
   H ( 10)  2.744204  3.210554  1.774783
   H ( 11)  3.210475  2.610037  1.780158  1.773394
 
 Applying Cartesian multipole field
    Component          Value
    ---------          -----
     (2,0,0)        1.00000E-11
     (0,2,0)        2.00000E-11
     (0,0,2)       -3.00000E-10
 Nucleus-field energy     =     0.0000000011 hartrees
 Requested basis set is 6-31G(d,p)
 There are 41 shells and 115 basis functions
 A cutoff of  1.0D-14 yielded    818 shell pairs
 There are      6528 function pairs
 Smallest overlap matrix eigenvalue = 7.25E-04
 Guess from superposition of atomic densities
 Warning:  Energy on first SCF cycle will be non-variational
 SAD guess density has 59.972873 electrons

 -----------------------------------------------------------------------
  General SCF calculation program by
  Eric Jon Sundstrom, Paul Horn, Yuezhi Mao, Dmitri Zuev, Alec White,
  David Stuck, Shaama M.S., Shane Yost, Joonho Lee, David Small,
  Daniel Levine, Susi Lehtola, Hugh Burton, Evgeny Epifanovsky
 -----------------------------------------------------------------------
 Exchange:     0.2000 Hartree-Fock + 0.0800 Slater + 0.7200 B88
 Correlation:  0.1900 VWN1RPA + 0.8100 LYP
 Using SG-1 standard quadrature grid
 using 12 threads for integral computing
 -------------------------------------------------------
 OpenMP Integral computing Module                
 Release: version 1.0, May 2013, Q-Chem Inc. Pittsburgh 
 -------------------------------------------------------
 -------------------------------------------------------
 OpenMP BLAS3 based DFT computing Module                
 Release: version 1.0, May 2013, Q-Chem Inc. Pittsburgh 
 -------------------------------------------------------
 A unrestricted SCF calculation will be
 performed using DIIS
 SCF converges when DIIS error is below 1.0e-06
 Alpha HF Exchange    Energy = -10.72628173218851
 Beta HF Exchange     Energy = -10.72628173218851
 DFT Correlation      Energy =  -3.11618353246898
 DFT Exchange         Energy = -84.99894831490171
 One-Electron (alpha) Energy = -2093.17749872003697
 One-Electron (beta)  Energy = -2093.17749872003697
 Total Coulomb        Energy = 1373.57880116263732
 ---------------------------------------
  Cycle       Energy         DIIS error
 ---------------------------------------
    1   -2695.7543915357      1.64e-01  
 Alpha HF Exchange    Energy = -10.79981392159222
 Beta HF Exchange     Energy = -10.79981392159222
 DFT Correlation      Energy =  -3.15696823461853
 DFT Exchange         Energy = -85.91913939539455
 One-Electron (alpha) Energy = -2101.64807117536111
 One-Electron (beta)  Energy = -2101.64807117536066
 Total Coulomb        Energy = 1395.11959940447264
    2   -2692.2627783660      9.81e-03  
 Alpha HF Exchange    Energy = -10.68890753520720
 Beta HF Exchange     Energy = -10.68890753520720
 DFT Correlation      Energy =  -3.12499640573001
 DFT Exchange         Energy = -85.05577125292325
 One-Electron (alpha) Energy = -2087.80003913175733
 One-Electron (beta)  Energy = -2087.80003913175688
 Total Coulomb        Energy = 1366.47723493960530
    3   -2692.0919259995      6.91e-03  
 Alpha HF Exchange    Energy = -10.77029641355873
 Beta HF Exchange     Energy = -10.77029641355871
 DFT Correlation      Energy =  -3.14235991828371
 DFT Exchange         Energy = -85.65727170057048
 One-Electron (alpha) Energy = -2099.27411810421745
 One-Electron (beta)  Energy = -2099.27411810421427
 Total Coulomb        Energy = 1390.04351435108924
    4   -2692.2554462498      4.58e-03  
 Alpha HF Exchange    Energy = -10.75148089060639
 Beta HF Exchange     Energy = -10.75148089060638
 DFT Correlation      Energy =  -3.14451785002749
 DFT Exchange         Energy = -85.55156524677309
 One-Electron (alpha) Energy = -2096.25027152157236
 One-Electron (beta)  Energy = -2096.25027152157145
 Total Coulomb        Energy = 1383.70873249542660
    5   -2692.4013553722      1.38e-03  
 Alpha HF Exchange    Energy = -10.74264694791412
 Beta HF Exchange     Energy = -10.74264694791410
 DFT Correlation      Energy =  -3.13963662400789
 DFT Exchange         Energy = -85.47101720409316
 One-Electron (alpha) Energy = -2095.71292249633052
 One-Electron (beta)  Energy = -2095.71292249632916
 Total Coulomb        Energy = 1382.51759512067406
    6   -2692.4146975424      2.40e-04  
 Alpha HF Exchange    Energy = -10.74321596782417
 Beta HF Exchange     Energy = -10.74321596782417
 DFT Correlation      Energy =  -3.13999923076016
 DFT Exchange         Energy = -85.47759153675818
 One-Electron (alpha) Energy = -2095.60075066886702
 One-Electron (beta)  Energy = -2095.60075066886702
 Total Coulomb        Energy = 1382.30091359925768
    7   -2692.4151103882      9.11e-05  
 Alpha HF Exchange    Energy = -10.74369880626067
 Beta HF Exchange     Energy = -10.74369880626067
 DFT Correlation      Energy =  -3.14012528883566
 DFT Exchange         Energy = -85.48092220748181
 One-Electron (alpha) Energy = -2095.70975429867440
 One-Electron (beta)  Energy = -2095.70975429867440
 Total Coulomb        Energy = 1382.52325122193042
    8   -2692.4152024308      1.47e-05  
 Alpha HF Exchange    Energy = -10.74365405531655
 Beta HF Exchange     Energy = -10.74365405531653
 DFT Correlation      Energy =  -3.14012157663579
 DFT Exchange         Energy = -85.48053495470553
 One-Electron (alpha) Energy = -2095.70166617861241
 One-Electron (beta)  Energy = -2095.70166617861014
 Total Coulomb        Energy = 1382.50659331291195
    9   -2692.4152036328      3.51e-06  
 Alpha HF Exchange    Energy = -10.74366763779260
 Beta HF Exchange     Energy = -10.74366763779260
 DFT Correlation      Energy =  -3.14012111962196
 DFT Exchange         Energy = -85.48062175863325
 One-Electron (alpha) Energy = -2095.70487428667775
 One-Electron (beta)  Energy = -2095.70487428667730
 Total Coulomb        Energy = 1382.51312295545131
   10   -2692.4152037183      3.42e-07  Convergence criterion met
 ---------------------------------------
 SCF time:   CPU 28.66s  wall 2.00s 
<S^2> =         -0.000000000
 Alpha HF Exchange    Energy = -10.74366763779260
 Beta HF Exchange     Energy = -10.74366763779260
 DFT Correlation      Energy =  -3.14012111962196
 DFT Exchange         Energy = -85.48062175863325
 One-Electron (alpha) Energy = -2095.70487428667775
 One-Electron (beta)  Energy = -2095.70487428667730
 Total Coulomb        Energy = 1382.51312295545131
 Nuclear repulsion Energy = 226.58950005349223
 SCF   energy in the final basis set =    -2692.4152037183
 Total energy in the final basis set =    -2692.4152037183
 
 --------------------------------------------------------------
 
                    Orbital Energies (a.u.)
 --------------------------------------------------------------
 
 Alpha MOs
 -- Occupied --
******* -62.473 -56.294 -56.291 -56.291 -10.286 -10.211 -10.211
 -8.659  -6.487  -6.477  -6.477  -2.581  -2.578  -2.578  -2.570
 -2.570  -0.827  -0.724  -0.707  -0.603  -0.488  -0.462  -0.442
 -0.418  -0.388  -0.384  -0.289  -0.252  -0.252
 -- Virtual --
 -0.089   0.075   0.112   0.128   0.141   0.149   0.159   0.170
  0.205   0.245   0.245   0.361   0.371   0.374   0.463   0.471
  0.515   0.532   0.539   0.597   0.628   0.643   0.674   0.699
  0.710   0.727   0.765   0.768   0.846   0.847   0.858   0.872
  0.892   0.921   0.931   1.052   1.267   1.323   1.337   1.360
  1.508   1.643   1.750   1.810   1.845   1.854   1.865   1.998
  2.014   2.017   2.045   2.069   2.077   2.082   2.219   2.255
  2.327   2.367   2.485   2.549   2.598   2.637   2.674   2.715
  2.838   2.847   2.872   2.898   3.148   3.194   3.314   3.391
  3.430   3.440   3.451   4.200   4.452   4.550   4.762   4.764
  4.785   4.791   4.913   6.323  90.316
 
 Beta MOs
 -- Occupied --
******* -62.473 -56.294 -56.291 -56.291 -10.286 -10.211 -10.211
 -8.659  -6.487  -6.477  -6.477  -2.581  -2.578  -2.578  -2.570
 -2.570  -0.827  -0.724  -0.707  -0.603  -0.488  -0.462  -0.442
 -0.418  -0.388  -0.384  -0.289  -0.252  -0.252
 -- Virtual --
 -0.089   0.075   0.112   0.128   0.141   0.149   0.159   0.170
  0.205   0.245   0.245   0.361   0.371   0.374   0.463   0.471
  0.515   0.532   0.539   0.597   0.628   0.643   0.674   0.699
  0.710   0.727   0.765   0.768   0.846   0.847   0.858   0.872
  0.892   0.921   0.931   1.052   1.267   1.323   1.337   1.360
  1.508   1.643   1.750   1.810   1.845   1.854   1.865   1.998
  2.014   2.017   2.045   2.069   2.077   2.082   2.219   2.255
  2.327   2.367   2.485   2.549   2.598   2.637   2.674   2.715
  2.838   2.847   2.872   2.898   3.148   3.194   3.314   3.391
  3.430   3.440   3.451   4.200   4.452   4.550   4.762   4.764
  4.785   4.791   4.913   6.323  90.316
 --------------------------------------------------------------
 
          Ground-State Mulliken Net Atomic Charges

     Atom                 Charge (a.u.)    Spin (a.u.)
  --------------------------------------------------------
      1 Br                   -0.335943      -0.000000
      2 C                    -0.036721       0.000000
      3 C                    -0.323010      -0.000000
      4 C                    -0.323008      -0.000000
      5 H                     0.164970       0.000000
      6 H                     0.152565       0.000000
      7 H                     0.127392       0.000000
      8 H                     0.146899      -0.000000
      9 H                     0.152567      -0.000000
     10 H                     0.127392      -0.000000
     11 H                     0.146896       0.000000
  --------------------------------------------------------
  Sum of atomic charges =     0.000000
  Sum of spin   charges =    -0.000000

 -----------------------------------------------------------------
                    Cartesian Multipole Moments
 -----------------------------------------------------------------
    Charge (ESU x 10^10)
                 0.0000
    Dipole Moment (Debye)
         X      -4.6746      Y       0.0012      Z       0.6196
       Tot       4.7155
    Quadrupole Moments (Debye-Ang)
        XX     -44.5231     XY       0.0019     YY     -37.2927
        XZ       0.0067     YZ      -0.0000     ZZ     -38.2567
    Octopole Moments (Debye-Ang^2)
       XXX     -89.6780    XXY       0.0087    XYY     -28.5511
       YYY       0.0227    XXZ       1.3435    XYZ       0.0003
       YYZ       2.4054    XZZ     -28.0072    YZZ       0.0074
       ZZZ       6.1444
    Hexadecapole Moments (Debye-Ang^3)
      XXXX    -638.1260   XXXY       0.0510   XXYY    -146.1676
      XYYY       0.0592   YYYY    -207.1271   XXXZ       2.8605
      XXYZ       0.0015   XYYZ       3.9125   YYYZ      -0.0026
      XXZZ    -123.5349   XYZZ       0.0191   YYZZ     -48.2902
      XZZZ      11.5593   YZZZ      -0.0023   ZZZZ     -70.2865
 -----------------------------------------------------------------
 Calculating analytic gradient of the SCF energy
 Gradient of SCF Energy
            1           2           3           4           5           6
    1   0.0372765  -0.0283177  -0.0034642  -0.0034633  -0.0025583   0.0000006
    2  -0.0000092   0.0000074  -0.0007265   0.0007280   0.0000006   0.0000107
    3  -0.0081857   0.0073129   0.0006072   0.0006073   0.0003318  -0.0000535
            7           8           9          10          11
    1   0.0001168   0.0001462   0.0000005   0.0001169   0.0001460
    2  -0.0004278   0.0000277  -0.0000109   0.0004277  -0.0000276
    3  -0.0003013   0.0000180  -0.0000533  -0.0003014   0.0000181
 Max gradient component =       3.728E-02
 RMS gradient           =       8.430E-03
 Gradient time:  CPU 10.88 s  wall 0.96 s
 Geometry Optimization Parameters
   NAtoms,    NIC,     NZ,  NCons,   NDum,   NFix, NCnnct, MaxDiis
       11      68       0       1       0       0       0       0

 Cartesian Hessian Update
 Hessian Updated using BFGS Update


** CONSTRAINED OPTIMIZATION IN DELOCALIZED INTERNAL COORDINATES **
   Searching for a Minimum

   Optimization Cycle:   2

                       Coordinates (Angstroms)
     ATOM                X               Y               Z
      1  Br        2.1242092305   -0.0005455515   -0.1181052811
      2  C        -0.3162296819    0.0000741267    0.4151651431
      3  C        -0.8349671519   -1.2870095962   -0.1493356708
      4  C        -0.8343115405    1.2874083431   -0.1493595502
      5  H        -0.1694361131    0.0000490432    1.4924214448
      6  H        -0.3081091916   -2.1522457312    0.2551680256
      7  H        -1.8970489495   -1.3716167828    0.1297261968
      8  H        -0.7725032708   -1.3048552087   -1.2398988263
      9  H        -0.3069666472    2.1523738044    0.2550857529
     10  H        -1.8963319853    1.3725868458    0.1297607896
     11  H        -0.7719036988    1.3051817072   -1.2399270246
   Point Group: c1    Number of degrees of freedom:    27


   Energy is  -2692.415203718

              Constraints and their Current Values
                                        Value     Constraint
   Distance(Angs):        1   2             2.498023     2.500000
 Hessian Updated using BFGS Update

   Using Lagrange Multiplier Algorithm


 24 Hessian modes will be used to form the next step
  Hessian Eigenvalues:
    -0.990347    0.045000    0.045006    0.075110    0.081560    0.082508
     0.083472    0.085517    0.085527    0.131486    0.160000    0.162363
     0.183630    0.231542    0.325768    0.335033    0.335280    0.338783
     0.345262    0.345262    0.347206    0.347214    0.351364    1.010451

 Minimum Search - Taking P-RFO Step
 Searching for Lamda that Maximizes Along the Constraint modes Only
 Value Taken    Lamda =   0.00000265
 Searching for Lamda that Minimizes Along All other modes
 Value Taken    Lamda =  -0.00020434
 Step Taken.  Stepsize is  0.039307

                             Maximum     Tolerance    Cnvgd?
         Gradient            0.005975       0.000300      NO
         Displacement        0.025637       0.001200      NO
         Energy change      0.006746       0.000001      NO


 New Cartesian Coordinates Obtained by Inverse Iteration

 Displacement from previous Coordinates is:  0.026008
 ----------------------------------------------------------------
             Standard Nuclear Orientation (Angstroms)
    I     Atom           X                Y                Z
 ----------------------------------------------------------------
    1      Br      2.1173955194    -0.0005470102    -0.1187192861
    2      C      -0.3246941771     0.0000763910     0.4162522310
    3      C      -0.8339525179    -1.2872094307    -0.1496801811
    4      C      -0.8332979075     1.2876084937    -0.1497037675
    5      H      -0.1694203624     0.0000494792     1.4923339218
    6      H      -0.3036526182    -2.1502521065     0.2551048037
    7      H      -1.8958007991    -1.3742354299     0.1303061019
    8      H      -0.7715889943    -1.3044678501    -1.2402644504
    9      H      -0.3025129340     2.1503795133     0.2550219661
   10      H      -1.8950831584     1.3752048751     0.1303419968
   11      H      -0.7709910505     1.3047940750    -1.2402923362
 ----------------------------------------------------------------
 Nuclear Repulsion Energy =   226.8388932336 hartrees
 There are       30 alpha and       30 beta electrons

                       Distance Matrix (Angstroms)
             Br(  1)   C (  2)   C (  3)   C (  4)   H (  5)   H (  6)
   C (  2)  2.499999
   C (  3)  3.219769  1.495570
   C (  4)  3.219767  1.495568  2.574818
   H (  5)  2.797324  1.087227  2.189714  2.189710
   H (  6)  3.259210  2.156461  1.090831  3.501897  2.484462
   H (  7)  4.249091  2.106864  1.101584  2.879710  2.593100  1.775588
   H (  8)  3.362187  2.155365  1.092502  2.812826  3.087307  1.780574
   H (  9)  3.259160  2.156453  3.501889  1.090830  2.484466  4.300632
   H ( 10)  4.249083  2.106857  2.879733  1.101584  2.593065  3.870021
   H ( 11)  3.362234  2.155367  2.812807  1.092502  3.087311  3.793674
             H (  7)   H (  8)   H (  9)   H ( 10)
   H (  8)  1.774030
   H (  9)  3.870017  3.793664
   H ( 10)  2.749440  3.212701  1.775590
   H ( 11)  3.212621  2.609262  1.780576  1.774029
 
 Applying Cartesian multipole field
    Component          Value
    ---------          -----
     (2,0,0)        1.00000E-11
     (0,2,0)        2.00000E-11
     (0,0,2)       -3.00000E-10
 Nucleus-field energy     =     0.0000000010 hartrees
 Requested basis set is 6-31G(d,p)
 There are 41 shells and 115 basis functions
 A cutoff of  1.0D-14 yielded    818 shell pairs
 There are      6528 function pairs
 Smallest overlap matrix eigenvalue = 7.25E-04
 Guess from superposition of atomic densities
 Warning:  Energy on first SCF cycle will be non-variational
 SAD guess density has 59.972873 electrons

 -----------------------------------------------------------------------
  General SCF calculation program by
  Eric Jon Sundstrom, Paul Horn, Yuezhi Mao, Dmitri Zuev, Alec White,
  David Stuck, Shaama M.S., Shane Yost, Joonho Lee, David Small,
  Daniel Levine, Susi Lehtola, Hugh Burton, Evgeny Epifanovsky
 -----------------------------------------------------------------------
 Exchange:     0.2000 Hartree-Fock + 0.0800 Slater + 0.7200 B88
 Correlation:  0.1900 VWN1RPA + 0.8100 LYP
 Using SG-1 standard quadrature grid
 using 12 threads for integral computing
 -------------------------------------------------------
 OpenMP Integral computing Module                
 Release: version 1.0, May 2013, Q-Chem Inc. Pittsburgh 
 -------------------------------------------------------
 -------------------------------------------------------
 OpenMP BLAS3 based DFT computing Module                
 Release: version 1.0, May 2013, Q-Chem Inc. Pittsburgh 
 -------------------------------------------------------
 A unrestricted SCF calculation will be
 performed using DIIS
 SCF converges when DIIS error is below 1.0e-06
 Alpha HF Exchange    Energy = -10.72681896439659
 Beta HF Exchange     Energy = -10.72681896439659
 DFT Correlation      Energy =  -3.11632909618636
 DFT Exchange         Energy = -84.99998829854820
 One-Electron (alpha) Energy = -2093.42480797480130
 One-Electron (beta)  Energy = -2093.42480797480130
 Total Coulomb        Energy = 1373.82086603523908
 ---------------------------------------
  Cycle       Energy         DIIS error
 ---------------------------------------
    1   -2695.7598120032      1.64e-01  
 Alpha HF Exchange    Energy = -10.80015405319886
 Beta HF Exchange     Energy = -10.80015405319884
 DFT Correlation      Energy =  -3.15714768535843
 DFT Exchange         Energy = -85.92144201033497
 One-Electron (alpha) Energy = -2101.93032477863153
 One-Electron (beta)  Energy = -2101.93032477862971
 Total Coulomb        Energy = 1395.43857620689664
    2   -2692.2620779178      9.81e-03  
 Alpha HF Exchange    Energy = -10.68890227464151
 Beta HF Exchange     Energy = -10.68890227464153
 DFT Correlation      Energy =  -3.12510909851871
 DFT Exchange         Energy = -85.05579466411460
 One-Electron (alpha) Energy = -2087.99284319385151
 One-Electron (beta)  Energy = -2087.99284319385151
 Total Coulomb        Energy = 1366.61796692574740
    3   -2692.0875345392      6.95e-03  
 Alpha HF Exchange    Energy = -10.77049201047316
 Beta HF Exchange     Energy = -10.77049201047315
 DFT Correlation      Energy =  -3.14247265308997
 DFT Exchange         Energy = -85.65843737629072
 One-Electron (alpha) Energy = -2099.54596780272914
 One-Electron (beta)  Energy = -2099.54596780272823
 Total Coulomb        Energy = 1390.34029661587465
    4   -2692.2546398053      4.59e-03  
 Alpha HF Exchange    Energy = -10.75171949544638
 Beta HF Exchange     Energy = -10.75171949544640
 DFT Correlation      Energy =  -3.14468244722854
 DFT Exchange         Energy = -85.55329886692435
 One-Electron (alpha) Energy = -2096.51723591423979
 One-Electron (beta)  Energy = -2096.51723591423979
 Total Coulomb        Energy = 1383.99555981931871
    5   -2692.4014390796      1.37e-03  
 Alpha HF Exchange    Energy = -10.74281866856133
 Beta HF Exchange     Energy = -10.74281866856133
 DFT Correlation      Energy =  -3.13977075740380
 DFT Exchange         Energy = -85.47218765540970
 One-Electron (alpha) Energy = -2095.96806524670956
 One-Electron (beta)  Energy = -2095.96806524670956
 Total Coulomb        Energy = 1382.78016966789164
    6   -2692.4146633408      2.45e-04  
 Alpha HF Exchange    Energy = -10.74341736705126
 Beta HF Exchange     Energy = -10.74341736705126
 DFT Correlation      Energy =  -3.14014888836986
 DFT Exchange         Energy = -85.47905161759957
 One-Electron (alpha) Energy = -2095.85841246659402
 One-Electron (beta)  Energy = -2095.85841246659493
 Total Coulomb        Energy = 1382.56887512910453
    7   -2692.4150918095      9.17e-05  
 Alpha HF Exchange    Energy = -10.74389717528058
 Beta HF Exchange     Energy = -10.74389717528061
 DFT Correlation      Energy =  -3.14027513183954
 DFT Exchange         Energy = -85.48234564087987
 One-Electron (alpha) Energy = -2095.96711919381323
 One-Electron (beta)  Energy = -2095.96711919381505
 Total Coulomb        Energy = 1382.79057511058113
    8   -2692.4151851657      1.42e-05  
 Alpha HF Exchange    Energy = -10.74385222410167
 Beta HF Exchange     Energy = -10.74385222410167
 DFT Correlation      Energy =  -3.14027082363451
 DFT Exchange         Energy = -85.48195690187822
 One-Electron (alpha) Energy = -2095.95897004017297
 One-Electron (beta)  Energy = -2095.95897004017388
 Total Coulomb        Energy = 1382.77379273676092
    9   -2692.4151862827      3.65e-06  
 Alpha HF Exchange    Energy = -10.74386654621188
 Beta HF Exchange     Energy = -10.74386654621190
 DFT Correlation      Energy =  -3.14027049415517
 DFT Exchange         Energy = -85.48204923253569
 One-Electron (alpha) Energy = -2095.96233171451104
 One-Electron (beta)  Energy = -2095.96233171451195
 Total Coulomb        Energy = 1382.78063663854687
   10   -2692.4151863749      3.47e-07  Convergence criterion met
 ---------------------------------------
 SCF time:   CPU 28.70s  wall 2.00s 
<S^2> =         -0.000000000
 Alpha HF Exchange    Energy = -10.74386654621188
 Beta HF Exchange     Energy = -10.74386654621190
 DFT Correlation      Energy =  -3.14027049415517
 DFT Exchange         Energy = -85.48204923253569
 One-Electron (alpha) Energy = -2095.96233171451104
 One-Electron (beta)  Energy = -2095.96233171451195
 Total Coulomb        Energy = 1382.78063663854687
 Nuclear repulsion Energy = 226.83889323464786
 SCF   energy in the final basis set =    -2692.4151863749
 Total energy in the final basis set =    -2692.4151863749
 
 --------------------------------------------------------------
 
                    Orbital Energies (a.u.)
 --------------------------------------------------------------
 
 Alpha MOs
 -- Occupied --
******* -62.472 -56.293 -56.290 -56.290 -10.286 -10.212 -10.211
 -8.658  -6.487  -6.476  -6.476  -2.580  -2.577  -2.577  -2.569
 -2.569  -0.827  -0.725  -0.706  -0.604  -0.489  -0.463  -0.442
 -0.418  -0.389  -0.384  -0.288  -0.251  -0.251
 -- Virtual --
 -0.089   0.075   0.111   0.128   0.141   0.149   0.159   0.169
  0.206   0.246   0.246   0.362   0.372   0.374   0.463   0.470
  0.515   0.531   0.539   0.597   0.629   0.643   0.675   0.698
  0.711   0.726   0.765   0.769   0.845   0.847   0.857   0.871
  0.892   0.922   0.931   1.053   1.266   1.323   1.336   1.360
  1.508   1.643   1.751   1.809   1.846   1.856   1.870   1.996
  2.014   2.016   2.045   2.069   2.076   2.082   2.221   2.253
  2.328   2.368   2.486   2.549   2.598   2.636   2.673   2.717
  2.838   2.847   2.872   2.899   3.148   3.194   3.315   3.390
  3.430   3.439   3.451   4.201   4.452   4.551   4.763   4.765
  4.786   4.792   4.914   6.324  90.318
 
 Beta MOs
 -- Occupied --
******* -62.472 -56.293 -56.290 -56.290 -10.286 -10.212 -10.211
 -8.658  -6.487  -6.476  -6.476  -2.580  -2.577  -2.577  -2.569
 -2.569  -0.827  -0.725  -0.706  -0.604  -0.489  -0.463  -0.442
 -0.418  -0.389  -0.384  -0.288  -0.251  -0.251
 -- Virtual --
 -0.089   0.075   0.111   0.128   0.141   0.149   0.159   0.169
  0.206   0.246   0.246   0.362   0.372   0.374   0.463   0.470
  0.515   0.531   0.539   0.597   0.629   0.643   0.675   0.698
  0.711   0.726   0.765   0.769   0.845   0.847   0.857   0.871
  0.892   0.922   0.931   1.053   1.266   1.323   1.336   1.360
  1.508   1.643   1.751   1.809   1.846   1.856   1.870   1.996
  2.014   2.016   2.045   2.069   2.076   2.082   2.221   2.253
  2.328   2.368   2.486   2.549   2.598   2.636   2.673   2.717
  2.838   2.847   2.872   2.899   3.148   3.194   3.315   3.390
  3.430   3.439   3.451   4.201   4.452   4.551   4.763   4.765
  4.786   4.792   4.914   6.324  90.318
 --------------------------------------------------------------
 
          Ground-State Mulliken Net Atomic Charges

     Atom                 Charge (a.u.)    Spin (a.u.)
  --------------------------------------------------------
      1 Br                   -0.339821      -0.000000
      2 C                    -0.035943      -0.000000
      3 C                    -0.322691       0.000000
      4 C                    -0.322689      -0.000000
      5 H                     0.165618      -0.000000
      6 H                     0.153275      -0.000000
      7 H                     0.127220      -0.000000
      8 H                     0.147268      -0.000000
      9 H                     0.153278      -0.000000
     10 H                     0.127220      -0.000000
     11 H                     0.147265       0.000000
  --------------------------------------------------------
  Sum of atomic charges =    -0.000000
  Sum of spin   charges =    -0.000000

 -----------------------------------------------------------------
                    Cartesian Multipole Moments
 -----------------------------------------------------------------
    Charge (ESU x 10^10)
                 0.0000
    Dipole Moment (Debye)
         X      -4.7064      Y       0.0012      Z       0.6257
       Tot       4.7478
    Quadrupole Moments (Debye-Ang)
        XX     -44.5813     XY       0.0019     YY     -37.2691
        XZ       0.0133     YZ      -0.0000     ZZ     -38.2426
    Octopole Moments (Debye-Ang^2)
       XXX     -89.4225    XXY       0.0088    XYY     -28.3911
       YYY       0.0227    XXZ       1.3771    XYZ       0.0003
       YYZ       2.4112    XZZ     -27.8797    YZZ       0.0074
       ZZZ       6.1761
    Hexadecapole Moments (Debye-Ang^3)
      XXXX    -635.7574   XXXY       0.0511   XXYY    -145.6896
      XYYY       0.0593   YYYY    -207.0270   XXXZ       2.9970
      XXYZ       0.0015   XYYZ       3.9525   YYYZ      -0.0027
      XXZZ    -123.0286   XYZZ       0.0191   YYZZ     -48.2696
      XZZZ      11.6772   YZZZ      -0.0023   ZZZZ     -70.3075
 -----------------------------------------------------------------
 Calculating analytic gradient of the SCF energy
 Gradient of SCF Energy
            1           2           3           4           5           6
    1   0.0365534  -0.0312165  -0.0022278  -0.0022274  -0.0018627   0.0001049
    2  -0.0000092   0.0000079  -0.0002583   0.0002596   0.0000004  -0.0000616
    3  -0.0081322   0.0070822   0.0005527   0.0005529   0.0003220  -0.0000696
            7           8           9          10          11
    1   0.0002125   0.0001732   0.0001049   0.0002124   0.0001732
    2   0.0000220  -0.0000363   0.0000615  -0.0000222   0.0000363
    3  -0.0000796  -0.0000397  -0.0000695  -0.0000796  -0.0000396
 Max gradient component =       3.655E-02
 RMS gradient           =       8.601E-03
 Gradient time:  CPU 10.86 s  wall 0.96 s
 Geometry Optimization Parameters
   NAtoms,    NIC,     NZ,  NCons,   NDum,   NFix, NCnnct, MaxDiis
       11      68       0       1       0       0       0       0

 Cartesian Hessian Update
 Hessian Updated using BFGS Update


** CONSTRAINED OPTIMIZATION IN DELOCALIZED INTERNAL COORDINATES **
   Searching for a Minimum

   Optimization Cycle:   3

                       Coordinates (Angstroms)
     ATOM                X               Y               Z
      1  Br        2.1173955194   -0.0005470102   -0.1187192861
      2  C        -0.3246941771    0.0000763910    0.4162522310
      3  C        -0.8339525179   -1.2872094307   -0.1496801811
      4  C        -0.8332979075    1.2876084937   -0.1497037675
      5  H        -0.1694203624    0.0000494792    1.4923339218
      6  H        -0.3036526182   -2.1502521065    0.2551048037
      7  H        -1.8958007991   -1.3742354299    0.1303061019
      8  H        -0.7715889943   -1.3044678501   -1.2402644504
      9  H        -0.3025129340    2.1503795133    0.2550219661
     10  H        -1.8950831584    1.3752048751    0.1303419968
     11  H        -0.7709910505    1.3047940750   -1.2402923362
   Point Group: c1    Number of degrees of freedom:    27


   Energy is  -2692.415186375

              Constraints and their Current Values
                                        Value     Constraint
   Distance(Angs):        1   2             2.499999     2.500000
 Hessian Updated using BFGS Update

   Using Lagrange Multiplier Algorithm


 25 Hessian modes will be used to form the next step
  Hessian Eigenvalues:
    -0.988002    0.029533    0.045000    0.045182    0.081425    0.081560
     0.083572    0.085516    0.085518    0.131486    0.159921    0.160000
     0.175135    0.183630    0.221967    0.325768    0.330703    0.335280
     0.341476    0.345262    0.345752    0.347206    0.349686    0.352424
     1.013301

 Minimum Search - Taking P-RFO Step
 Searching for Lamda that Maximizes Along the Constraint modes Only
 Value Taken    Lamda =   0.00000000
 Searching for Lamda that Minimizes Along All other modes
 Value Taken    Lamda =  -0.00017592
 Step Taken.  Stepsize is  0.075595

                             Maximum     Tolerance    Cnvgd?
         Gradient            0.001485       0.000300      NO
         Displacement        0.050596       0.001200      NO
         Energy change      0.000017       0.000001      NO


 New Cartesian Coordinates Obtained by Inverse Iteration

 Displacement from previous Coordinates is:  0.060833
 ----------------------------------------------------------------
             Standard Nuclear Orientation (Angstroms)
    I     Atom           X                Y                Z
 ----------------------------------------------------------------
    1      Br      2.1024389208    -0.0005467503    -0.1177480673
    2      C      -0.3391343838     0.0000803426     0.4195775965
    3      C      -0.8325186378    -1.2888599385    -0.1499763757
    4      C      -0.8318647727     1.2892589197    -0.1499997916
    5      H      -0.1648908994     0.0000490143     1.4925312487
    6      H      -0.2946423408    -2.1471088909     0.2542237724
    7      H      -1.8943870491    -1.3877902261     0.1294105236
    8      H      -0.7710127908    -1.3029950419    -1.2404392035
    9      H      -0.2935062894     2.1472323035     0.2541409008
   10      H      -1.8936635148     1.3887596051     0.1294471022
   11      H      -0.7704172422     1.3033216625    -1.2404667060
 ----------------------------------------------------------------
 Nuclear Repulsion Energy =   227.3472435459 hartrees
 There are       30 alpha and       30 beta electrons

                       Distance Matrix (Angstroms)
             Br(  1)   C (  2)   C (  3)   C (  4)   H (  5)   H (  6)
   C (  2)  2.500000
   C (  3)  3.205427  1.493046
   C (  4)  3.205429  1.493045  2.578119
   H (  5)  2.780968  1.087010  2.191996  2.191991
   H (  6)  3.239150  2.154006  1.090541  3.501518  2.482041
   H (  7)  4.237942  2.104565  1.102456  2.893720  2.602951  1.775198
   H (  8)  3.348661  2.154108  1.092287  2.812924  3.087788  1.781425
   H (  9)  3.239106  2.153999  3.501510  1.090540  2.482045  4.294341
   H ( 10)  4.237937  2.104559  2.893744  1.102455  2.602916  3.882628
   H ( 11)  3.348712  2.154110  2.812904  1.092287  3.087792  3.790242
             H (  7)   H (  8)   H (  9)   H ( 10)
   H (  8)  1.773598
   H (  9)  3.882623  3.790231
   H ( 10)  2.776550  3.222185  1.775199
   H ( 11)  3.222104  2.606317  1.781427  1.773597
 
 Applying Cartesian multipole field
    Component          Value
    ---------          -----
     (2,0,0)        1.00000E-11
     (0,2,0)        2.00000E-11
     (0,0,2)       -3.00000E-10
 Nucleus-field energy     =     0.0000000010 hartrees
 Requested basis set is 6-31G(d,p)
 There are 41 shells and 115 basis functions
 A cutoff of  1.0D-14 yielded    818 shell pairs
 There are      6528 function pairs
 Smallest overlap matrix eigenvalue = 7.25E-04
 Guess from superposition of atomic densities
 Warning:  Energy on first SCF cycle will be non-variational
 SAD guess density has 59.972873 electrons

 -----------------------------------------------------------------------
  General SCF calculation program by
  Eric Jon Sundstrom, Paul Horn, Yuezhi Mao, Dmitri Zuev, Alec White,
  David Stuck, Shaama M.S., Shane Yost, Joonho Lee, David Small,
  Daniel Levine, Susi Lehtola, Hugh Burton, Evgeny Epifanovsky
 -----------------------------------------------------------------------
 Exchange:     0.2000 Hartree-Fock + 0.0800 Slater + 0.7200 B88
 Correlation:  0.1900 VWN1RPA + 0.8100 LYP
 Using SG-1 standard quadrature grid
 using 12 threads for integral computing
 -------------------------------------------------------
 OpenMP Integral computing Module                
 Release: version 1.0, May 2013, Q-Chem Inc. Pittsburgh 
 -------------------------------------------------------
 -------------------------------------------------------
 OpenMP BLAS3 based DFT computing Module                
 Release: version 1.0, May 2013, Q-Chem Inc. Pittsburgh 
 -------------------------------------------------------
 A unrestricted SCF calculation will be
 performed using DIIS
 SCF converges when DIIS error is below 1.0e-06
 Alpha HF Exchange    Energy = -10.72739946087024
 Beta HF Exchange     Energy = -10.72739946087024
 DFT Correlation      Energy =  -3.11652562345064
 DFT Exchange         Energy = -85.00112365078226
 One-Electron (alpha) Energy = -2093.93088976349327
 One-Electron (beta)  Energy = -2093.93088976349327
 Total Coulomb        Energy = 1374.32088714207430
 ---------------------------------------
  Cycle       Energy         DIIS error
 ---------------------------------------
    1   -2695.7660970341      1.64e-01  
 Alpha HF Exchange    Energy = -10.80056067928607
 Beta HF Exchange     Energy = -10.80056067928608
 DFT Correlation      Energy =  -3.15738289291939
 DFT Exchange         Energy = -85.92412957710371
 One-Electron (alpha) Energy = -2102.48156385238872
 One-Electron (beta)  Energy = -2102.48156385239008
 Total Coulomb        Energy = 1396.03717862096369
    2   -2692.2613393656      9.82e-03  
 Alpha HF Exchange    Energy = -10.68888064313686
 Beta HF Exchange     Energy = -10.68888064313685
 DFT Correlation      Energy =  -3.12527325245566
 DFT Exchange         Energy = -85.05574841403427
 One-Electron (alpha) Energy = -2088.42696673256432
 One-Electron (beta)  Energy = -2088.42696673256205
 Total Coulomb        Energy = 1366.98373853504768
    3   -2692.0817343360      7.00e-03  
 Alpha HF Exchange    Energy = -10.77070665447767
 Beta HF Exchange     Energy = -10.77070665447766
 DFT Correlation      Energy =  -3.14263508363078
 DFT Exchange         Energy = -85.65965785670085
 One-Electron (alpha) Energy = -2100.08489080139680
 One-Electron (beta)  Energy = -2100.08489080139725
 Total Coulomb        Energy = 1390.91233469399867
    4   -2692.2539096113      4.59e-03  
 Alpha HF Exchange    Energy = -10.75200146197233
 Beta HF Exchange     Energy = -10.75200146197234
 DFT Correlation      Energy =  -3.14490557737104
 DFT Exchange         Energy = -85.55529522984031
 One-Electron (alpha) Energy = -2097.04975716883837
 One-Electron (beta)  Energy = -2097.04975716884019
 Total Coulomb        Energy = 1384.55478714273204
    5   -2692.4016873793      1.37e-03  
 Alpha HF Exchange    Energy = -10.74302349627874
 Beta HF Exchange     Energy = -10.74302349627877
 DFT Correlation      Energy =  -3.13995824563003
 DFT Exchange         Energy = -85.47354229187098
 One-Electron (alpha) Energy = -2096.48499570371496
 One-Electron (beta)  Energy = -2096.48499570371723
 Total Coulomb        Energy = 1383.30755739982419
    6   -2692.4147379908      2.50e-04  
 Alpha HF Exchange    Energy = -10.74366090602169
 Beta HF Exchange     Energy = -10.74366090602171
 DFT Correlation      Energy =  -3.14035675021950
 DFT Exchange         Energy = -85.48077617151925
 One-Electron (alpha) Energy = -2096.37937592184562
 One-Electron (beta)  Energy = -2096.37937592184744
 Total Coulomb        Energy = 1383.10477683661429
    7   -2692.4151861940      9.21e-05  
 Alpha HF Exchange    Energy = -10.74413552120266
 Beta HF Exchange     Energy = -10.74413552120264
 DFT Correlation      Energy =  -3.14048307064681
 DFT Exchange         Energy = -85.48401525068920
 One-Electron (alpha) Energy = -2096.48729972197179
 One-Electron (beta)  Energy = -2096.48729972197043
 Total Coulomb        Energy = 1383.32484488805403
    8   -2692.4152803728      1.35e-05  
 Alpha HF Exchange    Energy = -10.74409054361512
 Beta HF Exchange     Energy = -10.74409054361512
 DFT Correlation      Energy =  -3.14047805021542
 DFT Exchange         Energy = -85.48362663997162
 One-Electron (alpha) Energy = -2096.47911993827438
 One-Electron (beta)  Energy = -2096.47911993827483
 Total Coulomb        Energy = 1383.30800073605678
    9   -2692.4152813711      3.82e-06  
 Alpha HF Exchange    Energy = -10.74410585267647
 Beta HF Exchange     Energy = -10.74410585267647
 DFT Correlation      Energy =  -3.14047793628055
 DFT Exchange         Energy = -85.48372665105212
 One-Electron (alpha) Energy = -2096.48266498043540
 One-Electron (beta)  Energy = -2096.48266498043495
 Total Coulomb        Energy = 1383.31522123560171
   10   -2692.4152814711      3.53e-07  Convergence criterion met
 ---------------------------------------
 SCF time:   CPU 28.67s  wall 3.00s 
<S^2> =          0.000000000
 Alpha HF Exchange    Energy = -10.74410585267647
 Beta HF Exchange     Energy = -10.74410585267647
 DFT Correlation      Energy =  -3.14047793628055
 DFT Exchange         Energy = -85.48372665105212
 One-Electron (alpha) Energy = -2096.48266498043540
 One-Electron (beta)  Energy = -2096.48266498043495
 Total Coulomb        Energy = 1383.31522123560171
 Nuclear repulsion Energy = 227.34724354683036
 SCF   energy in the final basis set =    -2692.4152814711
 Total energy in the final basis set =    -2692.4152814711
 
 --------------------------------------------------------------
 
                    Orbital Energies (a.u.)
 --------------------------------------------------------------
 
 Alpha MOs
 -- Occupied --
******* -62.471 -56.292 -56.289 -56.289 -10.286 -10.212 -10.212
 -8.657  -6.485  -6.475  -6.475  -2.579  -2.576  -2.576  -2.568
 -2.568  -0.828  -0.726  -0.706  -0.604  -0.490  -0.463  -0.443
 -0.418  -0.390  -0.385  -0.286  -0.251  -0.250
 -- Virtual --
 -0.088   0.076   0.110   0.128   0.142   0.148   0.158   0.169
  0.207   0.246   0.248   0.363   0.373   0.376   0.462   0.469
  0.516   0.531   0.538   0.598   0.631   0.643   0.677   0.696
  0.714   0.725   0.766   0.770   0.845   0.847   0.856   0.871
  0.893   0.923   0.931   1.055   1.265   1.327   1.333   1.359
  1.507   1.644   1.753   1.805   1.849   1.858   1.873   1.993
  2.013   2.016   2.045   2.069   2.077   2.084   2.224   2.251
  2.330   2.368   2.486   2.548   2.596   2.635   2.674   2.721
  2.839   2.846   2.871   2.902   3.148   3.193   3.317   3.390
  3.430   3.436   3.454   4.201   4.451   4.551   4.764   4.766
  4.787   4.794   4.916   6.326  90.322
 
 Beta MOs
 -- Occupied --
******* -62.471 -56.292 -56.289 -56.289 -10.286 -10.212 -10.212
 -8.657  -6.485  -6.475  -6.475  -2.579  -2.576  -2.576  -2.568
 -2.568  -0.828  -0.726  -0.706  -0.604  -0.490  -0.463  -0.443
 -0.418  -0.390  -0.385  -0.286  -0.251  -0.250
 -- Virtual --
 -0.088   0.076   0.110   0.128   0.142   0.148   0.158   0.169
  0.207   0.246   0.248   0.363   0.373   0.376   0.462   0.469
  0.516   0.531   0.538   0.598   0.631   0.643   0.677   0.696
  0.714   0.725   0.766   0.770   0.845   0.847   0.856   0.871
  0.893   0.923   0.931   1.055   1.265   1.327   1.333   1.359
  1.507   1.644   1.753   1.805   1.849   1.858   1.873   1.993
  2.013   2.016   2.045   2.069   2.077   2.084   2.224   2.251
  2.330   2.368   2.486   2.548   2.596   2.635   2.674   2.721
  2.839   2.846   2.871   2.902   3.148   3.193   3.317   3.390
  3.430   3.436   3.454   4.201   4.451   4.551   4.764   4.766
  4.787   4.794   4.916   6.326  90.322
 --------------------------------------------------------------
 
          Ground-State Mulliken Net Atomic Charges

     Atom                 Charge (a.u.)    Spin (a.u.)
  --------------------------------------------------------
      1 Br                   -0.344682      -0.000000
      2 C                    -0.035690       0.000000
      3 C                    -0.322406       0.000000
      4 C                    -0.322404       0.000000
      5 H                     0.167120      -0.000000
      6 H                     0.154352      -0.000000
      7 H                     0.126924       0.000000
      8 H                     0.147756       0.000000
      9 H                     0.154354       0.000000
     10 H                     0.126924       0.000000
     11 H                     0.147753      -0.000000
  --------------------------------------------------------
  Sum of atomic charges =    -0.000000
  Sum of spin   charges =    -0.000000

 -----------------------------------------------------------------
                    Cartesian Multipole Moments
 -----------------------------------------------------------------
    Charge (ESU x 10^10)
                 0.0000
    Dipole Moment (Debye)
         X      -4.7348      Y       0.0012      Z       0.6322
       Tot       4.7768
    Quadrupole Moments (Debye-Ang)
        XX     -44.6273     XY       0.0019     YY     -37.2249
        XZ       0.0326     YZ      -0.0000     ZZ     -38.2204
    Octopole Moments (Debye-Ang^2)
       XXX     -88.6171    XXY       0.0088    XYY     -28.0896
       YYY       0.0227    XXZ       1.3550    XYZ       0.0003
       YYZ       2.3818    XZZ     -27.5714    YZZ       0.0074
       ZZZ       6.0978
    Hexadecapole Moments (Debye-Ang^3)
      XXXX    -629.7228   XXXY       0.0509   XXYY    -144.5308
      XYYY       0.0588   YYYY    -207.3132   XXXZ       2.9717
      XXYZ       0.0015   XYYZ       3.9236   YYYZ      -0.0027
      XXZZ    -121.8855   XYZZ       0.0190   YYZZ     -48.3271
      XZZZ      11.6023   YZZZ      -0.0023   ZZZZ     -70.3027
 -----------------------------------------------------------------
 Calculating analytic gradient of the SCF energy
 Gradient of SCF Energy
            1           2           3           4           5           6
    1   0.0352185  -0.0351895   0.0001615   0.0001613  -0.0003540   0.0000029
    2  -0.0000091   0.0000089   0.0001180  -0.0001178   0.0000001  -0.0000083
    3  -0.0079383   0.0074382   0.0001040   0.0001042   0.0001404  -0.0000464
            7           8           9          10          11
    1  -0.0000215   0.0000196   0.0000030  -0.0000215   0.0000196
    2   0.0001690  -0.0000889   0.0000083  -0.0001691   0.0000889
    3   0.0001112   0.0000108  -0.0000463   0.0001113   0.0000109
 Max gradient component =       3.522E-02
 RMS gradient           =       8.872E-03
 Gradient time:  CPU 10.88 s  wall 0.96 s
 Geometry Optimization Parameters
   NAtoms,    NIC,     NZ,  NCons,   NDum,   NFix, NCnnct, MaxDiis
       11      68       0       1       0       0       0       0

 Cartesian Hessian Update
 Hessian Updated using BFGS Update


** CONSTRAINED OPTIMIZATION IN DELOCALIZED INTERNAL COORDINATES **
   Searching for a Minimum

   Optimization Cycle:   4

                       Coordinates (Angstroms)
     ATOM                X               Y               Z
      1  Br        2.1024389208   -0.0005467503   -0.1177480673
      2  C        -0.3391343838    0.0000803426    0.4195775965
      3  C        -0.8325186378   -1.2888599385   -0.1499763757
      4  C        -0.8318647727    1.2892589197   -0.1499997916
      5  H        -0.1648908994    0.0000490143    1.4925312487
      6  H        -0.2946423408   -2.1471088909    0.2542237724
      7  H        -1.8943870491   -1.3877902261    0.1294105236
      8  H        -0.7710127908   -1.3029950419   -1.2404392035
      9  H        -0.2935062894    2.1472323035    0.2541409008
     10  H        -1.8936635148    1.3887596051    0.1294471022
     11  H        -0.7704172422    1.3033216625   -1.2404667060
   Point Group: c1    Number of degrees of freedom:    27


   Energy is  -2692.415281471

              Constraints and their Current Values
                                        Value     Constraint
   Distance(Angs):        1   2             2.500000     2.500000
 Hessian Updated using BFGS Update

 24 Hessian modes will be used to form the next step
  Hessian Eigenvalues:
     0.025636    0.045000    0.045217    0.081527    0.081560    0.083863
     0.085517    0.085530    0.131486    0.159955    0.160000    0.160173
     0.175537    0.183630    0.227276    0.325768    0.333693    0.335280
     0.343736    0.345262    0.345998    0.347206    0.350201    0.354626

 Minimum Search - Taking Simple RFO Step
 Searching for Lamda that Minimizes Along All modes
 Value Taken    Lamda =  -0.00000562
 Step Taken.  Stepsize is  0.011498

                             Maximum     Tolerance    Cnvgd?
         Gradient           0.000519      0.000300      NO
         Displacement       0.007146      0.001200      NO
         Energy change     -0.000095      0.000001      NO


 New Cartesian Coordinates Obtained by Inverse Iteration

 Displacement from previous Coordinates is:  0.012315
 ----------------------------------------------------------------
             Standard Nuclear Orientation (Angstroms)
    I     Atom           X                Y                Z
 ----------------------------------------------------------------
    1      Br      2.1012688824    -0.0005451051    -0.1161897109
    2      C      -0.3404499526     0.0000804741     0.4204742461
    3      C      -0.8328342670    -1.2890832498    -0.1499653181
    4      C      -0.8321800977     1.2894818447    -0.1499888464
    5      H      -0.1625246092     0.0000480689     1.4926758423
    6      H      -0.2935266946    -2.1468387406     0.2533969154
    7      H      -1.8945414051    -1.3909827328     0.1289510209
    8      H      -0.7715999602    -1.3014681484    -1.2404633568
    9      H      -0.2923904810     2.1469605250     0.2533145236
   10      H      -1.8938161644     1.3919530528     0.1289865085
   11      H      -0.7710042505     1.3017950113    -1.2404908244
 ----------------------------------------------------------------
 Nuclear Repulsion Energy =   227.3707784574 hartrees
 There are       30 alpha and       30 beta electrons

                       Distance Matrix (Angstroms)
             Br(  1)   C (  2)   C (  3)   C (  4)   H (  5)   H (  6)
   C (  2)  2.500000
   C (  3)  3.204752  1.493247
   C (  4)  3.204752  1.493246  2.578565
   H (  5)  2.777267  1.086864  2.193045  2.193040
   H (  6)  3.237007  2.153922  1.090550  3.501595  2.482357
   H (  7)  4.237913  2.106002  1.102452  2.896776  2.606644  1.774839
   H (  8)  3.348099  2.153749  1.092286  2.811730  3.087874  1.781804
   H (  9)  3.236961  2.153914  3.501587  1.090549  2.482361  4.293799
   H ( 10)  4.237908  2.105996  2.896800  1.102451  2.606611  3.885801
   H ( 11)  3.348148  2.153751  2.811711  1.092286  3.087878  3.788504
             H (  7)   H (  8)   H (  9)   H ( 10)
   H (  8)  1.773219
   H (  9)  3.885794  3.788492
   H ( 10)  2.782936  3.223241  1.774840
   H ( 11)  3.223160  2.603263  1.781805  1.773218
 
 Applying Cartesian multipole field
    Component          Value
    ---------          -----
     (2,0,0)        1.00000E-11
     (0,2,0)        2.00000E-11
     (0,0,2)       -3.00000E-10
 Nucleus-field energy     =     0.0000000010 hartrees
 Requested basis set is 6-31G(d,p)
 There are 41 shells and 115 basis functions
 A cutoff of  1.0D-14 yielded    818 shell pairs
 There are      6528 function pairs
 Smallest overlap matrix eigenvalue = 7.25E-04
 Guess from superposition of atomic densities
 Warning:  Energy on first SCF cycle will be non-variational
 SAD guess density has 59.972873 electrons

 -----------------------------------------------------------------------
  General SCF calculation program by
  Eric Jon Sundstrom, Paul Horn, Yuezhi Mao, Dmitri Zuev, Alec White,
  David Stuck, Shaama M.S., Shane Yost, Joonho Lee, David Small,
  Daniel Levine, Susi Lehtola, Hugh Burton, Evgeny Epifanovsky
 -----------------------------------------------------------------------
 Exchange:     0.2000 Hartree-Fock + 0.0800 Slater + 0.7200 B88
 Correlation:  0.1900 VWN1RPA + 0.8100 LYP
 Using SG-1 standard quadrature grid
 using 12 threads for integral computing
 -------------------------------------------------------
 OpenMP Integral computing Module                
 Release: version 1.0, May 2013, Q-Chem Inc. Pittsburgh 
 -------------------------------------------------------
 -------------------------------------------------------
 OpenMP BLAS3 based DFT computing Module                
 Release: version 1.0, May 2013, Q-Chem Inc. Pittsburgh 
 -------------------------------------------------------
 A unrestricted SCF calculation will be
 performed using DIIS
 SCF converges when DIIS error is below 1.0e-06
 Alpha HF Exchange    Energy = -10.72735763308365
 Beta HF Exchange     Energy = -10.72735763308365
 DFT Correlation      Energy =  -3.11652193486011
 DFT Exchange         Energy = -85.00104787614735
 One-Electron (alpha) Energy = -2093.95452745642751
 One-Electron (beta)  Energy = -2093.95452745642751
 Total Coulomb        Energy = 1374.34481134656608
 ---------------------------------------
  Cycle       Energy         DIIS error
 ---------------------------------------
    1   -2695.7657501851      1.64e-01  
 Alpha HF Exchange    Energy = -10.80056152913593
 Beta HF Exchange     Energy = -10.80056152913592
 DFT Correlation      Energy =  -3.15737815052810
 DFT Exchange         Energy = -85.92409929843798
 One-Electron (alpha) Energy = -2102.50741915795834
 One-Electron (beta)  Energy = -2102.50741915795834
 Total Coulomb        Energy = 1396.06538097976886
    2   -2692.2612793850      9.82e-03  
 Alpha HF Exchange    Energy = -10.68886989129229
 Beta HF Exchange     Energy = -10.68886989129230
 DFT Correlation      Energy =  -3.12527738043976
 DFT Exchange         Energy = -85.05569365633454
 One-Electron (alpha) Energy = -2088.44386670603717
 One-Electron (beta)  Energy = -2088.44386670603808
 Total Coulomb        Energy = 1366.99486380329745
    3   -2692.0808019698      7.00e-03  
 Alpha HF Exchange    Energy = -10.77068582679157
 Beta HF Exchange     Energy = -10.77068582679156
 DFT Correlation      Energy =  -3.14262108511784
 DFT Exchange         Energy = -85.65943756140476
 One-Electron (alpha) Energy = -2100.11001805077967
 One-Electron (beta)  Energy = -2100.11001805077922
 Total Coulomb        Energy = 1390.93909383075948
    4   -2692.2535941125      4.60e-03  
 Alpha HF Exchange    Energy = -10.75199905904356
 Beta HF Exchange     Energy = -10.75199905904358
 DFT Correlation      Energy =  -3.14490550574017
 DFT Exchange         Energy = -85.55527954199275
 One-Electron (alpha) Energy = -2097.07556622887887
 One-Electron (beta)  Energy = -2097.07556622888205
 Total Coulomb        Energy = 1384.58282756936183
    5   -2692.4017095958      1.37e-03  
 Alpha HF Exchange    Energy = -10.74300804499439
 Beta HF Exchange     Energy = -10.74300804499438
 DFT Correlation      Energy =  -3.13995346248305
 DFT Exchange         Energy = -85.47342080288314
 One-Electron (alpha) Energy = -2096.50888393426430
 One-Electron (beta)  Energy = -2096.50888393426385
 Total Coulomb        Energy = 1383.33164086401348
    6   -2692.4147389015      2.51e-04  
 Alpha HF Exchange    Energy = -10.74365173408972
 Beta HF Exchange     Energy = -10.74365173408972
 DFT Correlation      Energy =  -3.14035524233134
 DFT Exchange         Energy = -85.48071205671562
 One-Electron (alpha) Energy = -2096.40371092079658
 One-Electron (beta)  Energy = -2096.40371092079658
 Total Coulomb        Energy = 1383.12982452905317
    7   -2692.4151896214      9.22e-05  
 Alpha HF Exchange    Energy = -10.74412667350836
 Beta HF Exchange     Energy = -10.74412667350838
 DFT Correlation      Energy =  -3.14048161725860
 DFT Exchange         Energy = -85.48395211439610
 One-Electron (alpha) Energy = -2096.51174064398037
 One-Electron (beta)  Energy = -2096.51174064398401
 Total Coulomb        Energy = 1383.35010585918553
    8   -2692.4152840491      1.35e-05  
 Alpha HF Exchange    Energy = -10.74408160503664
 Beta HF Exchange     Energy = -10.74408160503663
 DFT Correlation      Energy =  -3.14047654985978
 DFT Exchange         Energy = -85.48356264081673
 One-Electron (alpha) Energy = -2096.50355319886330
 One-Electron (beta)  Energy = -2096.50355319886285
 Total Coulomb        Energy = 1383.33324529260562
    9   -2692.4152850475      3.83e-06  
 Alpha HF Exchange    Energy = -10.74409698180709
 Beta HF Exchange     Energy = -10.74409698180707
 DFT Correlation      Energy =  -3.14047643960870
 DFT Exchange         Energy = -85.48366312474674
 One-Electron (alpha) Energy = -2096.50710982295186
 One-Electron (beta)  Energy = -2096.50710982294913
 Total Coulomb        Energy = 1383.34048956739412
   10   -2692.4152851481      3.53e-07  Convergence criterion met
 ---------------------------------------
 SCF time:   CPU 28.34s  wall 3.00s 
<S^2> =         -0.000000000
 Alpha HF Exchange    Energy = -10.74409698180709
 Beta HF Exchange     Energy = -10.74409698180707
 DFT Correlation      Energy =  -3.14047643960870
 DFT Exchange         Energy = -85.48366312474674
 One-Electron (alpha) Energy = -2096.50710982295186
 One-Electron (beta)  Energy = -2096.50710982294913
 Total Coulomb        Energy = 1383.34048956739412
[...]
 Hessian Updated using BFGS Update

 21 Hessian modes will be used to form the next step
  Hessian Eigenvalues:
     0.023157    0.045000    0.045422    0.076395    0.081560    0.081696
     0.085481    0.085517    0.131486    0.156142    0.160180    0.169466
     0.183630    0.211875    0.324423    0.325768    0.339966    0.345644
     0.347206    0.348895    0.350916

 Minimum Search - Taking Simple RFO Step
 Searching for Lamda that Minimizes Along All modes
 Value Taken    Lamda =  -0.00000137
 Step Taken.  Stepsize is  0.005306

                             Maximum     Tolerance    Cnvgd?
         Gradient           0.000215      0.000300     YES
         Displacement       0.002778      0.001200      NO
         Energy change     -0.000004      0.000001      NO


 New Cartesian Coordinates Obtained by Inverse Iteration

 Displacement from previous Coordinates is:  0.006983
 ----------------------------------------------------------------
             Standard Nuclear Orientation (Angstroms)
    I     Atom           X                Y                Z
 ----------------------------------------------------------------
    1      Br      2.1014994333    -0.0005437108    -0.1144598071
    2      C      -0.3405231884     0.0000802714     0.4208201100
    3      C      -0.8331911803    -1.2890720508    -0.1499907245
    4      C      -0.8325366750     1.2894703652    -0.1500143625
    5      H      -0.1608105089     0.0000472687     1.4926324192
    6      H      -0.2932782245    -2.1468675435     0.2524907786
    7      H      -1.8947256908    -1.3920109342     0.1289269885
    8      H      -0.7722439618    -1.3003496882    -1.2405236053
    9      H      -0.2921417062     2.1469884225     0.2524088279
   10      H      -1.8939997403     1.3929818686     0.1289614279
   11      H      -0.7716475571     1.3006767311    -1.2405510526
 ----------------------------------------------------------------
 Nuclear Repulsion Energy =   227.3557755729 hartrees
 There are       30 alpha and       30 beta electrons

                       Distance Matrix (Angstroms)
             Br(  1)   C (  2)   C (  3)   C (  4)   H (  5)   H (  6)
   C (  2)  2.500000
   C (  3)  3.205304  1.493473
   C (  4)  3.205303  1.493471  2.578542
   H (  5)  2.775030  1.086774  2.193658  2.193654
   H (  6)  3.236714  2.154055  1.090555  3.501604  2.482890
   H (  7)  4.238541  2.106814  1.102382  2.897653  2.608444  1.774742
   H (  8)  3.349017  2.153500  1.092293  2.810696  3.087884  1.781879
   H (  9)  3.236666  2.154047  3.501596  1.090554  2.482893  4.293856
   H ( 10)  4.238535  2.106809  2.897679  1.102382  2.608411  3.886914
   H ( 11)  3.349064  2.153503  2.810678  1.092293  3.087888  3.787291
             H (  7)   H (  8)   H (  9)   H ( 10)
   H (  8)  1.773066
   H (  9)  3.886906  3.787279
   H ( 10)  2.784993  3.223020  1.774743
   H ( 11)  3.222940  2.601026  1.781881  1.773065
 
 Applying Cartesian multipole field
    Component          Value
    ---------          -----
     (2,0,0)        1.00000E-11
     (0,2,0)        2.00000E-11
     (0,0,2)       -3.00000E-10
 Nucleus-field energy     =     0.0000000010 hartrees
 Requested basis set is 6-31G(d,p)
 There are 41 shells and 115 basis functions
 A cutoff of  1.0D-14 yielded    818 shell pairs
 There are      6528 function pairs
 Smallest overlap matrix eigenvalue = 7.25E-04
 Guess from superposition of atomic densities
 Warning:  Energy on first SCF cycle will be non-variational
 SAD guess density has 59.972873 electrons

 -----------------------------------------------------------------------
  General SCF calculation program by
  Eric Jon Sundstrom, Paul Horn, Yuezhi Mao, Dmitri Zuev, Alec White,
  David Stuck, Shaama M.S., Shane Yost, Joonho Lee, David Small,
  Daniel Levine, Susi Lehtola, Hugh Burton, Evgeny Epifanovsky
 -----------------------------------------------------------------------
 Exchange:     0.2000 Hartree-Fock + 0.0800 Slater + 0.7200 B88
 Correlation:  0.1900 VWN1RPA + 0.8100 LYP
 Using SG-1 standard quadrature grid
 using 12 threads for integral computing
 -------------------------------------------------------
 OpenMP Integral computing Module                
 Release: version 1.0, May 2013, Q-Chem Inc. Pittsburgh 
 -------------------------------------------------------
 -------------------------------------------------------
 OpenMP BLAS3 based DFT computing Module                
 Release: version 1.0, May 2013, Q-Chem Inc. Pittsburgh 
 -------------------------------------------------------
 A unrestricted SCF calculation will be
 performed using DIIS
 SCF converges when DIIS error is below 1.0e-06
 Alpha HF Exchange    Energy = -10.72731498170972
 Beta HF Exchange     Energy = -10.72731498170972
 DFT Correlation      Energy =  -3.11651250185144
 DFT Exchange         Energy = -85.00096909650625
 One-Electron (alpha) Energy = -2093.93963490821125
 One-Electron (beta)  Energy = -2093.93963490821125
 Total Coulomb        Energy = 1374.33029728561564
 ---------------------------------------
  Cycle       Energy         DIIS error
 ---------------------------------------
    1   -2695.7653085187      1.64e-01  
 Alpha HF Exchange    Energy = -10.80054955888378
 Beta HF Exchange     Energy = -10.80054955888377
 DFT Correlation      Energy =  -3.15736655446444
 DFT Exchange         Energy = -85.92400058519243
 One-Electron (alpha) Energy = -2102.49187805942438
 One-Electron (beta)  Energy = -2102.49187805942347
 Total Coulomb        Energy = 1396.04916870022407
    2   -2692.2612781022      9.82e-03  
 Alpha HF Exchange    Energy = -10.68886771094064
 Beta HF Exchange     Energy = -10.68886771094063
 DFT Correlation      Energy =  -3.12527494852588
 DFT Exchange         Energy = -85.05569078998496
 One-Electron (alpha) Energy = -2088.42835563344670
 One-Electron (beta)  Energy = -2088.42835563344579
 Total Coulomb        Energy = 1366.97914003096434
    3   -2692.0804968224      7.01e-03  
 Alpha HF Exchange    Energy = -10.77066708709459
 Beta HF Exchange     Energy = -10.77066708709461
 DFT Correlation      Energy =  -3.14260625205295
 DFT Exchange         Energy = -85.65927102862801
 One-Electron (alpha) Energy = -2100.09441122385624
 One-Electron (beta)  Energy = -2100.09441122385851
 Total Coulomb        Energy = 1390.92282736081506
    4   -2692.2534309679      4.60e-03  
 Alpha HF Exchange    Energy = -10.75198971265153
 Beta HF Exchange     Energy = -10.75198971265152
 DFT Correlation      Energy =  -3.14489713000682
 DFT Exchange         Energy = -85.55521406125565
 One-Electron (alpha) Energy = -2097.06088560108810
 One-Electron (beta)  Energy = -2097.06088560108765
 Total Coulomb        Energy = 1384.56836937816706
    5   -2692.4017168667      1.37e-03  
 Alpha HF Exchange    Energy = -10.74299363590436
 Beta HF Exchange     Energy = -10.74299363590436
 DFT Correlation      Energy =  -3.13994385900390
 DFT Exchange         Energy = -85.47331506210146
 One-Electron (alpha) Energy = -2096.49370996515245
 One-Electron (beta)  Energy = -2096.49370996515245
 Total Coulomb        Energy = 1383.31615167982045
    6   -2692.4147388695      2.51e-04  
 Alpha HF Exchange    Energy = -10.74363956297810
 Beta HF Exchange     Energy = -10.74363956297810
 DFT Correlation      Energy =  -3.14034677845388
 DFT Exchange         Energy = -85.48062618331480
 One-Electron (alpha) Energy = -2096.38862069668949
 One-Electron (beta)  Energy = -2096.38862069668858
 Total Coulomb        Energy = 1383.11452761286910
    7   -2692.4151902943      9.23e-05  
 Alpha HF Exchange    Energy = -10.74411500437463
 Beta HF Exchange     Energy = -10.74411500437461
 DFT Correlation      Energy =  -3.14047319122598
 DFT Exchange         Energy = -85.48386975299987
 One-Electron (alpha) Energy = -2096.49676129626505
 One-Electron (beta)  Energy = -2096.49676129626414
 Total Coulomb        Energy = 1383.33503511869185
    8   -2692.4152848529      1.35e-05  
 Alpha HF Exchange    Energy = -10.74406987246068
 Beta HF Exchange     Energy = -10.74406987246068
 DFT Correlation      Energy =  -3.14046812558082
 DFT Exchange         Energy = -85.48347966851603
 One-Electron (alpha) Energy = -2096.48856939036386
 One-Electron (beta)  Energy = -2096.48856939036386
 Total Coulomb        Energy = 1383.31816488874256
    9   -2692.4152858571      3.83e-06  
 Alpha HF Exchange    Energy = -10.74408524088842
 Beta HF Exchange     Energy = -10.74408524088841
 DFT Correlation      Energy =  -3.14046800547855
 DFT Exchange         Energy = -85.48358004415194
 One-Electron (alpha) Energy = -2096.49212438079121
 One-Electron (beta)  Energy = -2096.49212438079030
 Total Coulomb        Energy = 1383.32540576137126
   10   -2692.4152859577      3.54e-07  Convergence criterion met
 ---------------------------------------
 SCF time:   CPU 28.27s  wall 2.00s 
<S^2> =         -0.000000000
 Alpha HF Exchange    Energy = -10.74408524088842
 Beta HF Exchange     Energy = -10.74408524088841
 DFT Correlation      Energy =  -3.14046800547855
 DFT Exchange         Energy = -85.48358004415194
 One-Electron (alpha) Energy = -2096.49212438079121
 One-Electron (beta)  Energy = -2096.49212438079030
 Total Coulomb        Energy = 1383.32540576137126
 Nuclear repulsion Energy = 227.35577557389163
 SCF   energy in the final basis set =    -2692.4152859577
 Total energy in the final basis set =    -2692.4152859577
 
 --------------------------------------------------------------
 
                    Orbital Energies (a.u.)
 --------------------------------------------------------------
 
 Alpha MOs
 -- Occupied --
******* -62.471 -56.292 -56.289 -56.289 -10.286 -10.212 -10.212
 -8.657  -6.485  -6.475  -6.475  -2.579  -2.576  -2.576  -2.568
 -2.568  -0.828  -0.726  -0.706  -0.604  -0.490  -0.462  -0.443
 -0.418  -0.390  -0.385  -0.286  -0.251  -0.250
 -- Virtual --
 -0.089   0.076   0.110   0.128   0.142   0.148   0.158   0.169
  0.208   0.246   0.248   0.363   0.373   0.376   0.462   0.469
  0.517   0.531   0.538   0.598   0.631   0.643   0.676   0.695
  0.715   0.725   0.766   0.770   0.844   0.847   0.856   0.871
  0.893   0.923   0.931   1.055   1.265   1.328   1.333   1.358
  1.507   1.643   1.754   1.804   1.849   1.858   1.872   1.993
  2.013   2.016   2.045   2.070   2.077   2.084   2.224   2.252
  2.330   2.368   2.486   2.547   2.596   2.635   2.674   2.722
  2.839   2.845   2.871   2.902   3.148   3.193   3.318   3.390
  3.430   3.436   3.454   4.200   4.451   4.551   4.764   4.766
  4.787   4.794   4.916   6.326  90.322
 
 Beta MOs
 -- Occupied --
******* -62.471 -56.292 -56.289 -56.289 -10.286 -10.212 -10.212
 -8.657  -6.485  -6.475  -6.475  -2.579  -2.576  -2.576  -2.568
 -2.568  -0.828  -0.726  -0.706  -0.604  -0.490  -0.462  -0.443
 -0.418  -0.390  -0.385  -0.286  -0.251  -0.250
 -- Virtual --
 -0.089   0.076   0.110   0.128   0.142   0.148   0.158   0.169
  0.208   0.246   0.248   0.363   0.373   0.376   0.462   0.469
  0.517   0.531   0.538   0.598   0.631   0.643   0.676   0.695
  0.715   0.725   0.766   0.770   0.844   0.847   0.856   0.871
  0.893   0.923   0.931   1.055   1.265   1.328   1.333   1.358
  1.507   1.643   1.754   1.804   1.849   1.858   1.872   1.993
  2.013   2.016   2.045   2.070   2.077   2.084   2.224   2.252
  2.330   2.368   2.486   2.547   2.596   2.635   2.674   2.722
  2.839   2.845   2.871   2.902   3.148   3.193   3.318   3.390
  3.430   3.436   3.454   4.200   4.451   4.551   4.764   4.766
  4.787   4.794   4.916   6.326  90.322
 --------------------------------------------------------------
 
          Ground-State Mulliken Net Atomic Charges

     Atom                 Charge (a.u.)    Spin (a.u.)
  --------------------------------------------------------
      1 Br                   -0.345025      -0.000000
      2 C                    -0.035909       0.000000
      3 C                    -0.322575       0.000000
      4 C                    -0.322574      -0.000000
      5 H                     0.167604      -0.000000
      6 H                     0.154441       0.000000
      7 H                     0.127078      -0.000000
      8 H                     0.147721      -0.000000
      9 H                     0.154443       0.000000
     10 H                     0.127078       0.000000
     11 H                     0.147718       0.000000
  --------------------------------------------------------
  Sum of atomic charges =    -0.000000
  Sum of spin   charges =    -0.000000

 -----------------------------------------------------------------
                    Cartesian Multipole Moments
 -----------------------------------------------------------------
    Charge (ESU x 10^10)
                 0.0000
    Dipole Moment (Debye)
         X      -4.7356      Y       0.0012      Z       0.6285
       Tot       4.7771
    Quadrupole Moments (Debye-Ang)
        XX     -44.6255     XY       0.0019     YY     -37.2222
        XZ       0.0339     YZ      -0.0000     ZZ     -38.2195
    Octopole Moments (Debye-Ang^2)
       XXX     -88.5484    XXY       0.0087    XYY     -28.0803
       YYY       0.0225    XXZ       1.2790    XYZ       0.0003
       YYZ       2.3220    XZZ     -27.5403    YZZ       0.0073
       ZZZ       5.9033
    Hexadecapole Moments (Debye-Ang^3)
      XXXX    -629.3911   XXXY       0.0506   XXYY    -144.4247
      XYYY       0.0583   YYYY    -207.3795   XXXZ       2.5887
      XXYZ       0.0015   XYYZ       3.7751   YYYZ      -0.0025
      XXZZ    -121.8387   XYZZ       0.0188   YYZZ     -48.3538
      XZZZ      11.1971   YZZZ      -0.0022   ZZZZ     -70.2302
 -----------------------------------------------------------------
 Calculating analytic gradient of the SCF energy
 Gradient of SCF Energy
            1           2           3           4           5           6
    1   0.0350991  -0.0351335   0.0000546   0.0000546   0.0000128  -0.0000142
    2  -0.0000090   0.0000090   0.0000037  -0.0000037  -0.0000001  -0.0000009
    3  -0.0077857   0.0077605  -0.0000326  -0.0000325  -0.0000008   0.0000233
            7           8           9          10          11
    1  -0.0000066  -0.0000231  -0.0000141  -0.0000065  -0.0000231
    2  -0.0000144   0.0000022   0.0000009   0.0000145  -0.0000021
    3   0.0000147   0.0000074   0.0000234   0.0000148   0.0000075
 Max gradient component =       3.513E-02
 RMS gradient           =       8.854E-03
 Gradient time:  CPU 10.83 s  wall 0.96 s
 Geometry Optimization Parameters
   NAtoms,    NIC,     NZ,  NCons,   NDum,   NFix, NCnnct, MaxDiis
       11      68       0       1       0       0       0       0

 Cartesian Hessian Update
 Hessian Updated using BFGS Update


** CONSTRAINED OPTIMIZATION IN DELOCALIZED INTERNAL COORDINATES **
   Searching for a Minimum

   Optimization Cycle:   6

                       Coordinates (Angstroms)
     ATOM                X               Y               Z
      1  Br        2.1014994333   -0.0005437108   -0.1144598071
      2  C        -0.3405231884    0.0000802714    0.4208201100
      3  C        -0.8331911803   -1.2890720508   -0.1499907245
      4  C        -0.8325366750    1.2894703652   -0.1500143625
      5  H        -0.1608105089    0.0000472687    1.4926324192
      6  H        -0.2932782245   -2.1468675435    0.2524907786
      7  H        -1.8947256908   -1.3920109342    0.1289269885
      8  H        -0.7722439618   -1.3003496882   -1.2405236053
      9  H        -0.2921417062    2.1469884225    0.2524088279
     10  H        -1.8939997403    1.3929818686    0.1289614279
     11  H        -0.7716475571    1.3006767311   -1.2405510526
   Point Group: c1    Number of degrees of freedom:    27


   Energy is  -2692.415285958

              Constraints and their Current Values
                                        Value     Constraint
   Distance(Angs):        1   2             2.500000     2.500000
 Hessian Updated using BFGS Update

 22 Hessian modes will be used to form the next step
  Hessian Eigenvalues:
     0.022766    0.043989    0.045000    0.061151    0.081560    0.081728
     0.085468    0.085517    0.131486    0.158669    0.160000    0.160252
     0.182549    0.183630    0.200558    0.325768    0.329681    0.335280
     0.342767    0.346255    0.350352    0.351550

 Minimum Search - Taking Simple RFO Step
 Searching for Lamda that Minimizes Along All modes
 Value Taken    Lamda =   0.00000000
 Step Taken.  Stepsize is  0.001972

                             Maximum     Tolerance    Cnvgd?
         Gradient           0.000066      0.000300     YES
         Displacement       0.000941      0.001200     YES
         Energy change     -0.000001      0.000001     YES


                       Distance Matrix (Angstroms)
             Br(  1)   C (  2)   C (  3)   C (  4)   H (  5)   H (  6)
   C (  2)  2.500000
   C (  3)  3.205304  1.493473
   C (  4)  3.205303  1.493471  2.578542
   H (  5)  2.775030  1.086774  2.193658  2.193654
   H (  6)  3.236714  2.154055  1.090555  3.501604  2.482890
   H (  7)  4.238541  2.106814  1.102382  2.897653  2.608444  1.774742
   H (  8)  3.349017  2.153500  1.092293  2.810696  3.087884  1.781879
   H (  9)  3.236666  2.154047  3.501596  1.090554  2.482893  4.293856
   H ( 10)  4.238535  2.106809  2.897679  1.102382  2.608411  3.886914
   H ( 11)  3.349064  2.153503  2.810678  1.092293  3.087888  3.787291
             H (  7)   H (  8)   H (  9)   H ( 10)
   H (  8)  1.773066
   H (  9)  3.886906  3.787279
   H ( 10)  2.784993  3.223020  1.774743
   H ( 11)  3.222940  2.601026  1.781881  1.773065
 
 Final energy is   -2692.41528595773     


 ******************************
 **  OPTIMIZATION CONVERGED  **
 ******************************

                       Coordinates (Angstroms)
     ATOM                X               Y               Z
      1  Br        2.1014994333   -0.0005437108   -0.1144598071
      2  C        -0.3405231884    0.0000802714    0.4208201100
      3  C        -0.8331911803   -1.2890720508   -0.1499907245
      4  C        -0.8325366750    1.2894703652   -0.1500143625
      5  H        -0.1608105089    0.0000472687    1.4926324192
      6  H        -0.2932782245   -2.1468675435    0.2524907786
      7  H        -1.8947256908   -1.3920109342    0.1289269885
      8  H        -0.7722439618   -1.3003496882   -1.2405236053
      9  H        -0.2921417062    2.1469884225    0.2524088279
     10  H        -1.8939997403    1.3929818686    0.1289614279
     11  H        -0.7716475571    1.3006767311   -1.2405510526

Z-matrix Print:
$molecule
0 1
Br
C  1 2.500000
H  2 1.086774 1 92.845089
C  2 1.493471 1 103.897191 3 117.214116 0
H  4 1.090554 2 111.998130 1 -56.651143 0
H  4 1.092293 2 111.845093 1 66.617461 0
H  4 1.102382 2 107.550989 1 -175.228150 0
C  2 1.493473 1 103.897209 3 -117.214385 0
H  8 1.090555 2 111.998609 1 56.654746 0
H  8 1.092293 2 111.844793 1 -66.613683 0
H  8 1.102382 2 107.551214 1 175.231929 0
$end

PES scan, value:    2.5000 energy: -2692.4152859577
------- Summary of potential scan: ------ 
    2.5000     -2692.4152859577
----------------------------------------- 
Archival summary:
1\1\hpc0242\JobtypUnspecified\ProcedureUnspecified\6-31G**\r137\knomura\WedMar1314:11:322019WedMar1314:11:322019\0\\#,JobtypUnspecified,ProcedureUnspecified,6-31G**,\\0,1\Br\C,1,2.5\H,2,1.08677,1,92.8451\C,2,1.49347,1,103.897,3,117.214,0\H,4,1.09055,2,111.998,1,-56.6511,0\H,4,1.09229,2,111.845,1,66.6175,0\H,4,1.10238,2,107.551,1,-175.228,0\C,2,1.49347,1,103.897,3,-117.214,0\H,8,1.09056,2,111.999,1,56.6547,0\H,8,1.09229,2,111.845,1,-66.6137,0\H,8,1.10238,2,107.551,1,175.232,0\\\@

 Total job time:  23.50s(wall), 268.30s(cpu) 
 Wed Mar 13 14:11:32 2019

        *************************************************************
        *                                                           *
        *  Thank you very much for using Q-Chem.  Have a nice day.  *
        *                                                           *
        *************************************************************


