
Running Job 1 of 1 halogens/Bromine/01/Br_2.xyz.data/inputs/bond_triplet_2.9.in
qchem halogens/Bromine/01/Br_2.xyz.data/inputs/bond_triplet_2.9.in_23190.0 /staging/scratch/2868759/qchem23190/ 1
/usr/usc/qchem/5.1.1/exe/qcprog.exe_s halogens/Bromine/01/Br_2.xyz.data/inputs/bond_triplet_2.9.in_23190.0 /staging/scratch/2868759/qchem23190/
Check license passed

                  Welcome to Q-Chem
     A Quantum Leap Into The Future Of Chemistry


 Q-Chem 5.1, Q-Chem, Inc., Pleasanton, CA (2018)

 Yihan Shao,  Zhengting Gan,  E. Epifanovsky,  A. T. B. Gilbert,  M. Wormit,  
 J. Kussmann,  A. W. Lange,  A. Behn,  Jia Deng,  Xintian Feng,  D. Ghosh,  
 M. Goldey,  P. R. Horn,  L. D. Jacobson,  I. Kaliman,  T. Kus,  A. Landau,  
 Jie Liu,  E. I. Proynov,  R. M. Richard,  R. P. Steele,  E. J. Sundstrom,  
 H. L. Woodcock III,  P. M. Zimmerman,  D. Zuev,  B. Albrecht,  E. Alguire,  
 S. A. Baeppler,  D. Barton,  Z. Benda,  Y. A. Bernard,  E. J. Berquist,  
 K. B. Bravaya,  H. Burton,  D. Casanova,  Chun-Min Chang,  Yunqing Chen,  
 A. Chien,  K. D. Closser,  M. P. Coons,  S. Coriani,  S. Dasgupta,  
 A. L. Dempwolff,  M. Diedenhofen,  Hainam Do,  R. G. Edgar,  Po-Tung Fang,  
 S. Faraji,  S. Fatehi,  Qingguo Feng,  K. D. Fenk,  J. Fosso-Tande,  
 Qinghui Ge,  A. Ghysels,  G. Gidofalvi,  J. Gomes,  J. Gonthier,  A. Gunina,  
 D. Hait,  M. W. D. Hanson-Heine,  P. H. P. Harbach,  A. W. Hauser,  
 J. E. Herr,  E. G. Hohenstein,  Z. C. Holden,  Kerwin Hui,  B. C. Huynh,  
 T.-C. Jagau,  Hyunjun Ji,  B. Kaduk,  K. Khistyaev,  Jaehoon Kim,  
 P. Klunzinger,  K. Koh,  D. Kosenkov,  L. Koulias,  T. Kowalczyk,  
 C. M. Krauter,  A. Kunitsa,  Ka Un Lao,  A. Laurent,  K. V. Lawler,  
 Joonho Lee,  D. Lefrancois,  S. Lehtola,  D. S. Levine,  Yi-Pei Li,  
 You-Sheng Lin,  Fenglai Liu,  E. Livshits,  A. Luenser,  P. Manohar,  
 E. Mansoor,  S. F. Manzer,  Shan-Ping Mao,  Yuezhi Mao,  N. Mardirossian,  
 A. V. Marenich,  T. Markovich,  L. A. Martinez-Martinez,  S. A. Maurer,  
 N. J. Mayhall,  S. C. McKenzie,  J.-M. Mewes,  A. F. Morrison,  
 J. W. Mullinax,  K. Nanda,  T. S. Nguyen-Beck,  R. Olivares-Amaya,  
 J. A. Parkhill,  T. M. Perrine,  F. Plasser,  P. Pokhilko,  S. Prager,  
 A. Prociuk,  E. Ramos,  D. R. Rehn,  F. Rob,  M. Schneider,  N. Sergueev,  
 S. M. Sharada,  S. Sharma,  D. W. Small,  T. Stauch,  T. Stein,  
 Yu-Chuan Su,  A. J. W. Thom,  A. Tkatchenko,  T. Tsuchimochi,  N. M. Tubman,  
 L. Vogt,  M. L. Vidal,  O. Vydrov,  M. A. Watson,  J. Wenzel,  
 M. de Wergifosse,  T. A. Wesolowski,  A. White,  J. Witte,  A. Yamada,  
 Jun Yang,  K. Yao,  S. Yeganeh,  S. R. Yost,  Zhi-Qiang You,  A. Zech,  
 Igor Ying Zhang,  Xing Zhang,  Yan Zhao,  Ying Zhu,  B. R. Brooks,  
 G. K. L. Chan,  C. J. Cramer,  M. S. Gordon,  W. J. Hehre,  A. Klamt,  
 M. W. Schmidt,  C. D. Sherrill,  D. G. Truhlar,  A. Aspuru-Guzik,  R. Baer,  
 A. T. Bell,  N. A. Besley,  Jeng-Da Chai,  A. E. DePrince, III,  
 R. A. DiStasio Jr.,  A. Dreuw,  B. D. Dunietz,  T. R. Furlani,  
 Chao-Ping Hsu,  Yousung Jung,  Jing Kong,  D. S. Lambrecht,  WanZhen Liang,  
 C. Ochsenfeld,  V. A. Rassolov,  L. V. Slipchenko,  J. E. Subotnik,  
 T. Van Voorhis,  J. M. Herbert,  A. I. Krylov,  P. M. W. Gill,  M. Head-Gordon

 Contributors to earlier versions of Q-Chem not listed above: 
 R. D. Adamson,  B. Austin,  J. Baker,  G. J. O. Beran,  K. Brandhorst,  
 S. T. Brown,  E. F. C. Byrd,  A. K. Chakraborty,  C.-L. Cheng,  
 Siu Hung Chien,  D. M. Chipman,  D. L. Crittenden,  H. Dachsel,  
 R. J. Doerksen,  A. D. Dutoi,  L. Fusti-Molnar,  W. A. Goddard III,  
 A. Golubeva-Zadorozhnaya,  S. R. Gwaltney,  G. Hawkins,  A. Heyden,  
 S. Hirata,  G. Kedziora,  F. J. Keil,  C. Kelley,  Jihan Kim,  R. A. King,  
 R. Z. Khaliullin,  P. P. Korambath,  W. Kurlancheek,  A. M. Lee,  M. S. Lee,  
 S. V. Levchenko,  Ching Yeh Lin,  D. Liotard,  R. C. Lochan,  I. Lotan,  
 P. E. Maslen,  N. Nair,  D. P. O'Neill,  D. Neuhauser,  E. Neuscamman,  
 C. M. Oana,  R. Olson,  B. Peters,  R. Peverati,  P. A. Pieniazek,  
 Y. M. Rhee,  J. Ritchie,  M. A. Rohrdanz,  E. Rosta,  N. J. Russ,  
 H. F. Schaefer III,  N. E. Schultz,  N. Shenvi,  A. C. Simmonett,  A. Sodt,  
 D. Stuck,  K. S. Thanthiriwatte,  V. Vanovschi,  Tao Wang,  A. Warshel,  
 C. F. Williams,  Q. Wu,  X. Xu,  W. Zhang

 Please cite Q-Chem as follows:
 Y. Shao et al., Mol. Phys. 113, 184-215 (2015)
 DOI: 10.1080/00268976.2014.952696

 Q-Chem 5.1.1 for Intel X86 EM64T Linux

 Parts of Q-Chem use Armadillo 8.300.2 (Tropical Shenanigans).
 http://arma.sourceforge.net/

 Q-Chem begins on Wed Mar 13 15:20:26 2019  

Host: 
0

     Scratch files written to /staging/scratch/2868759/qchem23190//
 Aug318 |scratch|qcdevops|jenkins|workspace|build_RNUM 6013   
Processing $rem in /usr/usc/qchem/5.1.1/config/preferences.
 MEM_TOTAL  2000 
Input Ideriv = 2
Curr. Ideriv = -1
Max.  Ideriv = 2

Checking the input file for inconsistencies... 	...done.

--------------------------------------------------------------
User input:
--------------------------------------------------------------

$comment
potential surface scanner
$end

$rem
JOBTYPE  PES_SCAN
UNRESTRICTED TRUE
SYM_IGNORE  TRUE
GEOM_OPT_MAX_CYCLES 400
SCF_MAX_CYCLES 400
METHOD   B3LYP
BASIS   6-31G**
PDB_PRINT 2
SCF_CONVERGENCE 6
THRESH 14
SCF_PRINT 1
$end
$molecule
0 3
Br 2.391702 0.002360 -0.254862
C -0.505133 -0.000172 0.525100
C -0.865922 -1.296252 -0.124016
C -0.864540 1.296021 -0.124428
H -0.308708 -0.000027 1.594751
H -0.386150 -2.149873 0.367229
H -1.953831 -1.486743 -0.100125
H -0.577718 -1.308952 -1.183980
H -0.385869 2.149606 0.367948
H -1.952522 1.486537 -0.102779
H -0.574913 1.308894 -1.184134
$end
$scan
stre 1 2 2.900000 2.901000 0.100000
$end
--------------------------------------------------------------
 ----------------------------------------------------------------
             Standard Nuclear Orientation (Angstroms)
    I     Atom           X                Y                Z
 ----------------------------------------------------------------
    1      Br      2.3917020000     0.0023600000    -0.2548620000
    2      C      -0.5051330000    -0.0001720000     0.5251000000
    3      C      -0.8659220000    -1.2962520000    -0.1240160000
    4      C      -0.8645400000     1.2960210000    -0.1244280000
    5      H      -0.3087080000    -0.0000270000     1.5947510000
    6      H      -0.3861500000    -2.1498730000     0.3672290000
    7      H      -1.9538310000    -1.4867430000    -0.1001250000
    8      H      -0.5777180000    -1.3089520000    -1.1839800000
    9      H      -0.3858690000     2.1496060000     0.3679480000
   10      H      -1.9525220000     1.4865370000    -0.1027790000
   11      H      -0.5749130000     1.3088940000    -1.1841340000
 ----------------------------------------------------------------
 Nuclear Repulsion Energy =   210.7536329588 hartrees
 There are       31 alpha and       29 beta electrons
 Requested basis set is 6-31G(d,p)
 There are 41 shells and 115 basis functions

 Total QAlloc Memory Limit   2000 MB
 Mega-Array Size       188 MB
 MEM_STATIC part       192 MB
A total of 1 constraints
  
            1
    1   1.0100000
    2   1.0100000
    3   2.0100000
    4   2.9000000
    5   2.9010000
    6   0.1000000
    7   0.0000000
    8   0.0000000
    9   0.0000000
   10   0.0000000

                       Distance Matrix (Angstroms)
             Br(  1)   C (  2)   C (  3)   C (  4)   H (  5)   H (  6)
   C (  2)  3.000000
   C (  3)  3.509363  1.493768
   C (  4)  3.506235  1.493712  2.592273
   H (  5)  3.273116  1.087537  2.223701  2.223571
   H (  6)  3.568692  2.158772  1.095523  3.513512  2.476822
   H (  7)  4.596197  2.167839  1.104719  2.988465  2.790942  1.765159
   H (  8)  3.376426  2.153864  1.098520  2.826801  3.083342  1.774851
   H (  9)  3.565594  2.158811  3.513747  1.095522  2.476272  4.299479
   H ( 10)  4.593277  2.167826  2.987485  1.104749  2.791703  3.987218
   H ( 11)  3.372148  2.154067  2.827600  1.098647  3.083235  3.795448
             H (  7)   H (  8)   H (  9)   H ( 10)
   H (  8)  1.760693
   H (  9)  3.987560  3.795644
   H ( 10)  2.973281  3.297551  1.765119
   H ( 11)  3.300315  2.617848  1.775244  1.760310
 
 A cutoff of  1.0D-14 yielded    808 shell pairs
 There are      6447 function pairs
 
 -------------------------------------------------------
 OpenMP Integral Computing Module                       
 Release: version 1.0, May 2013, Q-Chem Inc. Pittsburgh 
 -------------------------------------------------------
 Integral Job Info:
 Integral job number is                      11
 Integral operator is                         1
 short-range coefficients                     0
 long-range coefficients              100000000
 Omega coefficients                           0
 if combine SR and LR in K                    0
 Integral screening is                        0
 Integral computing path is                   2
 max size of driver memory is            800000
 size of driver memory is                593474
 size of scratch memory is             15267112
 max col of scratch BK array               1296
 max len of scratch array in speh3          155
 max len of scratch index in speh4           18
 max int batch size is                      520
 min int batch size is                       52
 fixed nKL is                                52
 max L of basis functions is                  2
 order of int derivative is                   0
 number of shells is                         41
 number of basis is                         115
 number of cartesian basis is               115
 number of contracted shell pairs           808
 number of primitive shell pairs           3102
 maxK2 (contraction) of shell pair           36
 max number of K2 of shell pair               1
 max number of CS2 of shell pair             59
 max number of PS2 of shell pair            270
 mem total for path MDJ                  520956
 -------------------------------------------------------
 Smallest overlap matrix eigenvalue = 7.26E-04

 Scale SEOQF with 1.000000e-01/1.000000e-01/1.000000e-01

 Standard Electronic Orientation quadrupole field applied
 Nucleus-field energy     =     0.0000000095 hartrees
 Guess from superposition of atomic densities
 Warning:  Energy on first SCF cycle will be non-variational
 SAD guess density has 59.972873 electrons

 -----------------------------------------------------------------------
  General SCF calculation program by
  Eric Jon Sundstrom, Paul Horn, Yuezhi Mao, Dmitri Zuev, Alec White,
  David Stuck, Shaama M.S., Shane Yost, Joonho Lee, David Small,
  Daniel Levine, Susi Lehtola, Hugh Burton, Evgeny Epifanovsky
 -----------------------------------------------------------------------
 Exchange:     0.2000 Hartree-Fock + 0.0800 Slater + 0.7200 B88
 Correlation:  0.1900 VWN1RPA + 0.8100 LYP
 Using SG-1 standard quadrature grid
 using 12 threads for integral computing
 -------------------------------------------------------
 OpenMP Integral computing Module                
 Release: version 1.0, May 2013, Q-Chem Inc. Pittsburgh 
 -------------------------------------------------------
 -------------------------------------------------------
 OpenMP BLAS3 based DFT computing Module                
 Release: version 1.0, May 2013, Q-Chem Inc. Pittsburgh 
 -------------------------------------------------------
 A unrestricted SCF calculation will be
 performed using DIIS
 SCF converges when DIIS error is below 1.0e-06
 Alpha HF Exchange    Energy = -10.71664810588168
 Beta HF Exchange     Energy = -10.71664810588168
 DFT Correlation      Energy =  -3.11040069203033
 DFT Exchange         Energy = -84.98142626331314
 One-Electron (alpha) Energy = -2077.36329556422243
 One-Electron (beta)  Energy = -2077.36329556422243
 Total Coulomb        Energy = 1357.84223941896721
 ---------------------------------------
  Cycle       Energy         DIIS error
 ---------------------------------------
    1   -2695.6558419083      1.64e-01  
 Alpha HF Exchange    Energy = -10.89912846086498
 Beta HF Exchange     Energy = -10.69898921944912
 DFT Correlation      Energy =  -3.14380400852616
 DFT Exchange         Energy = -85.90733367243800
 One-Electron (alpha) Energy = -2102.45250650367279
 One-Electron (beta)  Energy = -2063.66208206633974
 Total Coulomb        Energy = 1373.80883795145996
    2   -2692.2013730116      9.61e-03  
 Alpha HF Exchange    Energy = -10.79995857886987
 Beta HF Exchange     Energy = -10.61111910602888
 DFT Correlation      Energy =  -3.10719343971733
 DFT Exchange         Energy = -85.13859246864467
 One-Electron (alpha) Energy = -2094.37444427419086
 One-Electron (beta)  Energy = -2056.20952669102780
 Total Coulomb        Energy = 1357.29393389156439
    3   -2692.1932676987      4.48e-03  
 Alpha HF Exchange    Energy = -10.87523752529900
 Beta HF Exchange     Energy = -10.67758848859770
 DFT Correlation      Energy =  -3.13490513511163
 DFT Exchange         Energy = -85.71543004838111
 One-Electron (alpha) Energy = -2100.39638243052832
 One-Electron (beta)  Energy = -2061.52737258675006
 Total Coulomb        Energy = 1369.29949314032865
    4   -2692.2737901061      2.69e-03  
 Alpha HF Exchange    Energy = -10.85136120411881
 Beta HF Exchange     Energy = -10.65704627683512
 DFT Correlation      Energy =  -3.12490058911211
 DFT Exchange         Energy = -85.53138165448919
 One-Electron (alpha) Energy = -2098.69526374035968
 One-Electron (beta)  Energy = -2059.98890592123416
 Total Coulomb        Energy = 1365.77463481323480
    5   -2692.3205916047      2.76e-04  
 Alpha HF Exchange    Energy = -10.84952104997847
 Beta HF Exchange     Energy = -10.65516091514999
 DFT Correlation      Energy =  -3.12479079191488
 DFT Exchange         Energy = -85.51734816795184
 One-Electron (alpha) Energy = -2098.48032546441527
 One-Electron (beta)  Energy = -2059.78839704047368
 Total Coulomb        Energy = 1365.34106330529607
    6   -2692.3208471563      5.16e-05  
 Alpha HF Exchange    Energy = -10.84934038885785
 Beta HF Exchange     Energy = -10.65513941156613
 DFT Correlation      Energy =  -3.12460489223982
 DFT Exchange         Energy = -85.51624992370236
 One-Electron (alpha) Energy = -2098.46983142861473
 One-Electron (beta)  Energy = -2059.77958270987665
 Total Coulomb        Energy = 1365.32025182764187
    7   -2692.3208639590      1.24e-05  
 Alpha HF Exchange    Energy = -10.84945792921975
 Beta HF Exchange     Energy = -10.65521819207029
 DFT Correlation      Energy =  -3.12461470404580
 DFT Exchange         Energy = -85.51699245513754
 One-Electron (alpha) Energy = -2098.48115429554900
 One-Electron (beta)  Energy = -2059.78875804905920
 Total Coulomb        Energy = 1365.34169707954493
    8   -2692.3208655773      7.14e-06  
 Alpha HF Exchange    Energy = -10.84945429255948
 Beta HF Exchange     Energy = -10.65524003518389
 DFT Correlation      Energy =  -3.12461147628058
 DFT Exchange         Energy = -85.51705157645267
 One-Electron (alpha) Energy = -2098.48016352977584
 One-Electron (beta)  Energy = -2059.78790456131810
 Total Coulomb        Energy = 1365.33992627763473
    9   -2692.3208662257      2.45e-06  
 Alpha HF Exchange    Energy = -10.84944904717582
 Beta HF Exchange     Energy = -10.65523703676608
 DFT Correlation      Energy =  -3.12460692551602
 DFT Exchange         Energy = -85.51701411105907
 One-Electron (alpha) Energy = -2098.47937125457929
 One-Electron (beta)  Energy = -2059.78750107618635
 Total Coulomb        Energy = 1365.33867988517613
   10   -2692.3208665979      1.42e-06  
 Alpha HF Exchange    Energy = -10.84944750728100
 Beta HF Exchange     Energy = -10.65523708554620
 DFT Correlation      Energy =  -3.12460637375466
 DFT Exchange         Energy = -85.51700883589751
 One-Electron (alpha) Energy = -2098.47926498678680
 One-Electron (beta)  Energy = -2059.78760163443576
 Total Coulomb        Energy = 1365.33866652428833
   11   -2692.3208669312      1.40e-06  
 Alpha HF Exchange    Energy = -10.84944750696975
 Beta HF Exchange     Energy = -10.65523714662951
 DFT Correlation      Energy =  -3.12460637204770
 DFT Exchange         Energy = -85.51700921647411
 One-Electron (alpha) Energy = -2098.47926554943933
 One-Electron (beta)  Energy = -2059.78761840979178
 Total Coulomb        Energy = 1365.33868421936859
   12   -2692.3208670137      1.41e-06  
 Alpha HF Exchange    Energy = -10.84944847467887
 Beta HF Exchange     Energy = -10.65523849689882
 DFT Correlation      Energy =  -3.12460660618625
 DFT Exchange         Energy = -85.51701566052571
 One-Electron (alpha) Energy = -2098.47942047221204
 One-Electron (beta)  Energy = -2059.78765129209478
 Total Coulomb        Energy = 1365.33888305446112
   13   -2692.3208649799      1.22e-06  
 Alpha HF Exchange    Energy = -10.84944671769306
 Beta HF Exchange     Energy = -10.65524235941866
 DFT Correlation      Energy =  -3.12460625222163
 DFT Exchange         Energy = -85.51701983722386
 One-Electron (alpha) Energy = -2098.47917372796928
 One-Electron (beta)  Energy = -2059.78781307729332
 Total Coulomb        Energy = 1365.33880766005268
   14   -2692.3208613435      1.09e-06  
 Alpha HF Exchange    Energy = -10.84944566514728
 Beta HF Exchange     Energy = -10.65524340699888
 DFT Correlation      Energy =  -3.12460624069137
 DFT Exchange         Energy = -85.51701943866038
 One-Electron (alpha) Energy = -2098.47905161081871
 One-Electron (beta)  Energy = -2059.78790274806352
 Total Coulomb        Energy = 1365.33877550064767
   15   -2692.3208606415      9.32e-07  Convergence criterion met
 ---------------------------------------
 SCF time:   CPU 41.91s  wall 4.00s 
<S^2> =          2.005356136
 Alpha HF Exchange    Energy = -10.84944566514728
 Beta HF Exchange     Energy = -10.65524340699888
 DFT Correlation      Energy =  -3.12460624069137
 DFT Exchange         Energy = -85.51701943866038
 One-Electron (alpha) Energy = -2098.47905161081871
 One-Electron (beta)  Energy = -2059.78790274806352
 Total Coulomb        Energy = 1365.33877550064767
 Nuclear repulsion Energy = 210.75363296825464
 SCF   energy in the final basis set =    -2692.3208606415
 Total energy in the final basis set =    -2692.3208606415
 
 --------------------------------------------------------------
 
                    Orbital Energies (a.u.)
 --------------------------------------------------------------
 
 Alpha MOs
 -- Occupied --
******* -62.550 -56.374 -56.367 -56.367 -10.181 -10.175 -10.175
 -8.737  -6.574  -6.552  -6.552  -2.665  -2.659  -2.659  -2.643
 -2.643  -0.794  -0.773  -0.685  -0.565  -0.446  -0.426  -0.403
 -0.383  -0.363  -0.349  -0.342  -0.318  -0.316  -0.170
 -- Virtual --
  0.099   0.128   0.142   0.172   0.182   0.182   0.190   0.198
  0.255   0.289   0.306   0.326   0.358   0.492   0.496   0.506
  0.531   0.549   0.553   0.556   0.568   0.657   0.697   0.725
  0.725   0.750   0.758   0.859   0.861   0.873   0.883   0.923
  0.937   0.950   0.995   1.272   1.302   1.355   1.363   1.536
  1.669   1.731   1.812   1.819   1.870   1.901   2.001   2.048
  2.052   2.084   2.112   2.120   2.138   2.277   2.284   2.380
  2.388   2.492   2.550   2.603   2.680   2.730   2.763   2.845
  2.866   2.912   2.963   3.160   3.206   3.356   3.424   3.437
  3.458   3.525   4.218   4.488   4.559   4.664   4.664   4.677
  4.698   4.768   6.233  90.195
 
 Beta MOs
 -- Occupied --
******* -62.548 -56.369 -56.366 -56.365 -10.176 -10.176 -10.167
 -8.733  -6.563  -6.550  -6.550  -2.657  -2.653  -2.653  -2.642
 -2.642  -0.761  -0.744  -0.683  -0.544  -0.441  -0.409  -0.397
 -0.375  -0.345  -0.337  -0.303  -0.299
 -- Virtual --
 -0.229  -0.021   0.101   0.132   0.146   0.180   0.187   0.190
  0.192   0.210   0.266   0.298   0.331   0.331   0.366   0.503
  0.508   0.540   0.551   0.558   0.587   0.596   0.599   0.676
  0.705   0.735   0.755   0.760   0.761   0.865   0.867   0.880
  0.887   0.930   0.941   0.954   1.015   1.290   1.311   1.361
  1.385   1.536   1.677   1.750   1.824   1.842   1.897   1.921
  2.027   2.053   2.058   2.088   2.115   2.125   2.146   2.287
  2.293   2.382   2.400   2.513   2.567   2.615   2.684   2.734
  2.768   2.851   2.872   2.919   2.968   3.164   3.211   3.362
  3.427   3.440   3.463   3.530   4.238   4.488   4.571   4.679
  4.680   4.691   4.701   4.777   6.249  90.201
 --------------------------------------------------------------
 
          Ground-State Mulliken Net Atomic Charges

     Atom                 Charge (a.u.)    Spin (a.u.)
  --------------------------------------------------------
      1 Br                    0.007389       1.019603
      2 C                    -0.070928       0.996590
      3 C                    -0.331226      -0.074804
      4 C                    -0.331794      -0.074724
      5 H                     0.087466      -0.043788
      6 H                     0.103857       0.007104
      7 H                     0.107488       0.059259
      8 H                     0.108169       0.022125
      9 H                     0.104398       0.007061
     10 H                     0.107735       0.059335
     11 H                     0.107447       0.022239
  --------------------------------------------------------
  Sum of atomic charges =    -0.000000
  Sum of spin   charges =     2.000000

 -----------------------------------------------------------------
                    Cartesian Multipole Moments
 -----------------------------------------------------------------
    Charge (ESU x 10^10)
                 0.0000
    Dipole Moment (Debye)
         X      -0.3385      Y       0.0006      Z       0.0137
       Tot       0.3388
    Quadrupole Moments (Debye-Ang)
        XX     -40.5435     XY      -0.0402     YY     -36.6388
        XZ       0.3012     YZ      -0.1423     ZZ     -39.2383
    Octopole Moments (Debye-Ang^2)
       XXX     -90.2044    XXY      -0.2120    XYY     -21.9829
       YYY      -0.0999    XXZ       3.6837    XYZ      -0.3491
       YYZ       3.8131    XZZ     -28.4733    YZZ       0.0318
       ZZZ      11.0814
    Hexadecapole Moments (Debye-Ang^3)
      XXXX    -792.4951   XXXY      -1.0529   XXYY    -152.9065
      XYYY      -0.3787   YYYY    -221.6128   XXXZ      34.2776
      XXYZ      -0.8563   XYYZ       9.4236   YYYZ      -0.1015
      XXZZ    -148.0131   XYZZ       0.0435   YYZZ     -51.3796
      XZZZ      33.3860   YZZZ      -0.1355   ZZZZ     -84.0190
 -----------------------------------------------------------------
 Calculating analytic gradient of the SCF energy
 Gradient of SCF Energy
            1           2           3           4           5           6
    1  -0.0104446   0.0106565  -0.0000606  -0.0000455  -0.0002032  -0.0000087
    2  -0.0000135   0.0000472  -0.0000341  -0.0000227  -0.0000177   0.0000073
    3   0.0029951  -0.0028827  -0.0000369  -0.0000286   0.0000977  -0.0000078
            7           8           9          10          11
    1   0.0000126   0.0000657  -0.0000273  -0.0000002   0.0000552
    2   0.0000085   0.0000154   0.0000161   0.0000041  -0.0000105
    3  -0.0000771   0.0000043   0.0000051  -0.0000687  -0.0000004
 Max gradient component =       1.066E-02
 RMS gradient           =       2.697E-03
 Gradient time:  CPU 10.45 s  wall 0.91 s
 Geometry Optimization Parameters
   NAtoms,    NIC,     NZ,  NCons,   NDum,   NFix, NCnnct, MaxDiis
       11      75       0       1       0       0       0       0


** CONSTRAINED OPTIMIZATION IN DELOCALIZED INTERNAL COORDINATES **
   Searching for a Minimum

   Optimization Cycle:   1

                       Coordinates (Angstroms)
     ATOM                X               Y               Z
      1  Br        2.3917020000    0.0023600000   -0.2548620000
      2  C        -0.5051330000   -0.0001720000    0.5251000000
      3  C        -0.8659220000   -1.2962520000   -0.1240160000
      4  C        -0.8645400000    1.2960210000   -0.1244280000
      5  H        -0.3087080000   -0.0000270000    1.5947510000
      6  H        -0.3861500000   -2.1498730000    0.3672290000
      7  H        -1.9538310000   -1.4867430000   -0.1001250000
      8  H        -0.5777180000   -1.3089520000   -1.1839800000
      9  H        -0.3858690000    2.1496060000    0.3679480000
     10  H        -1.9525220000    1.4865370000   -0.1027790000
     11  H        -0.5749130000    1.3088940000   -1.1841340000
   Point Group: c1    Number of degrees of freedom:    27


   Energy is  -2692.320860641

              Constraints and their Current Values
                                        Value     Constraint
   Distance(Angs):        1   2             3.000000     2.900000

 Attempting to Generate Delocalized Internal Coordinates

   Using Lagrange Multiplier Algorithm


 28 Hessian modes will be used to form the next step
  Hessian Eigenvalues:
    -0.987919    0.045000    0.045000    0.052263    0.072133    0.081354
     0.081373    0.082042    0.082043    0.093882    0.123089    0.160000
     0.160000    0.160000    0.160000    0.160000    0.160000    0.171813
     0.322923    0.330400    0.330460    0.331624    0.331656    0.338321
     0.338463    0.341821    0.341823    1.012229

 Minimum Search - Taking P-RFO Step
 Searching for Lamda that Maximizes Along the Constraint modes Only
 Value Taken    Lamda =   0.02002217
 Searching for Lamda that Minimizes Along All other modes
 Value Taken    Lamda =  -0.01522928
 Step Taken.  Stepsize is  0.185667

                             Maximum     Tolerance    Cnvgd?
         Gradient            0.188973       0.000300      NO
         Displacement        0.185662       0.001200      NO
         Energy change     *********       0.000001      NO


 New Cartesian Coordinates Obtained by Inverse Iteration

 Displacement from previous Coordinates is:  0.219068
 ----------------------------------------------------------------
             Standard Nuclear Orientation (Angstroms)
    I     Atom           X                Y                Z
 ----------------------------------------------------------------
    1      Br      2.2889039449     0.0024551492    -0.2745327503
    2      C      -0.5008703475    -0.0001739705     0.5237882644
    3      C      -0.8535503950    -1.2991457320    -0.1239304243
    4      C      -0.8521343340     1.2989264605    -0.1243559985
    5      H      -0.3228321254    -0.0000146984     1.6130584264
    6      H      -0.3739751159    -2.1498529591     0.3725562998
    7      H      -1.9409540851    -1.4932113424    -0.1060437401
    8      H      -0.5589776849    -1.3138747867    -1.1821312628
    9      H      -0.3735713378     2.1494860842     0.3733031489
   10      H      -1.9395837019     1.4930012388    -0.1087511450
   11      H      -0.5560588173     1.3138035564    -1.1822568186
 ----------------------------------------------------------------
 Nuclear Repulsion Energy =   214.7713106755 hartrees
 There are       31 alpha and       29 beta electrons

                       Distance Matrix (Angstroms)
             Br(  1)   C (  2)   C (  3)   C (  4)   H (  5)   H (  6)
   C (  2)  2.901752
   C (  3)  3.404683  1.493737
   C (  4)  3.401399  1.493700  2.598073
   H (  5)  3.222448  1.103724  2.233055  2.232939
   H (  6)  3.484549  2.158725  1.095534  3.517050  2.482593
   H (  7)  4.489667  2.167877  1.104730  2.996981  2.793433  1.765123
   H (  8)  3.266020  2.153915  1.098535  2.834001  3.097592  1.774863
   H (  9)  3.481122  2.158678  3.517198  1.095508  2.481919  4.299339
   H ( 10)  4.486571  2.167850  2.995961  1.104742  2.794210  3.994142
   H ( 11)  3.261504  2.154106  2.834795  1.098652  3.097467  3.800989
             H (  7)   H (  8)   H (  9)   H ( 10)
   H (  8)  1.760677
   H (  9)  3.994459  3.801134
   H ( 10)  2.986214  3.307079  1.765147
   H ( 11)  3.309910  2.627680  1.775228  1.760303
 
 Applying Cartesian multipole field
    Component          Value
    ---------          -----
     (2,0,0)        1.00000E-11
     (0,2,0)        2.00000E-11
     (0,0,2)       -3.00000E-11
 Nucleus-field energy     =     0.0000000088 hartrees
 Requested basis set is 6-31G(d,p)
 There are 41 shells and 115 basis functions
 A cutoff of  1.0D-14 yielded    811 shell pairs
 There are      6487 function pairs
 Smallest overlap matrix eigenvalue = 7.26E-04
 Guess from superposition of atomic densities
 Warning:  Energy on first SCF cycle will be non-variational
 SAD guess density has 59.972873 electrons

 -----------------------------------------------------------------------
  General SCF calculation program by
  Eric Jon Sundstrom, Paul Horn, Yuezhi Mao, Dmitri Zuev, Alec White,
  David Stuck, Shaama M.S., Shane Yost, Joonho Lee, David Small,
  Daniel Levine, Susi Lehtola, Hugh Burton, Evgeny Epifanovsky
 -----------------------------------------------------------------------
 Exchange:     0.2000 Hartree-Fock + 0.0800 Slater + 0.7200 B88
 Correlation:  0.1900 VWN1RPA + 0.8100 LYP
 Using SG-1 standard quadrature grid
 using 12 threads for integral computing
 -------------------------------------------------------
 OpenMP Integral computing Module                
 Release: version 1.0, May 2013, Q-Chem Inc. Pittsburgh 
 -------------------------------------------------------
 -------------------------------------------------------
 OpenMP BLAS3 based DFT computing Module                
 Release: version 1.0, May 2013, Q-Chem Inc. Pittsburgh 
 -------------------------------------------------------
 A unrestricted SCF calculation will be
 performed using DIIS
 SCF converges when DIIS error is below 1.0e-06
 Alpha HF Exchange    Energy = -10.71680004942968
 Beta HF Exchange     Energy = -10.71680004942968
 DFT Correlation      Energy =  -3.11129175659037
 DFT Exchange         Energy = -84.98122683242286
 One-Electron (alpha) Energy = -2081.38719702842172
 One-Electron (beta)  Energy = -2081.38719702842172
 Total Coulomb        Energy = 1361.86429686761790
 ---------------------------------------
  Cycle       Energy         DIIS error
 ---------------------------------------
    1   -2695.6649051928      1.64e-01  
 Alpha HF Exchange    Energy = -10.89904756444024
 Beta HF Exchange     Energy = -10.69784164363422
 DFT Correlation      Energy =  -3.14456018093184
 DFT Exchange         Energy = -85.90409076056486
 One-Electron (alpha) Energy = -2106.68782701281225
 One-Electron (beta)  Energy = -2067.48848070059648
 Total Coulomb        Energy = 1377.85201476027146
    2   -2692.1985224184      9.62e-03  
 Alpha HF Exchange    Energy = -10.79999557287410
 Beta HF Exchange     Energy = -10.61004403154800
 DFT Correlation      Energy =  -3.10790361819818
 DFT Exchange         Energy = -85.13580574705269
 One-Electron (alpha) Energy = -2098.55662646295286
 One-Electron (beta)  Energy = -2060.03218560847472
 Total Coulomb        Energy = 1361.28277438883924
    3   -2692.1884759680      4.51e-03  
 Alpha HF Exchange    Energy = -10.87540965211396
 Beta HF Exchange     Energy = -10.67661035542438
 DFT Correlation      Energy =  -3.13576590539485
 DFT Exchange         Energy = -85.71353676130050
 One-Electron (alpha) Energy = -2104.63865617357442
 One-Electron (beta)  Energy = -2065.34598946017559
 Total Coulomb        Energy = 1373.34480816257769
    4   -2692.2698494611      2.72e-03  
 Alpha HF Exchange    Energy = -10.85153472718805
 Beta HF Exchange     Energy = -10.65621802303046
 DFT Correlation      Energy =  -3.12565946815672
 DFT Exchange         Energy = -85.52983651969863
 One-Electron (alpha) Energy = -2102.92521720573814
 One-Electron (beta)  Energy = -2063.82341672000939
 Total Coulomb        Energy = 1369.82240979996595
    5   -2692.3181621796      2.95e-04  
 Alpha HF Exchange    Energy = -10.84965176394766
 Beta HF Exchange     Energy = -10.65423827691660
 DFT Correlation      Energy =  -3.12554785011748
 DFT Exchange         Energy = -85.51526795935422
 One-Electron (alpha) Energy = -2102.70563177197801
 One-Electron (beta)  Energy = -2063.61453900109882
 Total Coulomb        Energy = 1369.37509416445459
    6   -2692.3184717747      5.41e-05  
 Alpha HF Exchange    Energy = -10.84944953728704
 Beta HF Exchange     Energy = -10.65421030087181
 DFT Correlation      Energy =  -3.12535152810678
 DFT Exchange         Energy = -85.51404638602284
 One-Electron (alpha) Energy = -2102.69240315428988
 One-Electron (beta)  Energy = -2063.60347923338804
 Total Coulomb        Energy = 1369.34912804163741
    7   -2692.3185014141      1.67e-05  
 Alpha HF Exchange    Energy = -10.84957561823401
 Beta HF Exchange     Energy = -10.65428298449379
 DFT Correlation      Energy =  -3.12535775135292
 DFT Exchange         Energy = -85.51480083173092
 One-Electron (alpha) Energy = -2102.70484163829133
 One-Electron (beta)  Energy = -2063.61350811692137
 Total Coulomb        Energy = 1369.37254234016859
    8   -2692.3185139166      1.17e-05  
 Alpha HF Exchange    Energy = -10.84957886401167
 Beta HF Exchange     Energy = -10.65430072275789
 DFT Correlation      Energy =  -3.12535310190985
 DFT Exchange         Energy = -85.51487820035874
 One-Electron (alpha) Energy = -2102.70433023290207
 One-Electron (beta)  Energy = -2063.61280758442354
 Total Coulomb        Energy = 1369.37141218844749
    9   -2692.3185258337      9.23e-06  
 Alpha HF Exchange    Energy = -10.84957600541058
 Beta HF Exchange     Energy = -10.65428849023435
 DFT Correlation      Energy =  -3.12534583380083
 DFT Exchange         Energy = -85.51482383698749
 One-Electron (alpha) Energy = -2102.70373747671692
 One-Electron (beta)  Energy = -2063.61232985302604
 Total Coulomb        Energy = 1369.37025199551681
   10   -2692.3185388164      9.09e-06  
 Alpha HF Exchange    Energy = -10.84957616593875
 Beta HF Exchange     Energy = -10.65428726193418
 DFT Correlation      Energy =  -3.12534545560147
 DFT Exchange         Energy = -85.51482105036894
 One-Electron (alpha) Energy = -2102.70374836221026
 One-Electron (beta)  Energy = -2063.61233675043059
 Total Coulomb        Energy = 1369.37026399605384
   11   -2692.3185403662      9.11e-06  
 Alpha HF Exchange    Energy = -10.84954671204110
 Beta HF Exchange     Energy = -10.65440024312034
 DFT Correlation      Energy =  -3.12535942390167
 DFT Exchange         Energy = -85.51502393877561
 One-Electron (alpha) Energy = -2102.70139107633304
 One-Electron (beta)  Energy = -2063.61468114050786
 Total Coulomb        Energy = 1369.37067111069678
   12   -2692.3184207397      1.04e-05  
 Alpha HF Exchange    Energy = -10.84953699624649
 Beta HF Exchange     Energy = -10.65443103337844
 DFT Correlation      Energy =  -3.12536047831590
 DFT Exchange         Energy = -85.51507441803983
 One-Electron (alpha) Energy = -2102.70053762271209
 One-Electron (beta)  Energy = -2063.61580113370019
 Total Coulomb        Energy = 1369.37103911334361
   13   -2692.3183918848      1.17e-05  
 Alpha HF Exchange    Energy = -10.84951081833233
 Beta HF Exchange     Energy = -10.65454154458739
 DFT Correlation      Energy =  -3.12534359366702
 DFT Exchange         Energy = -85.51530185169875
 One-Electron (alpha) Energy = -2102.69840965699495
 One-Electron (beta)  Energy = -2063.62326711057358
 Total Coulomb        Energy = 1369.37673382700973
   14   -2692.3183300646      2.80e-05  
 Alpha HF Exchange    Energy = -10.84949695529677
 Beta HF Exchange     Energy = -10.65460228398527
 DFT Correlation      Energy =  -3.12534786264594
 DFT Exchange         Energy = -85.51543313373648
 One-Electron (alpha) Energy = -2102.69719381458253
 One-Electron (beta)  Energy = -2063.62595318765534
 Total Coulomb        Energy = 1369.37845772746778
   15   -2692.3182588262      2.74e-05  
 Alpha HF Exchange    Energy = -10.84950925589465
 Beta HF Exchange     Energy = -10.65456114389443
 DFT Correlation      Energy =  -3.12535503572066
 DFT Exchange         Energy = -85.51535858228988
 One-Electron (alpha) Energy = -2102.69833240596199
 One-Electron (beta)  Energy = -2063.62311056209410
 Total Coulomb        Energy = 1369.37662594646667
   16   -2692.3182903551      2.24e-05  
 Alpha HF Exchange    Energy = -10.84950139005480
 Beta HF Exchange     Energy = -10.65456771662412
 DFT Correlation      Energy =  -3.12535531028391
 DFT Exchange         Energy = -85.51534740326385
 One-Electron (alpha) Energy = -2102.69767810210124
 One-Electron (beta)  Energy = -2063.62348727028302
 Total Coulomb        Energy = 1369.37634957828141
   17   -2692.3182769301      2.16e-05  
 Alpha HF Exchange    Energy = -10.84950015528051
 Beta HF Exchange     Energy = -10.65456499854014
 DFT Correlation      Energy =  -3.12535634525672
 DFT Exchange         Energy = -85.51533521757108
 One-Electron (alpha) Energy = -2102.69739723857401
 One-Electron (beta)  Energy = -2063.62307275607873
 Total Coulomb        Energy = 1369.37563947738386
   18   -2692.3182765497      2.08e-05  
 Alpha HF Exchange    Energy = -10.84950000496478
 Beta HF Exchange     Energy = -10.65457537326790
 DFT Correlation      Energy =  -3.12535489643266
 DFT Exchange         Energy = -85.51536796455737
 One-Electron (alpha) Energy = -2102.69754911737573
 One-Electron (beta)  Energy = -2063.62412720583734
 Total Coulomb        Energy = 1369.37689120029086
   19   -2692.3182726779      2.23e-05  
 Alpha HF Exchange    Energy = -10.84949984458282
 Beta HF Exchange     Energy = -10.65457494450986
 DFT Correlation      Energy =  -3.12535497584728
 DFT Exchange         Energy = -85.51536611196120
 One-Electron (alpha) Energy = -2102.69753256081867
 One-Electron (beta)  Energy = -2063.62409962253196
 Total Coulomb        Energy = 1369.37684436751897
   20   -2692.3182730085      2.23e-05  
 Alpha HF Exchange    Energy = -10.84949009597008
 Beta HF Exchange     Energy = -10.65457955128714
 DFT Correlation      Energy =  -3.12535196144162
 DFT Exchange         Energy = -85.51534288180562
 One-Electron (alpha) Energy = -2102.69642533505066
 One-Electron (beta)  Energy = -2063.62471360897916
 Total Coulomb        Energy = 1369.37631999883456
   21   -2692.3182727514      2.36e-05  
 Alpha HF Exchange    Energy = -10.84948573321280
 Beta HF Exchange     Energy = -10.65463376072919
 DFT Correlation      Energy =  -3.12534006667168
 DFT Exchange         Energy = -85.51551071837547
 One-Electron (alpha) Energy = -2102.69569307825168
 One-Electron (beta)  Energy = -2063.63069395518914
 Total Coulomb        Energy = 1369.38177519289502
   22   -2692.3182714353      3.45e-05  
 Alpha HF Exchange    Energy = -10.84949493563511
 Beta HF Exchange     Energy = -10.65462214503449
 DFT Correlation      Energy =  -3.12534678489692
 DFT Exchange         Energy = -85.51551560501363
 One-Electron (alpha) Energy = -2102.69657991259601
 One-Electron (beta)  Energy = -2063.62969827777169
 Total Coulomb        Energy = 1369.38167128397004
   23   -2692.3182756927      3.13e-05  
 Alpha HF Exchange    Energy = -10.84948146840378
 Beta HF Exchange     Energy = -10.65461109834278
 DFT Correlation      Energy =  -3.12534383862072
 DFT Exchange         Energy = -85.51542469148941
 One-Electron (alpha) Energy = -2102.69521265242838
 One-Electron (beta)  Energy = -2063.62889381243986
 Total Coulomb        Energy = 1369.37937565571519
   24   -2692.3182812217      3.12e-05  
 Alpha HF Exchange    Energy = -10.84948427548187
 Beta HF Exchange     Energy = -10.65458919258334
 DFT Correlation      Energy =  -3.12534785076765
 DFT Exchange         Energy = -85.51536289671509
 One-Electron (alpha) Energy = -2102.69546813879469
 One-Electron (beta)  Energy = -2063.62690715287999
 Total Coulomb        Energy = 1369.37756639450504
   25   -2692.3182824285      2.71e-05  
 Alpha HF Exchange    Energy = -10.84949135955093
 Beta HF Exchange     Energy = -10.65456475999509
 DFT Correlation      Energy =  -3.12535559286287
 DFT Exchange         Energy = -85.51531562526804
 One-Electron (alpha) Energy = -2102.69609409065606
 One-Electron (beta)  Energy = -2063.62449340344574
 Total Coulomb        Energy = 1369.37571550581697
   26   -2692.3182886417      2.16e-05  
 Alpha HF Exchange    Energy = -10.84951873200150
 Beta HF Exchange     Energy = -10.65451669038173
 DFT Correlation      Energy =  -3.12537398326999
 DFT Exchange         Energy = -85.51529270514102
 One-Electron (alpha) Energy = -2102.69853082574900
 One-Electron (beta)  Energy = -2063.62111602983214
 Total Coulomb        Energy = 1369.37472135944108
   27   -2692.3183169227      1.25e-05  
 Alpha HF Exchange    Energy = -10.84952093588754
 Beta HF Exchange     Energy = -10.65450953403078
 DFT Correlation      Energy =  -3.12537541652585
 DFT Exchange         Energy = -85.51527793293172
 One-Electron (alpha) Energy = -2102.69876730240594
 One-Electron (beta)  Energy = -2063.62032786455484
 Total Coulomb        Energy = 1369.37415149713524
   28   -2692.3183168049      1.06e-05  
 Alpha HF Exchange    Energy = -10.84952689031642
 Beta HF Exchange     Energy = -10.65449018431490
 DFT Correlation      Energy =  -3.12538179655168
 DFT Exchange         Energy = -85.51524828073806
 One-Electron (alpha) Energy = -2102.69899026220037
 One-Electron (beta)  Energy = -2063.61869650340032
 Total Coulomb        Energy = 1369.37269342737818
   29   -2692.3183298059      1.16e-05  
 Alpha HF Exchange    Energy = -10.84952653244899
 Beta HF Exchange     Energy = -10.65447247066814
 DFT Correlation      Energy =  -3.12538198749609
 DFT Exchange         Energy = -85.51518445232477
 One-Electron (alpha) Energy = -2102.69908888596638
 One-Electron (beta)  Energy = -2063.61719494028694
 Total Coulomb        Energy = 1369.37120727007346
   30   -2692.3183313149      7.27e-06  
 Alpha HF Exchange    Energy = -10.84952584634949
 Beta HF Exchange     Energy = -10.65448915098040
 DFT Correlation      Energy =  -3.12537691972319
 DFT Exchange         Energy = -85.51524319577915
 One-Electron (alpha) Energy = -2102.69873434050987
 One-Electron (beta)  Energy = -2063.61954677891345
 Total Coulomb        Energy = 1369.37326819015652
   31   -2692.3183373578      1.10e-05  
 Alpha HF Exchange    Energy = -10.84953100949446
 Beta HF Exchange     Energy = -10.65443441628543
 DFT Correlation      Energy =  -3.12538223709896
 DFT Exchange         Energy = -85.51507269481891
 One-Electron (alpha) Energy = -2102.69972369887046
 One-Electron (beta)  Energy = -2063.61460250595292
 Total Coulomb        Energy = 1369.36909842934028
   32   -2692.3183374489      4.13e-06  
 Alpha HF Exchange    Energy = -10.84953154155165
 Beta HF Exchange     Energy = -10.65444067826304
 DFT Correlation      Energy =  -3.12538209386712
 DFT Exchange         Energy = -85.51509796880993
 One-Electron (alpha) Energy = -2102.69970923828578
 One-Electron (beta)  Energy = -2063.61524619312786
 Total Coulomb        Energy = 1369.36975739658055
   33   -2692.3183396331      2.61e-06  
 Alpha HF Exchange    Energy = -10.84953516764452
 Beta HF Exchange     Energy = -10.65439814238853
 DFT Correlation      Energy =  -3.12538736202960
 DFT Exchange         Energy = -85.51496632993070
 One-Electron (alpha) Energy = -2102.70041830866830
 One-Electron (beta)  Energy = -2063.61149175466289
 Total Coulomb        Energy = 1369.36654497275094
   34   -2692.3183414083      1.24e-05  
 Alpha HF Exchange    Energy = -10.84953505907951
 Beta HF Exchange     Energy = -10.65439286481402
 DFT Correlation      Energy =  -3.12538718504982
 DFT Exchange         Energy = -85.51494781259169
 One-Electron (alpha) Energy = -2102.70038168606334
 One-Electron (beta)  Energy = -2063.61110120723606
 Total Coulomb        Energy = 1369.36609109866140
   35   -2692.3183440319      1.28e-05  
 Alpha HF Exchange    Energy = -10.84953508839389
 Beta HF Exchange     Energy = -10.65440577969873
 DFT Correlation      Energy =  -3.12538591308825
 DFT Exchange         Energy = -85.51499386824077
 One-Electron (alpha) Energy = -2102.70037042046033
 One-Electron (beta)  Energy = -2063.61251578245901
 Total Coulomb        Energy = 1369.36754872700180
   36   -2692.3183474411      9.36e-06  
 Alpha HF Exchange    Energy = -10.84953334114886
 Beta HF Exchange     Energy = -10.65441064910092
 DFT Correlation      Energy =  -3.12538657225450
 DFT Exchange         Energy = -85.51500438640096
 One-Electron (alpha) Energy = -2102.70006563032575
 One-Electron (beta)  Energy = -2063.61276490771570
 Total Coulomb        Energy = 1369.36750706775229
   37   -2692.3183477349      8.26e-06  
 Alpha HF Exchange    Energy = -10.84953241850401
 Beta HF Exchange     Energy = -10.65442637818149
 DFT Correlation      Energy =  -3.12538575160619
 DFT Exchange         Energy = -85.51505508021316
 One-Electron (alpha) Energy = -2102.69985334383955
 One-Electron (beta)  Energy = -2063.61408357595519
 Total Coulomb        Energy = 1369.36867634077726
   38   -2692.3183495233      5.07e-06  
 Alpha HF Exchange    Energy = -10.84952981124781
 Beta HF Exchange     Energy = -10.65443346078646
 DFT Correlation      Energy =  -3.12538429626337
 DFT Exchange         Energy = -85.51506860459577
 One-Electron (alpha) Energy = -2102.69946294771989
 One-Electron (beta)  Energy = -2063.61464304498577
 Total Coulomb        Energy = 1369.36886177476981
   39   -2692.3183497066      1.66e-06  
 Alpha HF Exchange    Energy = -10.84953008003254
 Beta HF Exchange     Energy = -10.65444087839085
 DFT Correlation      Energy =  -3.12538394591669
 DFT Exchange         Energy = -85.51509580848867
 One-Electron (alpha) Energy = -2102.69942015633660
 One-Electron (beta)  Energy = -2063.61527679504434
 Total Coulomb        Energy = 1369.36948725132333
   40   -2692.3183497286      3.40e-07  Convergence criterion met
 ---------------------------------------
 SCF time:   CPU 109.36s  wall 9.00s 
<S^2> =          2.005388079
 Alpha HF Exchange    Energy = -10.84953008003254
 Beta HF Exchange     Energy = -10.65444087839085
 DFT Correlation      Energy =  -3.12538394591669
 DFT Exchange         Energy = -85.51509580848867
 One-Electron (alpha) Energy = -2102.69942015633660
 One-Electron (beta)  Energy = -2063.61527679504434
 Total Coulomb        Energy = 1369.36948725132333
 Nuclear repulsion Energy = 214.77131068426036
 SCF   energy in the final basis set =    -2692.3183497286
 Total energy in the final basis set =    -2692.3183497286
 
 --------------------------------------------------------------
 
                    Orbital Energies (a.u.)
 --------------------------------------------------------------
 
 Alpha MOs
 -- Occupied --
******* -62.549 -56.374 -56.366 -56.366 -10.182 -10.176 -10.176
 -8.737  -6.573  -6.551  -6.551  -2.664  -2.659  -2.659  -2.643
 -2.642  -0.795  -0.772  -0.686  -0.564  -0.446  -0.427  -0.404
 -0.384  -0.362  -0.350  -0.341  -0.318  -0.315  -0.168
 -- Virtual --
  0.099   0.127   0.142   0.172   0.180   0.181   0.189   0.201
  0.253   0.289   0.309   0.329   0.361   0.484   0.495   0.507
  0.526   0.541   0.555   0.557   0.567   0.671   0.712   0.725
  0.726   0.757   0.760   0.861   0.863   0.870   0.882   0.925
  0.935   0.950   1.017   1.280   1.301   1.353   1.367   1.536
  1.662   1.740   1.813   1.821   1.873   1.902   1.997   2.047
  2.052   2.084   2.113   2.121   2.133   2.273   2.282   2.379
  2.386   2.488   2.551   2.597   2.676   2.729   2.759   2.845
  2.861   2.908   2.956   3.160   3.205   3.342   3.425   3.433
  3.458   3.512   4.222   4.486   4.559   4.665   4.666   4.685
  4.704   4.790   6.237  90.207
 
 Beta MOs
 -- Occupied --
******* -62.548 -56.368 -56.365 -56.365 -10.177 -10.177 -10.168
 -8.733  -6.562  -6.549  -6.549  -2.656  -2.653  -2.652  -2.641
 -2.641  -0.762  -0.743  -0.684  -0.542  -0.441  -0.410  -0.398
 -0.376  -0.346  -0.335  -0.302  -0.298
 -- Virtual --
 -0.229  -0.020   0.101   0.131   0.146   0.180   0.186   0.190
  0.190   0.213   0.264   0.298   0.334   0.334   0.369   0.501
  0.503   0.538   0.545   0.552   0.587   0.597   0.599   0.689
  0.721   0.736   0.757   0.763   0.764   0.867   0.868   0.877
  0.887   0.931   0.939   0.954   1.036   1.299   1.310   1.359
  1.389   1.535   1.670   1.760   1.825   1.843   1.899   1.921
  2.025   2.052   2.058   2.088   2.115   2.126   2.141   2.285
  2.288   2.380   2.397   2.510   2.568   2.609   2.680   2.733
  2.764   2.851   2.867   2.916   2.961   3.164   3.210   3.349
  3.427   3.436   3.462   3.517   4.241   4.486   4.571   4.680
  4.681   4.699   4.707   4.800   6.253  90.214
 --------------------------------------------------------------
 
          Ground-State Mulliken Net Atomic Charges

     Atom                 Charge (a.u.)    Spin (a.u.)
  --------------------------------------------------------
      1 Br                    0.011788       1.023414
      2 C                    -0.076820       0.992265
      3 C                    -0.330408      -0.073301
      4 C                    -0.330123      -0.073378
      5 H                     0.085495      -0.043990
      6 H                     0.104556       0.007483
      7 H                     0.108089       0.058492
      8 H                     0.107529       0.021591
      9 H                     0.104538       0.007420
     10 H                     0.107856       0.058294
     11 H                     0.107499       0.021709
  --------------------------------------------------------
  Sum of atomic charges =    -0.000000
  Sum of spin   charges =     2.000000

 -----------------------------------------------------------------
                    Cartesian Multipole Moments
 -----------------------------------------------------------------
    Charge (ESU x 10^10)
                -0.0000
    Dipole Moment (Debye)
         X      -0.3574      Y       0.0003      Z       0.0048
       Tot       0.3574
    Quadrupole Moments (Debye-Ang)
        XX     -40.6364     XY       0.0197     YY     -36.6379
        XZ       0.3278     YZ       0.0001     ZZ     -39.2924
    Octopole Moments (Debye-Ang^2)
       XXX     -85.2101    XXY       0.0238    XYY     -20.5664
       YYY      -0.1121    XXZ       4.0606    XYZ      -0.0038
       YYZ       4.1171    XZZ     -26.7743    YZZ      -0.0419
       ZZZ      12.1361
    Hexadecapole Moments (Debye-Ang^3)
      XXXX    -736.3678   XXXY      -0.0773   XXYY    -144.8996
      XYYY      -0.2955   YYYY    -222.3939   XXXZ      35.7042
      XXYZ      -0.0095   XYYZ       9.8062   YYYZ       0.0522
      XXZZ    -138.9730   XYZZ      -0.1132   YYZZ     -51.7587
      XZZZ      34.6203   YZZZ       0.0567   ZZZZ     -85.7244
 -----------------------------------------------------------------
 Calculating analytic gradient of the SCF energy
 Gradient of SCF Energy
            1           2           3           4           5           6
    1  -0.0140397   0.0110043   0.0006285   0.0007950   0.0015166  -0.0000170
    2   0.0000238  -0.0000171  -0.0003500   0.0003265   0.0000120  -0.0000092
    3   0.0039438  -0.0145416   0.0002483   0.0003558   0.0100943  -0.0000973
            7           8           9          10          11
    1  -0.0000291   0.0001290  -0.0000402  -0.0000297   0.0000823
    2   0.0000988   0.0000154   0.0000157  -0.0000959  -0.0000201
    3  -0.0000556   0.0001607  -0.0000615  -0.0001086   0.0000618
 Max gradient component =       1.454E-02
 RMS gradient           =       4.441E-03
 Gradient time:  CPU 10.33 s  wall 0.89 s
 Geometry Optimization Parameters
   NAtoms,    NIC,     NZ,  NCons,   NDum,   NFix, NCnnct, MaxDiis
       11      75       0       1       0       0       0       0

 Cartesian Hessian Update
 Hessian Updated using BFGS Update


** CONSTRAINED OPTIMIZATION IN DELOCALIZED INTERNAL COORDINATES **
   Searching for a Minimum

   Optimization Cycle:   2

                       Coordinates (Angstroms)
     ATOM                X               Y               Z
      1  Br        2.2889039449    0.0024551492   -0.2745327503
      2  C        -0.5008703475   -0.0001739705    0.5237882644
      3  C        -0.8535503950   -1.2991457320   -0.1239304243
      4  C        -0.8521343340    1.2989264605   -0.1243559985
      5  H        -0.3228321254   -0.0000146984    1.6130584264
      6  H        -0.3739751159   -2.1498529591    0.3725562998
      7  H        -1.9409540851   -1.4932113424   -0.1060437401
      8  H        -0.5589776849   -1.3138747867   -1.1821312628
      9  H        -0.3735713378    2.1494860842    0.3733031489
     10  H        -1.9395837019    1.4930012388   -0.1087511450
     11  H        -0.5560588173    1.3138035564   -1.1822568186
   Point Group: c1    Number of degrees of freedom:    27


   Energy is  -2692.318349729

              Constraints and their Current Values
                                        Value     Constraint
   Distance(Angs):        1   2             2.901752     2.900000
 Hessian Updated using BFGS Update

   Using Lagrange Multiplier Algorithm


 24 Hessian modes will be used to form the next step
  Hessian Eigenvalues:
    -0.985898    0.045000    0.045003    0.052260    0.072715    0.081355
     0.081376    0.082043    0.082046    0.093885    0.123095    0.159999
     0.160043    0.173489    0.330398    0.330459    0.331624    0.331656
     0.338321    0.338459    0.341820    0.341822    0.405849    1.017460

 Minimum Search - Taking P-RFO Step
 Searching for Lamda that Maximizes Along the Constraint modes Only
 Value Taken    Lamda =   0.00001141
 Searching for Lamda that Minimizes Along All other modes
 Value Taken    Lamda =  -0.00023925
 Step Taken.  Stepsize is  0.026220

                             Maximum     Tolerance    Cnvgd?
         Gradient            0.006400       0.000300      NO
         Displacement        0.015803       0.001200      NO
         Energy change      0.002511       0.000001      NO


 New Cartesian Coordinates Obtained by Inverse Iteration

 Displacement from previous Coordinates is:  0.020890
 ----------------------------------------------------------------
             Standard Nuclear Orientation (Angstroms)
    I     Atom           X                Y                Z
 ----------------------------------------------------------------
    1      Br      2.2896854634     0.0019577454    -0.2719046459
    2      C      -0.4984636432    -0.0001039305     0.5257304386
    3      C      -0.8533871255    -1.2979774268    -0.1232232185
    4      C      -0.8522407671     1.2978792949    -0.1236530556
    5      H      -0.3230612539     0.0000778960     1.6038435773
    6      H      -0.3745597219    -2.1494566293     0.3727710418
    7      H      -1.9408987552    -1.4913000801    -0.1050556401
    8      H      -0.5596463347    -1.3124534185    -1.1818441758
    9      H      -0.3743391831     2.1492305668     0.3733544178
   10      H      -1.9398169214     1.4910608655    -0.1074827172
   11      H      -0.5568757573     1.3124841165    -1.1818320223
 ----------------------------------------------------------------
 Nuclear Repulsion Energy =   214.8467565842 hartrees
 There are       31 alpha and       29 beta electrons

                       Distance Matrix (Angstroms)
             Br(  1)   C (  2)   C (  3)   C (  4)   H (  5)   H (  6)
   C (  2)  2.900000
   C (  3)  3.404533  1.493850
   C (  4)  3.401925  1.493860  2.595857
   H (  5)  3.216346  1.092288  2.224624  2.224537
   H (  6)  3.484594  2.158348  1.095583  3.515500  2.477638
   H (  7)  4.489488  2.168450  1.104710  2.994168  2.786026  1.764910
   H (  8)  3.267164  2.154487  1.098714  2.831822  3.088489  1.775291
   H (  9)  3.481977  2.158301  3.515582  1.095539  2.477012  4.298687
   H ( 10)  4.486998  2.168417  2.993211  1.104718  2.786677  3.991747
   H ( 11)  3.263182  2.154546  2.832504  1.098725  3.088214  3.799350
             H (  7)   H (  8)   H (  9)   H ( 10)
   H (  8)  1.760488
   H (  9)  3.992048  3.799505
   H ( 10)  2.982362  3.304363  1.764968
   H ( 11)  3.306988  2.624939  1.775407  1.760296
 
 Applying Cartesian multipole field
    Component          Value
    ---------          -----
     (2,0,0)        1.00000E-11
     (0,2,0)        2.00000E-11
     (0,0,2)       -3.00000E-11
 Nucleus-field energy     =     0.0000000088 hartrees
 Requested basis set is 6-31G(d,p)
 There are 41 shells and 115 basis functions
 A cutoff of  1.0D-14 yielded    811 shell pairs
 There are      6487 function pairs
 Smallest overlap matrix eigenvalue = 7.26E-04
 Guess from superposition of atomic densities
 Warning:  Energy on first SCF cycle will be non-variational
 SAD guess density has 59.972873 electrons

 -----------------------------------------------------------------------
  General SCF calculation program by
  Eric Jon Sundstrom, Paul Horn, Yuezhi Mao, Dmitri Zuev, Alec White,
  David Stuck, Shaama M.S., Shane Yost, Joonho Lee, David Small,
  Daniel Levine, Susi Lehtola, Hugh Burton, Evgeny Epifanovsky
 -----------------------------------------------------------------------
 Exchange:     0.2000 Hartree-Fock + 0.0800 Slater + 0.7200 B88
 Correlation:  0.1900 VWN1RPA + 0.8100 LYP
 Using SG-1 standard quadrature grid
 using 12 threads for integral computing
 -------------------------------------------------------
 OpenMP Integral computing Module                
 Release: version 1.0, May 2013, Q-Chem Inc. Pittsburgh 
 -------------------------------------------------------
 -------------------------------------------------------
 OpenMP BLAS3 based DFT computing Module                
 Release: version 1.0, May 2013, Q-Chem Inc. Pittsburgh 
 -------------------------------------------------------
 A unrestricted SCF calculation will be
 performed using DIIS
 SCF converges when DIIS error is below 1.0e-06
 Alpha HF Exchange    Energy = -10.71744912694601
 Beta HF Exchange     Energy = -10.71744912694601
 DFT Correlation      Energy =  -3.11144199269841
 DFT Exchange         Energy = -84.98263891860017
 One-Electron (alpha) Energy = -2081.45719129971530
 One-Electron (beta)  Energy = -2081.45719129971530
 Total Coulomb        Energy = 1361.92739463295516
 ---------------------------------------
  Cycle       Energy         DIIS error
 ---------------------------------------
    1   -2695.6692105387      1.64e-01  
 Alpha HF Exchange    Energy = -10.89958708290191
 Beta HF Exchange     Energy = -10.69829224546006
 DFT Correlation      Energy =  -3.14477261208035
 DFT Exchange         Energy = -85.90769242519430
 One-Electron (alpha) Energy = -2106.76855277813911
 One-Electron (beta)  Energy = -2067.54961163225653
 Total Coulomb        Energy = 1377.92348731961283
    2   -2692.1982648634      9.62e-03  
 Alpha HF Exchange    Energy = -10.80039522274479
 Beta HF Exchange     Energy = -10.61046417410443
 DFT Correlation      Energy =  -3.10812386138369
 DFT Exchange         Energy = -85.13884709005103
 One-Electron (alpha) Energy = -2098.63813028734512
 One-Electron (beta)  Energy = -2060.11464075791037
 Total Coulomb        Energy = 1361.37568197287806
    3   -2692.1881628277      4.52e-03  
 Alpha HF Exchange    Energy = -10.87576008392802
 Beta HF Exchange     Energy = -10.67698681308318
 DFT Correlation      Energy =  -3.13594988095869
 DFT Exchange         Energy = -85.71606311097683
 One-Electron (alpha) Energy = -2104.70642047194497
 One-Electron (beta)  Energy = -2065.40507253178703
 Total Coulomb        Energy = 1373.39958093425139
    4   -2692.2699153655      2.72e-03  
 Alpha HF Exchange    Energy = -10.85196944040887
 Beta HF Exchange     Energy = -10.65669191895511
 DFT Correlation      Energy =  -3.12587546214181
 DFT Exchange         Energy = -85.53305743222040
 One-Electron (alpha) Energy = -2103.00285671890106
 One-Electron (beta)  Energy = -2063.89517199748798
 Total Coulomb        Energy = 1369.90066058683897
    5   -2692.3182057903      2.93e-04  
 Alpha HF Exchange    Energy = -10.85005309548335
 Beta HF Exchange     Energy = -10.65470469453852
 DFT Correlation      Energy =  -3.12575650824284
 DFT Exchange         Energy = -85.51831523424708
 One-Electron (alpha) Energy = -2102.78043360478296
 One-Electron (beta)  Energy = -2063.68388460902725
 Total Coulomb        Energy = 1369.44788868406386
    6   -2692.3185024693      5.41e-05  
 Alpha HF Exchange    Energy = -10.84985971309410
 Beta HF Exchange     Energy = -10.65469056848713
 DFT Correlation      Energy =  -3.12556298181205
 DFT Exchange         Energy = -85.51717319385232
 One-Electron (alpha) Energy = -2102.76853228397567
 One-Electron (beta)  Energy = -2063.67444081695385
 Total Coulomb        Energy = 1369.42497615894058
    7   -2692.3185268063      1.51e-05  
 Alpha HF Exchange    Energy = -10.84998250524743
 Beta HF Exchange     Energy = -10.65476824757587
 DFT Correlation      Energy =  -3.12557047400515
 DFT Exchange         Energy = -85.51792940232126
 One-Electron (alpha) Energy = -2102.78057031395019
 One-Electron (beta)  Energy = -2063.68431147965566
 Total Coulomb        Energy = 1369.44784175190307
    8   -2692.3185340779      9.83e-06  
 Alpha HF Exchange    Energy = -10.84998258158321
 Beta HF Exchange     Energy = -10.65478964462732
 DFT Correlation      Energy =  -3.12556674907095
 DFT Exchange         Energy = -85.51800371258261
 One-Electron (alpha) Energy = -2102.77979470692935
 One-Electron (beta)  Energy = -2063.68355079322691
 Total Coulomb        Energy = 1369.44639120528450
    9   -2692.3185403898      6.79e-06  
 Alpha HF Exchange    Energy = -10.84997834544764
 Beta HF Exchange     Energy = -10.65478200515970
 DFT Correlation      Energy =  -3.12556069457592
 DFT Exchange         Energy = -85.51795672685320
 One-Electron (alpha) Energy = -2102.77910628839663
 One-Electron (beta)  Energy = -2063.68310561640328
 Total Coulomb        Energy = 1369.44518561541690
   10   -2692.3185474684      6.56e-06  
 Alpha HF Exchange    Energy = -10.84997834791830
 Beta HF Exchange     Energy = -10.65477959646783
 DFT Correlation      Energy =  -3.12555983150553
 DFT Exchange         Energy = -85.51795016969085
 One-Electron (alpha) Energy = -2102.77910406195087
 One-Electron (beta)  Energy = -2063.68313997799351
 Total Coulomb        Energy = 1369.44520478811887
   11   -2692.3185506044      6.61e-06  
 Alpha HF Exchange    Energy = -10.84996730909167
 Beta HF Exchange     Energy = -10.65482060293799
 DFT Correlation      Energy =  -3.12556622098734
 DFT Exchange         Energy = -85.51801905918015
 One-Electron (alpha) Energy = -2102.77820948012095
 One-Electron (beta)  Energy = -2063.68356077921453
 Total Coulomb        Energy = 1369.44488396784391
   12   -2692.3185028907      6.27e-06  
 Alpha HF Exchange    Energy = -10.84995033715633
 Beta HF Exchange     Energy = -10.65487964383320
 DFT Correlation      Energy =  -3.12556608532348
 DFT Exchange         Energy = -85.51812386785267
 One-Electron (alpha) Energy = -2102.77679457668455
 One-Electron (beta)  Energy = -2063.68612032932879
 Total Coulomb        Energy = 1369.44622614072750
   13   -2692.3184521065      8.75e-06  
 Alpha HF Exchange    Energy = -10.84994562047474
 Beta HF Exchange     Energy = -10.65490959622569
 DFT Correlation      Energy =  -3.12556032182844
 DFT Exchange         Energy = -85.51819550975617
 One-Electron (alpha) Energy = -2102.77650934968324
 One-Electron (beta)  Energy = -2063.68839051918940
 Total Coulomb        Energy = 1369.44831526822395
   14   -2692.3184390560      1.37e-05  
 Alpha HF Exchange    Energy = -10.84993959559958
 Beta HF Exchange     Energy = -10.65493504651563
 DFT Correlation      Energy =  -3.12556435990859
 DFT Exchange         Energy = -85.51825661332735
 One-Electron (alpha) Energy = -2102.77583247791245
 One-Electron (beta)  Energy = -2063.68955598867706
 Total Coulomb        Energy = 1369.44892215179084
   15   -2692.3184053372      1.15e-05  
 Alpha HF Exchange    Energy = -10.84993713407378
 Beta HF Exchange     Energy = -10.65493973055935
 DFT Correlation      Energy =  -3.12556311116830
 DFT Exchange         Energy = -85.51826123949775
 One-Electron (alpha) Energy = -2102.77559695439686
 One-Electron (beta)  Energy = -2063.68992102732864
 Total Coulomb        Energy = 1369.44906359890115
   16   -2692.3183990052      1.16e-05  
 Alpha HF Exchange    Energy = -10.84993509560510
 Beta HF Exchange     Energy = -10.65494471293582
 DFT Correlation      Energy =  -3.12556141232257
 DFT Exchange         Energy = -85.51826920946435
 One-Electron (alpha) Energy = -2102.77541001522377
 One-Electron (beta)  Energy = -2063.69052964643197
 Total Coulomb        Energy = 1369.44949171270241
   17   -2692.3184017863      1.34e-05  
 Alpha HF Exchange    Energy = -10.84994497101568
 Beta HF Exchange     Energy = -10.65491470794547
 DFT Correlation      Energy =  -3.12556917699609
 DFT Exchange         Energy = -85.51821188296076
 One-Electron (alpha) Energy = -2102.77657156054511
 One-Electron (beta)  Energy = -2063.68763602534909
 Total Coulomb        Energy = 1369.44769232675685
   18   -2692.3183994051      6.10e-06  
 Alpha HF Exchange    Energy = -10.84995137945481
 Beta HF Exchange     Energy = -10.65487581183480
 DFT Correlation      Energy =  -3.12557970867505
 DFT Exchange         Energy = -85.51811669223427
 One-Electron (alpha) Energy = -2102.77695118173824
 One-Electron (beta)  Energy = -2063.68370463585052
 Total Coulomb        Energy = 1369.44401797000501
   19   -2692.3184048468      4.09e-06  
 Alpha HF Exchange    Energy = -10.84995018091254
 Beta HF Exchange     Energy = -10.65488982155199
 DFT Correlation      Energy =  -3.12557615820501
 DFT Exchange         Energy = -85.51815747987284
 One-Electron (alpha) Energy = -2102.77689153784104
 One-Electron (beta)  Energy = -2063.68529025795715
 Total Coulomb        Energy = 1369.44559091747351
   20   -2692.3184079259      3.04e-06  
 Alpha HF Exchange    Energy = -10.84994428203847
 Beta HF Exchange     Energy = -10.65491408019002
 DFT Correlation      Energy =  -3.12556733732207
 DFT Exchange         Energy = -85.51821483725604
 One-Electron (alpha) Energy = -2102.77625320273000
 One-Electron (beta)  Energy = -2063.68843797231921
 Total Coulomb        Energy = 1369.44815754262663
   21   -2692.3184175763      8.75e-06  
 Alpha HF Exchange    Energy = -10.84994810432750
 Beta HF Exchange     Energy = -10.65490731763471
 DFT Correlation      Energy =  -3.12556995252517
 DFT Exchange         Energy = -85.51821880248532
 One-Electron (alpha) Energy = -2102.77635348179228
 One-Electron (beta)  Energy = -2063.68844098182763
 Total Coulomb        Energy = 1369.44825132141727
   22   -2692.3184307262      8.10e-06  
 Alpha HF Exchange    Energy = -10.84995060095111
 Beta HF Exchange     Energy = -10.65492073759311
 DFT Correlation      Energy =  -3.12556970686046
 DFT Exchange         Energy = -85.51828031555721
 One-Electron (alpha) Energy = -2102.77637942325600
 One-Electron (beta)  Energy = -2063.68990177243631
 Total Coulomb        Energy = 1369.44981027413519
   23   -2692.3184356895      1.17e-05  
 Alpha HF Exchange    Energy = -10.84995865963788
 Beta HF Exchange     Energy = -10.65493883161178
 DFT Correlation      Energy =  -3.12557499553472
 DFT Exchange         Energy = -85.51839150820395
 One-Electron (alpha) Energy = -2102.77648028467320
 One-Electron (beta)  Energy = -2063.69164580395318
 Total Coulomb        Energy = 1369.45178614899532
   24   -2692.3184473416      2.00e-05  
 Alpha HF Exchange    Energy = -10.84995745096109
 Beta HF Exchange     Energy = -10.65493043598685
 DFT Correlation      Energy =  -3.12557571036687
 DFT Exchange         Energy = -85.51835794009787
 One-Electron (alpha) Energy = -2102.77642200032551
 One-Electron (beta)  Energy = -2063.69095754989530
 Total Coulomb        Energy = 1369.45099618658696
   25   -2692.3184483081      1.82e-05  
 Alpha HF Exchange    Energy = -10.84995920027723
 Beta HF Exchange     Energy = -10.65491313624438
 DFT Correlation      Energy =  -3.12557890075667
 DFT Exchange         Energy = -85.51830764185165
 One-Electron (alpha) Energy = -2102.77669469226157
 One-Electron (beta)  Energy = -2063.68937187548090
 Total Coulomb        Energy = 1369.44961873935449
   26   -2692.3184501145      1.39e-05  
 Alpha HF Exchange    Energy = -10.84995843037890
 Beta HF Exchange     Energy = -10.65490217521972
 DFT Correlation      Energy =  -3.12558064341277
 DFT Exchange         Energy = -85.51826784537049
 One-Electron (alpha) Energy = -2102.77665610520398
 One-Electron (beta)  Energy = -2063.68834355388071
 Total Coulomb        Energy = 1369.44850102398050
   27   -2692.3184511365      1.38e-05  
 Alpha HF Exchange    Energy = -10.84995796938957
 Beta HF Exchange     Energy = -10.65488280643491
 DFT Correlation      Energy =  -3.12558088436511
 DFT Exchange         Energy = -85.51819646945881
 One-Electron (alpha) Energy = -2102.77687260003222
 One-Electron (beta)  Energy = -2063.68673568190161
 Total Coulomb        Energy = 1369.44701734004889
   28   -2692.3184524786      7.66e-06  
 Alpha HF Exchange    Energy = -10.84995321549289
 Beta HF Exchange     Energy = -10.65486410281074
 DFT Correlation      Energy =  -3.12557902029671
 DFT Exchange         Energy = -85.51810764855287
 One-Electron (alpha) Energy = -2102.77664827870967
 One-Electron (beta)  Energy = -2063.68520153495092
 Total Coulomb        Energy = 1369.44514419267125
   29   -2692.3184530152      1.84e-06  
 Alpha HF Exchange    Energy = -10.84995413718455
 Beta HF Exchange     Energy = -10.65485625268271
 DFT Correlation      Energy =  -3.12557954156806
 DFT Exchange         Energy = -85.51808354200618
 One-Electron (alpha) Energy = -2102.77684655212533
 One-Electron (beta)  Energy = -2063.68456336955796
 Total Coulomb        Energy = 1369.44467375810405
   30   -2692.3184530440      5.31e-07  Convergence criterion met
 ---------------------------------------
 SCF time:   CPU 81.28s  wall 7.00s 
<S^2> =          2.005348577
 Alpha HF Exchange    Energy = -10.84995413718455
 Beta HF Exchange     Energy = -10.65485625268271
 DFT Correlation      Energy =  -3.12557954156806
 DFT Exchange         Energy = -85.51808354200618
 One-Electron (alpha) Energy = -2102.77684655212533
 One-Electron (beta)  Energy = -2063.68456336955796
 Total Coulomb        Energy = 1369.44467375810405
 Nuclear repulsion Energy = 214.84675659297088
 SCF   energy in the final basis set =    -2692.3184530440
 Total energy in the final basis set =    -2692.3184530440
 
 --------------------------------------------------------------
 
                    Orbital Energies (a.u.)
 --------------------------------------------------------------
 
 Alpha MOs
 -- Occupied --
******* -62.549 -56.374 -56.366 -56.366 -10.181 -10.176 -10.176
 -8.737  -6.573  -6.551  -6.551  -2.664  -2.659  -2.659  -2.643
 -2.643  -0.795  -0.772  -0.686  -0.565  -0.446  -0.427  -0.404
 -0.384  -0.362  -0.349  -0.342  -0.318  -0.315  -0.168
 -- Virtual --
  0.099   0.128   0.142   0.172   0.181   0.181   0.189   0.201
  0.253   0.289   0.309   0.329   0.361   0.484   0.495   0.508
  0.527   0.540   0.555   0.557   0.567   0.671   0.712   0.725
  0.726   0.756   0.760   0.861   0.863   0.874   0.883   0.925
  0.937   0.951   1.018   1.280   1.301   1.354   1.366   1.536
  1.664   1.741   1.812   1.821   1.872   1.904   2.003   2.047
  2.052   2.084   2.113   2.121   2.135   2.274   2.283   2.379
  2.388   2.493   2.551   2.603   2.679   2.730   2.761   2.845
  2.863   2.911   2.960   3.161   3.206   3.353   3.425   3.437
  3.458   3.518   4.222   4.486   4.559   4.665   4.666   4.685
  4.704   4.791   6.237  90.207
 
 Beta MOs
 -- Occupied --
******* -62.548 -56.368 -56.365 -56.365 -10.176 -10.176 -10.167
 -8.733  -6.562  -6.549  -6.549  -2.656  -2.653  -2.652  -2.641
 -2.641  -0.762  -0.743  -0.684  -0.544  -0.441  -0.410  -0.398
 -0.376  -0.345  -0.336  -0.302  -0.298
 -- Virtual --
 -0.229  -0.020   0.102   0.132   0.146   0.180   0.186   0.190
  0.191   0.213   0.264   0.298   0.334   0.334   0.369   0.502
  0.503   0.538   0.545   0.552   0.588   0.597   0.599   0.689
  0.721   0.736   0.757   0.763   0.764   0.867   0.869   0.881
  0.887   0.931   0.941   0.954   1.037   1.298   1.310   1.360
  1.388   1.536   1.672   1.761   1.824   1.843   1.898   1.923
  2.029   2.052   2.058   2.088   2.115   2.126   2.143   2.286
  2.290   2.380   2.399   2.515   2.568   2.615   2.683   2.733
  2.766   2.852   2.869   2.919   2.965   3.165   3.211   3.359
  3.427   3.440   3.463   3.524   4.241   4.486   4.571   4.680
  4.681   4.699   4.707   4.800   6.253  90.214
 --------------------------------------------------------------
 
          Ground-State Mulliken Net Atomic Charges

     Atom                 Charge (a.u.)    Spin (a.u.)
  --------------------------------------------------------
      1 Br                    0.011964       1.023625
      2 C                    -0.077015       0.991543
      3 C                    -0.330560      -0.073215
      4 C                    -0.330342      -0.073264
      5 H                     0.086947      -0.043515
      6 H                     0.104200       0.007419
      7 H                     0.107974       0.058436
      8 H                     0.107426       0.021627
      9 H                     0.104175       0.007357
     10 H                     0.107794       0.058262
     11 H                     0.107436       0.021724
  --------------------------------------------------------
  Sum of atomic charges =    -0.000000
  Sum of spin   charges =     2.000000

 -----------------------------------------------------------------
                    Cartesian Multipole Moments
 -----------------------------------------------------------------
    Charge (ESU x 10^10)
                -0.0000
    Dipole Moment (Debye)
         X      -0.3554      Y       0.0002      Z       0.0133
       Tot       0.3556
    Quadrupole Moments (Debye-Ang)
        XX     -40.6263     XY       0.0156     YY     -36.6493
        XZ       0.3207     YZ       0.0026     ZZ     -39.2735
    Octopole Moments (Debye-Ang^2)
       XXX     -85.2863    XXY       0.0174    XYY     -20.5829
       YYY      -0.0917    XXZ       4.0153    XYZ       0.0029
       YYZ       4.0769    XZZ     -26.8091    YZZ      -0.0356
       ZZZ      11.9949
    Hexadecapole Moments (Debye-Ang^3)
      XXXX    -736.7035   XXXY      -0.0661   XXYY    -144.9120
      XYYY      -0.2352   YYYY    -222.2351   XXXZ      35.3454
      XXYZ       0.0088   XYYZ       9.7123   YYYZ       0.0458
      XXZZ    -138.9389   XYZZ      -0.0932   YYZZ     -51.6510
      XZZZ      34.2771   YZZZ       0.0510   ZZZZ     -85.3398
 -----------------------------------------------------------------
 Calculating analytic gradient of the SCF energy
 Gradient of SCF Energy
            1           2           3           4           5           6
    1  -0.0140801   0.0126837   0.0004460   0.0005690   0.0002441  -0.0000157
    2   0.0000189  -0.0000294  -0.0001639   0.0001788   0.0000133   0.0000506
    3   0.0039488  -0.0073217   0.0002794   0.0003128   0.0030452  -0.0000252
            7           8           9          10          11
    1  -0.0000047   0.0001141  -0.0000319  -0.0000119   0.0000876
    2   0.0000258   0.0000238  -0.0000588  -0.0000308  -0.0000282
    3  -0.0000974   0.0000102  -0.0000130  -0.0001259  -0.0000133
 Max gradient component =       1.408E-02
 RMS gradient           =       3.645E-03
 Gradient time:  CPU 10.55 s  wall 0.92 s
 Geometry Optimization Parameters
   NAtoms,    NIC,     NZ,  NCons,   NDum,   NFix, NCnnct, MaxDiis
       11      75       0       1       0       0       0       0

 Cartesian Hessian Update
 Hessian Updated using BFGS Update


** CONSTRAINED OPTIMIZATION IN DELOCALIZED INTERNAL COORDINATES **
   Searching for a Minimum

   Optimization Cycle:   3

                       Coordinates (Angstroms)
     ATOM                X               Y               Z
      1  Br        2.2896854634    0.0019577454   -0.2719046459
      2  C        -0.4984636432   -0.0001039305    0.5257304386
      3  C        -0.8533871255   -1.2979774268   -0.1232232185
      4  C        -0.8522407671    1.2978792949   -0.1236530556
      5  H        -0.3230612539    0.0000778960    1.6038435773
      6  H        -0.3745597219   -2.1494566293    0.3727710418
      7  H        -1.9408987552   -1.4913000801   -0.1050556401
      8  H        -0.5596463347   -1.3124534185   -1.1818441758
      9  H        -0.3743391831    2.1492305668    0.3733544178
     10  H        -1.9398169214    1.4910608655   -0.1074827172
     11  H        -0.5568757573    1.3124841165   -1.1818320223
   Point Group: c1    Number of degrees of freedom:    27


   Energy is  -2692.318453044

              Constraints and their Current Values
                                        Value     Constraint
   Distance(Angs):        1   2             2.900000     2.900000
 Hessian Updated using BFGS Update

 23 Hessian modes will be used to form the next step
  Hessian Eigenvalues:
     0.044997    0.045000    0.052217    0.068660    0.081335    0.081363
     0.082036    0.082045    0.093874    0.123051    0.159668    0.160000
     0.160188    0.162883    0.313085    0.330428    0.331622    0.331656
     0.334416    0.338365    0.338809    0.341821    0.342277

 Minimum Search - Taking Simple RFO Step
 Searching for Lamda that Minimizes Along All modes
 Value Taken    Lamda =  -0.00004127
 Step Taken.  Stepsize is  0.017111

                             Maximum     Tolerance    Cnvgd?
         Gradient           0.001888      0.000300      NO
         Displacement       0.010697      0.001200      NO
         Energy change     -0.000103      0.000001      NO


 New Cartesian Coordinates Obtained by Inverse Iteration

 Displacement from previous Coordinates is:  0.022696
 ----------------------------------------------------------------
             Standard Nuclear Orientation (Angstroms)
    I     Atom           X                Y                Z
 ----------------------------------------------------------------
    1      Br      2.2939938725     0.0012345930    -0.2667899182
    2      C      -0.4952384756    -0.0000098973     0.5270506067
    3      C      -0.8536750573    -1.2966249288    -0.1233849433
    4      C      -0.8528819537     1.2966653131    -0.1238061655
    5      H      -0.3200560709     0.0001603953     1.5999301890
    6      H      -0.3761975440    -2.1499188957     0.3710401577
    7      H      -1.9415343466    -1.4877993363    -0.1039063897
    8      H      -0.5616780021    -1.3107599064    -1.1824767420
    9      H      -0.3762708551     2.1499107629     0.3714753106
   10      H      -1.9408086083     1.4875790507    -0.1059992532
   11      H      -0.5592569589     1.3109618495    -1.1824288521
 ----------------------------------------------------------------
 Nuclear Repulsion Energy =   214.7659796913 hartrees
 There are       31 alpha and       29 beta electrons

                       Distance Matrix (Angstroms)
             Br(  1)   C (  2)   C (  3)   C (  4)   H (  5)   H (  6)
   C (  2)  2.900000
   C (  3)  3.407759  1.494240
   C (  4)  3.406085  1.494286  2.593290
   H (  5)  3.212149  1.087088  2.221760  2.221733
   H (  6)  3.487723  2.158847  1.095697  3.514405  2.477128
   H (  7)  4.492600  2.168731  1.104701  2.989783  2.783213  1.764725
   H (  8)  3.273328  2.155218  1.098698  2.829178  3.085236  1.775389
   H (  9)  3.486331  2.158823  3.514457  1.095669  2.476628  4.299830
   H ( 10)  4.490949  2.168720  2.988972  1.104694  2.783783  3.988354
   H ( 11)  3.270294  2.155241  2.829799  1.098682  3.084954  3.797956
             H (  7)   H (  8)   H (  9)   H ( 10)
   H (  8)  1.760301
   H (  9)  3.988605  3.798076
   H ( 10)  2.975379  3.300228  1.764779
   H ( 11)  3.302570  2.621723  1.775370  1.760278
 
 Applying Cartesian multipole field
    Component          Value
    ---------          -----
     (2,0,0)        1.00000E-11
     (0,2,0)        2.00000E-11
     (0,0,2)       -3.00000E-11
 Nucleus-field energy     =     0.0000000088 hartrees
 Requested basis set is 6-31G(d,p)
 There are 41 shells and 115 basis functions
 A cutoff of  1.0D-14 yielded    811 shell pairs
 There are      6487 function pairs
 Smallest overlap matrix eigenvalue = 7.26E-04
 Guess from superposition of atomic densities
 Warning:  Energy on first SCF cycle will be non-variational
[...]
    9      H      -0.3790270046     2.1519583812     0.3603532767
   10      H      -1.9473484552     1.4813541383    -0.0926172915
   11      H      -0.5812290960     1.3126857561    -1.1904661546
 ----------------------------------------------------------------
 Nuclear Repulsion Energy =   214.0603853783 hartrees
 There are       31 alpha and       29 beta electrons

                       Distance Matrix (Angstroms)
             Br(  1)   C (  2)   C (  3)   C (  4)   H (  5)   H (  6)
   C (  2)  2.900000
   C (  3)  3.431899  1.494335
   C (  4)  3.435125  1.494275  2.591657
   H (  5)  3.174704  1.087476  2.221966  2.222446
   H (  6)  3.497004  2.158990  1.095601  3.514058  2.476134
   H (  7)  4.516740  2.168351  1.104616  2.982417  2.785112  1.765148
   H (  8)  3.325717  2.154979  1.098649  2.830438  3.084420  1.775089
   H (  9)  3.502089  2.159658  3.514569  1.095754  2.477977  4.302225
   H ( 10)  4.519749  2.168405  2.983101  1.104704  2.785132  3.982215
   H ( 11)  3.329697  2.154832  2.829961  1.098631  3.084826  3.800285
             H (  7)   H (  8)   H (  9)   H ( 10)
   H (  8)  1.760361
   H (  9)  3.982325  3.800724
   H ( 10)  2.962035  3.298552  1.764802
   H ( 11)  3.296806  2.624970  1.774910  1.760683
 
 Applying Cartesian multipole field
    Component          Value
    ---------          -----
     (2,0,0)        1.00000E-11
     (0,2,0)        2.00000E-11
     (0,0,2)       -3.00000E-11
 Nucleus-field energy     =     0.0000000091 hartrees
 Requested basis set is 6-31G(d,p)
 There are 41 shells and 115 basis functions
 A cutoff of  1.0D-14 yielded    809 shell pairs
 There are      6451 function pairs
 Smallest overlap matrix eigenvalue = 7.26E-04
 Guess from superposition of atomic densities
 Warning:  Energy on first SCF cycle will be non-variational
 SAD guess density has 59.972873 electrons

 -----------------------------------------------------------------------
  General SCF calculation program by
  Eric Jon Sundstrom, Paul Horn, Yuezhi Mao, Dmitri Zuev, Alec White,
  David Stuck, Shaama M.S., Shane Yost, Joonho Lee, David Small,
  Daniel Levine, Susi Lehtola, Hugh Burton, Evgeny Epifanovsky
 -----------------------------------------------------------------------
 Exchange:     0.2000 Hartree-Fock + 0.0800 Slater + 0.7200 B88
 Correlation:  0.1900 VWN1RPA + 0.8100 LYP
 Using SG-1 standard quadrature grid
 using 12 threads for integral computing
 -------------------------------------------------------
 OpenMP Integral computing Module                
 Release: version 1.0, May 2013, Q-Chem Inc. Pittsburgh 
 -------------------------------------------------------
 -------------------------------------------------------
 OpenMP BLAS3 based DFT computing Module                
 Release: version 1.0, May 2013, Q-Chem Inc. Pittsburgh 
 -------------------------------------------------------
 A unrestricted SCF calculation will be
 performed using DIIS
 SCF converges when DIIS error is below 1.0e-06
 Alpha HF Exchange    Energy = -10.71751869205292
 Beta HF Exchange     Energy = -10.71751869205292
 DFT Correlation      Energy =  -3.11130283308194
 DFT Exchange         Energy = -84.98284974317069
 One-Electron (alpha) Energy = -2080.66906316983795
 One-Electron (beta)  Energy = -2080.66906316983795
 Total Coulomb        Energy = 1361.13907955197169
 ---------------------------------------
  Cycle       Energy         DIIS error
 ---------------------------------------
    1   -2695.6678513607      1.64e-01  
 Alpha HF Exchange    Energy = -10.89979595278618
 Beta HF Exchange     Energy = -10.69846457016985
 DFT Correlation      Energy =  -3.14470762191829
 DFT Exchange         Energy = -85.90896529588500
 One-Electron (alpha) Energy = -2105.97300611628498
 One-Electron (beta)  Energy = -2066.75024678252430
 Total Coulomb        Energy = 1377.11679293918564
    2   -2692.1980080130      9.62e-03  
 Alpha HF Exchange    Energy = -10.80052245997059
 Beta HF Exchange     Energy = -10.61062610692078
 DFT Correlation      Energy =  -3.10803266923255
 DFT Exchange         Energy = -85.13988893215182
 One-Electron (alpha) Energy = -2097.85686135671085
 One-Electron (beta)  Energy = -2059.34460932476622
 Total Coulomb        Energy = 1360.61253304382853
    3   -2692.1876224185      4.52e-03  
 Alpha HF Exchange    Energy = -10.87585191991954
 Beta HF Exchange     Energy = -10.67708201583713
 DFT Correlation      Energy =  -3.13587158393473
 DFT Exchange         Energy = -85.71666665590082
 One-Electron (alpha) Energy = -2103.90088370823469
 One-Electron (beta)  Energy = -2064.61010194352366
 Total Coulomb        Energy = 1372.58628653091591
    4   -2692.2697859090      2.72e-03  
 Alpha HF Exchange    Energy = -10.85211900900165
 Beta HF Exchange     Energy = -10.65689548014200
 DFT Correlation      Energy =  -3.12580242698808
 DFT Exchange         Energy = -85.53422288672300
 One-Electron (alpha) Energy = -2102.21007470038785
 One-Electron (beta)  Energy = -2063.11195198314635
 Total Coulomb        Energy = 1369.11248792952460
    5   -2692.3181931695      2.92e-04  
 Alpha HF Exchange    Energy = -10.85017668441867
 Beta HF Exchange     Energy = -10.65488957033308
 DFT Correlation      Energy =  -3.12567792611322
 DFT Exchange         Energy = -85.51930819225059
 One-Electron (alpha) Energy = -2101.98519496204881
 One-Electron (beta)  Energy = -2062.89922210052191
 Total Coulomb        Energy = 1368.65560319054794
    6   -2692.3184808577      5.46e-05  
 Alpha HF Exchange    Energy = -10.84998716719181
 Beta HF Exchange     Energy = -10.65488806802803
 DFT Correlation      Energy =  -3.12548564802804
 DFT Exchange         Energy = -85.51822055211311
 One-Electron (alpha) Energy = -2101.97394960404836
 One-Electron (beta)  Energy = -2062.89084609004522
 Total Coulomb        Energy = 1368.63449150335009
    7   -2692.3185002387      1.36e-05  
 Alpha HF Exchange    Energy = -10.85010844050258
 Beta HF Exchange     Energy = -10.65497030597565
 DFT Correlation      Energy =  -3.12549427777637
 DFT Exchange         Energy = -85.51898356563775
 One-Electron (alpha) Energy = -2101.98581924837026
 One-Electron (beta)  Energy = -2062.90077085151279
 Total Coulomb        Energy = 1368.65725928517281
    8   -2692.3185020172      7.60e-06  
 Alpha HF Exchange    Energy = -10.85010654055472
 Beta HF Exchange     Energy = -10.65499633388624
 DFT Correlation      Energy =  -3.12549169308192
 DFT Exchange         Energy = -85.51906339136137
 One-Electron (alpha) Energy = -2101.98485026717208
 One-Electron (beta)  Energy = -2062.90001254989602
 Total Coulomb        Energy = 1368.65563274929491
    9   -2692.3185026393      2.29e-06  
 Alpha HF Exchange    Energy = -10.85010050322942
 Beta HF Exchange     Energy = -10.65499370092969
 DFT Correlation      Energy =  -3.12548679446586
 DFT Exchange         Energy = -85.51902300739850
 One-Electron (alpha) Energy = -2101.98400280885517
 One-Electron (beta)  Energy = -2062.89957641265846
 Total Coulomb        Energy = 1368.65429495052490
   10   -2692.3185028896      1.14e-06  
 Alpha HF Exchange    Energy = -10.85009895586925
 Beta HF Exchange     Energy = -10.65499380638784
 DFT Correlation      Energy =  -3.12548623199643
 DFT Exchange         Energy = -85.51901796403644
 One-Electron (alpha) Energy = -2101.98389005373792
 One-Electron (beta)  Energy = -2062.89968479706022
 Total Coulomb        Energy = 1368.65428332114516
   11   -2692.3185031005      1.10e-06  
 Alpha HF Exchange    Energy = -10.85009896604628
 Beta HF Exchange     Energy = -10.65499399091974
 DFT Correlation      Energy =  -3.12548625005686
 DFT Exchange         Energy = -85.51901907371425
 One-Electron (alpha) Energy = -2101.98389381147535
 One-Electron (beta)  Energy = -2062.89973126829273
 Total Coulomb        Energy = 1368.65433474617521
   12   -2692.3185032269      1.11e-06  
 Alpha HF Exchange    Energy = -10.85009948332111
 Beta HF Exchange     Energy = -10.65499436259856
 DFT Correlation      Energy =  -3.12548631153663
 DFT Exchange         Energy = -85.51902152604779
 One-Electron (alpha) Energy = -2101.98398049786556
 One-Electron (beta)  Energy = -2062.89972984377800
 Total Coulomb        Energy = 1368.65442402844747
   13   -2692.3185026093      1.05e-06  
 Alpha HF Exchange    Energy = -10.85009863325840
 Beta HF Exchange     Energy = -10.65499636083239
 DFT Correlation      Energy =  -3.12548612357218
 DFT Exchange         Energy = -85.51902318337463
 One-Electron (alpha) Energy = -2101.98385068666039
 One-Electron (beta)  Energy = -2062.89970929077390
 Total Coulomb        Energy = 1368.65427877549496
   14   -2692.3185001156      8.72e-07  Convergence criterion met
 ---------------------------------------
 SCF time:   CPU 42.15s  wall 4.00s 
<S^2> =          2.005325418
 Alpha HF Exchange    Energy = -10.85009863325840
 Beta HF Exchange     Energy = -10.65499636083239
 DFT Correlation      Energy =  -3.12548612357218
 DFT Exchange         Energy = -85.51902318337463
 One-Electron (alpha) Energy = -2101.98385068666039
 One-Electron (beta)  Energy = -2062.89970929077390
 Total Coulomb        Energy = 1368.65427877549496
 Nuclear repulsion Energy = 214.06038538739421
 SCF   energy in the final basis set =    -2692.3185001156
 Total energy in the final basis set =    -2692.3185001156
 
 --------------------------------------------------------------
 
                    Orbital Energies (a.u.)
 --------------------------------------------------------------
 
 Alpha MOs
 -- Occupied --
******* -62.550 -56.374 -56.367 -56.366 -10.180 -10.175 -10.175
 -8.737  -6.574  -6.552  -6.552  -2.665  -2.659  -2.659  -2.643
 -2.643  -0.795  -0.772  -0.685  -0.565  -0.446  -0.427  -0.403
 -0.383  -0.363  -0.349  -0.342  -0.318  -0.316  -0.168
 -- Virtual --
  0.099   0.129   0.142   0.172   0.181   0.182   0.189   0.200
  0.254   0.288   0.308   0.328   0.359   0.485   0.497   0.507
  0.529   0.542   0.555   0.556   0.567   0.666   0.707   0.727
  0.727   0.755   0.760   0.861   0.862   0.876   0.883   0.923
  0.939   0.950   1.015   1.281   1.303   1.354   1.364   1.536
  1.666   1.737   1.811   1.824   1.872   1.903   2.005   2.048
  2.052   2.084   2.113   2.120   2.137   2.273   2.284   2.379
  2.390   2.496   2.551   2.605   2.680   2.730   2.761   2.845
  2.865   2.912   2.962   3.160   3.206   3.356   3.424   3.438
  3.459   3.523   4.222   4.487   4.559   4.665   4.665   4.682
  4.703   4.790   6.236  90.204
 
 Beta MOs
 -- Occupied --
******* -62.548 -56.368 -56.365 -56.365 -10.176 -10.176 -10.166
 -8.733  -6.563  -6.550  -6.549  -2.656  -2.653  -2.653  -2.642
 -2.641  -0.762  -0.743  -0.683  -0.544  -0.441  -0.410  -0.397
 -0.375  -0.345  -0.337  -0.303  -0.298
 -- Virtual --
 -0.229  -0.020   0.101   0.133   0.146   0.180   0.186   0.190
  0.191   0.212   0.265   0.297   0.333   0.333   0.367   0.503
  0.503   0.539   0.548   0.552   0.588   0.597   0.599   0.684
  0.715   0.737   0.760   0.762   0.763   0.866   0.868   0.882
  0.888   0.929   0.943   0.954   1.034   1.300   1.313   1.361
  1.386   1.536   1.674   1.756   1.823   1.846   1.898   1.923
  2.030   2.052   2.058   2.088   2.115   2.126   2.145   2.287
  2.289   2.380   2.402   2.517   2.569   2.617   2.685   2.733
  2.766   2.852   2.871   2.920   2.967   3.165   3.211   3.363
  3.426   3.442   3.463   3.528   4.241   4.487   4.571   4.680
  4.680   4.697   4.706   4.800   6.253  90.211
 --------------------------------------------------------------
 
          Ground-State Mulliken Net Atomic Charges

     Atom                 Charge (a.u.)    Spin (a.u.)
  --------------------------------------------------------
      1 Br                    0.012718       1.025028
      2 C                    -0.077302       0.989926
      3 C                    -0.330603      -0.073097
      4 C                    -0.330152      -0.073193
      5 H                     0.088032      -0.042967
      6 H                     0.103777       0.007028
      7 H                     0.107829       0.058281
      8 H                     0.107090       0.021805
      9 H                     0.103263       0.007052
     10 H                     0.107647       0.058373
     11 H                     0.107702       0.021763
  --------------------------------------------------------
  Sum of atomic charges =     0.000000
  Sum of spin   charges =     2.000000

 -----------------------------------------------------------------
                    Cartesian Multipole Moments
 -----------------------------------------------------------------
    Charge (ESU x 10^10)
                 0.0000
    Dipole Moment (Debye)
         X      -0.3432      Y      -0.0010      Z       0.0187
       Tot       0.3437
    Quadrupole Moments (Debye-Ang)
        XX     -40.6049     XY       0.0195     YY     -36.6702
        XZ       0.3139     YZ       0.1165     ZZ     -39.2558
    Octopole Moments (Debye-Ang^2)
       XXX     -86.9698    XXY       0.1258    XYY     -21.0240
       YYY       0.1067    XXZ       3.1658    XYZ       0.2839
       YYZ       3.3570    XZZ     -27.3168    YZZ      -0.0113
       ZZZ       9.4085
    Hexadecapole Moments (Debye-Ang^3)
      XXXX    -753.1720   XXXY       0.7508   XXYY    -147.2565
      XYYY       0.3843   YYYY    -221.7446   XXXZ      28.2845
      XXYZ       0.6865   XYYZ       7.7435   YYYZ       0.0908
      XXZZ    -141.0179   XYZZ       0.0194   YYZZ     -51.1000
      XZZZ      27.5993   YZZZ       0.1091   ZZZZ     -81.9855
 -----------------------------------------------------------------
 Calculating analytic gradient of the SCF energy
 Gradient of SCF Energy
            1           2           3           4           5           6
    1  -0.0138188   0.0137898  -0.0000227   0.0000303  -0.0000870  -0.0000192
    2   0.0000101  -0.0000187  -0.0000652  -0.0000559  -0.0000197   0.0000544
    3   0.0038091  -0.0036281  -0.0000243  -0.0000121   0.0000123   0.0000120
            7           8           9          10          11
    1   0.0000166   0.0000705  -0.0000367  -0.0000057   0.0000830
    2   0.0000244   0.0000022   0.0000517   0.0000133   0.0000034
    3  -0.0000985   0.0000252   0.0000114  -0.0000883  -0.0000186
 Max gradient component =       1.382E-02
 RMS gradient           =       3.520E-03
 Gradient time:  CPU 10.54 s  wall 0.99 s
 Geometry Optimization Parameters
   NAtoms,    NIC,     NZ,  NCons,   NDum,   NFix, NCnnct, MaxDiis
       11      75       0       1       0       0       0       0

 Cartesian Hessian Update
 Hessian Updated using BFGS Update


** CONSTRAINED OPTIMIZATION IN DELOCALIZED INTERNAL COORDINATES **
   Searching for a Minimum

   Optimization Cycle:  14

                       Coordinates (Angstroms)
     ATOM                X               Y               Z
      1  Br        2.3198616499   -0.0027628771   -0.2208535147
      2  C        -0.4849434127    0.0005273989    0.5160719596
      3  C        -0.8578958645   -1.2954709612   -0.1276138385
      4  C        -0.8588364286    1.2961855650   -0.1276150434
      5  H        -0.2904909078    0.0001523628    1.5860211512
      6  H        -0.3779254924   -2.1502664485    0.3615645414
      7  H        -1.9463519338   -1.4806802510   -0.0938911202
      8  H        -0.5794170543   -1.3122840645   -1.1902499660
      9  H        -0.3790270046    2.1519583812    0.3603532767
     10  H        -1.9473484552    1.4813541383   -0.0926172915
     11  H        -0.5812290960    1.3126857561   -1.1904661546
   Point Group: c1    Number of degrees of freedom:    27


   Energy is  -2692.318500116

              Constraints and their Current Values
                                        Value     Constraint
   Distance(Angs):        1   2             2.900000     2.900000
 Hessian Updated using BFGS Update

 26 Hessian modes will be used to form the next step
  Hessian Eigenvalues:
     0.002412    0.009580    0.038484    0.045101    0.076682    0.080836
     0.081832    0.083885    0.091741    0.102046    0.126383    0.159758
     0.160019    0.160193    0.161580    0.163633    0.207677    0.328468
     0.329587    0.331854    0.334581    0.338443    0.342015    0.352540
     0.375161    0.410080

 Minimum Search - Taking Simple RFO Step
 Searching for Lamda that Minimizes Along All modes
 Value Taken    Lamda =   0.00000000
 Step Taken.  Stepsize is  0.001362

                             Maximum     Tolerance    Cnvgd?
         Gradient           0.000057      0.000300     YES
         Displacement       0.000738      0.001200     YES
         Energy change     -0.000003      0.000001      NO


                       Distance Matrix (Angstroms)
             Br(  1)   C (  2)   C (  3)   C (  4)   H (  5)   H (  6)
   C (  2)  2.900000
   C (  3)  3.431899  1.494335
   C (  4)  3.435125  1.494275  2.591657
   H (  5)  3.174704  1.087476  2.221966  2.222446
   H (  6)  3.497004  2.158990  1.095601  3.514058  2.476134
   H (  7)  4.516740  2.168351  1.104616  2.982417  2.785112  1.765148
   H (  8)  3.325717  2.154979  1.098649  2.830438  3.084420  1.775089
   H (  9)  3.502089  2.159658  3.514569  1.095754  2.477977  4.302225
   H ( 10)  4.519749  2.168405  2.983101  1.104704  2.785132  3.982215
   H ( 11)  3.329697  2.154832  2.829961  1.098631  3.084826  3.800285
             H (  7)   H (  8)   H (  9)   H ( 10)
   H (  8)  1.760361
   H (  9)  3.982325  3.800724
   H ( 10)  2.962035  3.298552  1.764802
   H ( 11)  3.296806  2.624970  1.774910  1.760683
 
 Final energy is   -2692.31850011558     


 ******************************
 **  OPTIMIZATION CONVERGED  **
 ******************************

                       Coordinates (Angstroms)
     ATOM                X               Y               Z
      1  Br        2.3198616499   -0.0027628771   -0.2208535147
      2  C        -0.4849434127    0.0005273989    0.5160719596
      3  C        -0.8578958645   -1.2954709612   -0.1276138385
      4  C        -0.8588364286    1.2961855650   -0.1276150434
      5  H        -0.2904909078    0.0001523628    1.5860211512
      6  H        -0.3779254924   -2.1502664485    0.3615645414
      7  H        -1.9463519338   -1.4806802510   -0.0938911202
      8  H        -0.5794170543   -1.3122840645   -1.1902499660
      9  H        -0.3790270046    2.1519583812    0.3603532767
     10  H        -1.9473484552    1.4813541383   -0.0926172915
     11  H        -0.5812290960    1.3126857561   -1.1904661546

Z-matrix Print:
$molecule
0 3
Br
C  1 2.900000
H  2 1.087476 1 94.420463
C  2 1.494275 1 97.673252 3 119.007877 0
H  4 1.095754 2 112.072763 1 -66.946951 0
H  4 1.098631 2 111.502141 1 54.217078 0
H  4 1.104704 2 112.224774 1 173.079801 0
C  2 1.494335 1 97.524027 3 -118.935286 0
H  8 1.095601 2 112.023633 1 66.923107 0
H  8 1.098649 2 111.508673 1 -54.243978 0
H  8 1.104616 2 112.221652 1 -173.079860 0
$end

PES scan, value:    2.9000 energy: -2692.3185001156
------- Summary of potential scan: ------ 
    2.9000     -2692.3185001156
----------------------------------------- 
Archival summary:
1\1\hpc0242\JobtypUnspecified\ProcedureUnspecified\6-31G**\r137(3)\knomura\WedMar1315:21:442019WedMar1315:21:442019\0\\#,JobtypUnspecified,ProcedureUnspecified,6-31G**,\\0,3\Br\C,1,2.9\H,2,1.08748,1,94.4205\C,2,1.49428,1,97.6733,3,119.008,0\H,4,1.09575,2,112.073,1,-66.947,0\H,4,1.09863,2,111.502,1,54.2171,0\H,4,1.1047,2,112.225,1,173.08,0\C,2,1.49433,1,97.524,3,-118.935,0\H,8,1.0956,2,112.024,1,66.9231,0\H,8,1.09865,2,111.509,1,-54.244,0\H,8,1.10462,2,112.222,1,-173.08,0\\\@

 Total job time:  78.46s(wall), 913.12s(cpu) 
 Wed Mar 13 15:21:44 2019

        *************************************************************
        *                                                           *
        *  Thank you very much for using Q-Chem.  Have a nice day.  *
        *                                                           *
        *************************************************************


