
Running Job 1 of 1 halogens/Bromine/01/Br_2.xyz.data/inputs/bond_singlet_1.6.in
qchem halogens/Bromine/01/Br_2.xyz.data/inputs/bond_singlet_1.6.in_19450.0 /staging/scratch/2868759/qchem19450/ 1
/usr/usc/qchem/5.1.1/exe/qcprog.exe_s halogens/Bromine/01/Br_2.xyz.data/inputs/bond_singlet_1.6.in_19450.0 /staging/scratch/2868759/qchem19450/
Check license passed

                  Welcome to Q-Chem
     A Quantum Leap Into The Future Of Chemistry


 Q-Chem 5.1, Q-Chem, Inc., Pleasanton, CA (2018)

 Yihan Shao,  Zhengting Gan,  E. Epifanovsky,  A. T. B. Gilbert,  M. Wormit,  
 J. Kussmann,  A. W. Lange,  A. Behn,  Jia Deng,  Xintian Feng,  D. Ghosh,  
 M. Goldey,  P. R. Horn,  L. D. Jacobson,  I. Kaliman,  T. Kus,  A. Landau,  
 Jie Liu,  E. I. Proynov,  R. M. Richard,  R. P. Steele,  E. J. Sundstrom,  
 H. L. Woodcock III,  P. M. Zimmerman,  D. Zuev,  B. Albrecht,  E. Alguire,  
 S. A. Baeppler,  D. Barton,  Z. Benda,  Y. A. Bernard,  E. J. Berquist,  
 K. B. Bravaya,  H. Burton,  D. Casanova,  Chun-Min Chang,  Yunqing Chen,  
 A. Chien,  K. D. Closser,  M. P. Coons,  S. Coriani,  S. Dasgupta,  
 A. L. Dempwolff,  M. Diedenhofen,  Hainam Do,  R. G. Edgar,  Po-Tung Fang,  
 S. Faraji,  S. Fatehi,  Qingguo Feng,  K. D. Fenk,  J. Fosso-Tande,  
 Qinghui Ge,  A. Ghysels,  G. Gidofalvi,  J. Gomes,  J. Gonthier,  A. Gunina,  
 D. Hait,  M. W. D. Hanson-Heine,  P. H. P. Harbach,  A. W. Hauser,  
 J. E. Herr,  E. G. Hohenstein,  Z. C. Holden,  Kerwin Hui,  B. C. Huynh,  
 T.-C. Jagau,  Hyunjun Ji,  B. Kaduk,  K. Khistyaev,  Jaehoon Kim,  
 P. Klunzinger,  K. Koh,  D. Kosenkov,  L. Koulias,  T. Kowalczyk,  
 C. M. Krauter,  A. Kunitsa,  Ka Un Lao,  A. Laurent,  K. V. Lawler,  
 Joonho Lee,  D. Lefrancois,  S. Lehtola,  D. S. Levine,  Yi-Pei Li,  
 You-Sheng Lin,  Fenglai Liu,  E. Livshits,  A. Luenser,  P. Manohar,  
 E. Mansoor,  S. F. Manzer,  Shan-Ping Mao,  Yuezhi Mao,  N. Mardirossian,  
 A. V. Marenich,  T. Markovich,  L. A. Martinez-Martinez,  S. A. Maurer,  
 N. J. Mayhall,  S. C. McKenzie,  J.-M. Mewes,  A. F. Morrison,  
 J. W. Mullinax,  K. Nanda,  T. S. Nguyen-Beck,  R. Olivares-Amaya,  
 J. A. Parkhill,  T. M. Perrine,  F. Plasser,  P. Pokhilko,  S. Prager,  
 A. Prociuk,  E. Ramos,  D. R. Rehn,  F. Rob,  M. Schneider,  N. Sergueev,  
 S. M. Sharada,  S. Sharma,  D. W. Small,  T. Stauch,  T. Stein,  
 Yu-Chuan Su,  A. J. W. Thom,  A. Tkatchenko,  T. Tsuchimochi,  N. M. Tubman,  
 L. Vogt,  M. L. Vidal,  O. Vydrov,  M. A. Watson,  J. Wenzel,  
 M. de Wergifosse,  T. A. Wesolowski,  A. White,  J. Witte,  A. Yamada,  
 Jun Yang,  K. Yao,  S. Yeganeh,  S. R. Yost,  Zhi-Qiang You,  A. Zech,  
 Igor Ying Zhang,  Xing Zhang,  Yan Zhao,  Ying Zhu,  B. R. Brooks,  
 G. K. L. Chan,  C. J. Cramer,  M. S. Gordon,  W. J. Hehre,  A. Klamt,  
 M. W. Schmidt,  C. D. Sherrill,  D. G. Truhlar,  A. Aspuru-Guzik,  R. Baer,  
 A. T. Bell,  N. A. Besley,  Jeng-Da Chai,  A. E. DePrince, III,  
 R. A. DiStasio Jr.,  A. Dreuw,  B. D. Dunietz,  T. R. Furlani,  
 Chao-Ping Hsu,  Yousung Jung,  Jing Kong,  D. S. Lambrecht,  WanZhen Liang,  
 C. Ochsenfeld,  V. A. Rassolov,  L. V. Slipchenko,  J. E. Subotnik,  
 T. Van Voorhis,  J. M. Herbert,  A. I. Krylov,  P. M. W. Gill,  M. Head-Gordon

 Contributors to earlier versions of Q-Chem not listed above: 
 R. D. Adamson,  B. Austin,  J. Baker,  G. J. O. Beran,  K. Brandhorst,  
 S. T. Brown,  E. F. C. Byrd,  A. K. Chakraborty,  C.-L. Cheng,  
 Siu Hung Chien,  D. M. Chipman,  D. L. Crittenden,  H. Dachsel,  
 R. J. Doerksen,  A. D. Dutoi,  L. Fusti-Molnar,  W. A. Goddard III,  
 A. Golubeva-Zadorozhnaya,  S. R. Gwaltney,  G. Hawkins,  A. Heyden,  
 S. Hirata,  G. Kedziora,  F. J. Keil,  C. Kelley,  Jihan Kim,  R. A. King,  
 R. Z. Khaliullin,  P. P. Korambath,  W. Kurlancheek,  A. M. Lee,  M. S. Lee,  
 S. V. Levchenko,  Ching Yeh Lin,  D. Liotard,  R. C. Lochan,  I. Lotan,  
 P. E. Maslen,  N. Nair,  D. P. O'Neill,  D. Neuhauser,  E. Neuscamman,  
 C. M. Oana,  R. Olson,  B. Peters,  R. Peverati,  P. A. Pieniazek,  
 Y. M. Rhee,  J. Ritchie,  M. A. Rohrdanz,  E. Rosta,  N. J. Russ,  
 H. F. Schaefer III,  N. E. Schultz,  N. Shenvi,  A. C. Simmonett,  A. Sodt,  
 D. Stuck,  K. S. Thanthiriwatte,  V. Vanovschi,  Tao Wang,  A. Warshel,  
 C. F. Williams,  Q. Wu,  X. Xu,  W. Zhang

 Please cite Q-Chem as follows:
 Y. Shao et al., Mol. Phys. 113, 184-215 (2015)
 DOI: 10.1080/00268976.2014.952696

 Q-Chem 5.1.1 for Intel X86 EM64T Linux

 Parts of Q-Chem use Armadillo 8.300.2 (Tropical Shenanigans).
 http://arma.sourceforge.net/

 Q-Chem begins on Wed Mar 13 13:54:36 2019  

Host: 
0

     Scratch files written to /staging/scratch/2868759/qchem19450//
 Aug318 |scratch|qcdevops|jenkins|workspace|build_RNUM 6013   
Processing $rem in /usr/usc/qchem/5.1.1/config/preferences.
 MEM_TOTAL  2000 
Input Ideriv = 2
Curr. Ideriv = -1
Max.  Ideriv = 2

Checking the input file for inconsistencies... 	...done.

--------------------------------------------------------------
User input:
--------------------------------------------------------------

$comment
potential surface scanner
$end

$rem
JOBTYPE  PES_SCAN
UNRESTRICTED TRUE
SYM_IGNORE  TRUE
GEOM_OPT_MAX_CYCLES 400
SCF_MAX_CYCLES 400
METHOD   B3LYP
BASIS   6-31G**
PDB_PRINT 2
SCF_CONVERGENCE 6
THRESH 14
SCF_PRINT 1
$end
$molecule
0 1
Br 1.744600 -0.000400 -0.101000
C -0.148200 0.000100 0.395200
C -0.798600 -1.260800 -0.147100
C -0.797900 1.261200 -0.147100
H -0.168300 0.000100 1.489400
H -0.311900 -2.158700 0.249400
H -1.855400 -1.302200 0.136700
H -0.741600 -1.308000 -1.240400
H -0.310700 2.158800 0.249400
H -1.854800 1.303000 0.136600
H -0.740800 1.308300 -1.240400
$end
$scan
stre 1 2 1.600000 1.601000 0.100000
$end
--------------------------------------------------------------
 ----------------------------------------------------------------
             Standard Nuclear Orientation (Angstroms)
    I     Atom           X                Y                Z
 ----------------------------------------------------------------
    1      Br      1.7446000000    -0.0004000000    -0.1010000000
    2      C      -0.1482000000     0.0001000000     0.3952000000
    3      C      -0.7986000000    -1.2608000000    -0.1471000000
    4      C      -0.7979000000     1.2612000000    -0.1471000000
    5      H      -0.1683000000     0.0001000000     1.4894000000
    6      H      -0.3119000000    -2.1587000000     0.2494000000
    7      H      -1.8554000000    -1.3022000000     0.1367000000
    8      H      -0.7416000000    -1.3080000000    -1.2404000000
    9      H      -0.3107000000     2.1588000000     0.2494000000
   10      H      -1.8548000000     1.3030000000     0.1366000000
   11      H      -0.7408000000     1.3083000000    -1.2404000000
 ----------------------------------------------------------------
 Nuclear Repulsion Energy =   252.1812114881 hartrees
 There are       30 alpha and       30 beta electrons
 Requested basis set is 6-31G(d,p)
 There are 41 shells and 115 basis functions

 Total QAlloc Memory Limit   2000 MB
 Mega-Array Size       188 MB
 MEM_STATIC part       192 MB
A total of 1 constraints
  
            1
    1   1.0100000
    2   1.0100000
    3   2.0100000
    4   1.6000000
    5   1.6010000
    6   0.1000000
    7   0.0000000
    8   0.0000000
    9   0.0000000
   10   0.0000000

                       Distance Matrix (Angstroms)
             Br(  1)   C (  2)   C (  3)   C (  4)   H (  5)   H (  6)
   C (  2)  1.956759
   C (  3)  2.838767  1.518874
   C (  4)  2.838673  1.518740  2.522000
   H (  5)  2.487681  1.094385  2.159926  2.159838
   H (  6)  3.001705  2.169902  1.095588  3.476942  2.493720
   H (  7)  3.835516  2.162716  1.095026  2.787448  2.524300  1.768809
   H (  8)  3.031376  2.176795  1.095802  2.792716  3.080845  1.768569
   H (  9)  3.001530  2.169712  3.476913  1.095565  2.493564  4.317500
   H ( 10)  3.835490  2.162616  2.787313  1.095112  2.524262  3.791653
   H ( 11)  3.031195  2.176637  2.792655  1.095803  3.080739  3.797835
             H (  7)   H (  8)   H (  9)   H ( 10)
   H (  8)  1.771155
   H (  9)  3.791744  3.797878
   H ( 10)  2.605200  3.154784  1.769000
   H ( 11)  3.154909  2.616300  1.768570  1.771201
 
 A cutoff of  1.0D-14 yielded    839 shell pairs
 There are      6672 function pairs
 
 -------------------------------------------------------
 OpenMP Integral Computing Module                       
 Release: version 1.0, May 2013, Q-Chem Inc. Pittsburgh 
 -------------------------------------------------------
 Integral Job Info:
 Integral job number is                      11
 Integral operator is                         1
 short-range coefficients                     0
 long-range coefficients              100000000
 Omega coefficients                           0
 if combine SR and LR in K                    0
 Integral screening is                        0
 Integral computing path is                   2
 max size of driver memory is            800000
 size of driver memory is                593474
 size of scratch memory is             15267112
 max col of scratch BK array               1296
 max len of scratch array in speh3          155
 max len of scratch index in speh4           18
 max int batch size is                      520
 min int batch size is                       52
 fixed nKL is                                52
 max L of basis functions is                  2
 order of int derivative is                   0
 number of shells is                         41
 number of basis is                         115
 number of cartesian basis is               115
 number of contracted shell pairs           839
 number of primitive shell pairs           3310
 maxK2 (contraction) of shell pair           36
 max number of K2 of shell pair               1
 max number of CS2 of shell pair             59
 max number of PS2 of shell pair            258
 mem total for path MDJ                  519708
 -------------------------------------------------------
 Smallest overlap matrix eigenvalue = 7.22E-04

 Scale SEOQF with 1.000000e-01/1.000000e-01/1.000000e+00

 Standard Electronic Orientation quadrupole field applied
 Nucleus-field energy     =    -0.0000000006 hartrees
 Guess from superposition of atomic densities
 Warning:  Energy on first SCF cycle will be non-variational
 SAD guess density has 59.972873 electrons

 -----------------------------------------------------------------------
  General SCF calculation program by
  Eric Jon Sundstrom, Paul Horn, Yuezhi Mao, Dmitri Zuev, Alec White,
  David Stuck, Shaama M.S., Shane Yost, Joonho Lee, David Small,
  Daniel Levine, Susi Lehtola, Hugh Burton, Evgeny Epifanovsky
 -----------------------------------------------------------------------
 Exchange:     0.2000 Hartree-Fock + 0.0800 Slater + 0.7200 B88
 Correlation:  0.1900 VWN1RPA + 0.8100 LYP
 Using SG-1 standard quadrature grid
 using 12 threads for integral computing
 -------------------------------------------------------
 OpenMP Integral computing Module                
 Release: version 1.0, May 2013, Q-Chem Inc. Pittsburgh 
 -------------------------------------------------------
 -------------------------------------------------------
 OpenMP BLAS3 based DFT computing Module                
 Release: version 1.0, May 2013, Q-Chem Inc. Pittsburgh 
 -------------------------------------------------------
 A unrestricted SCF calculation will be
 performed using DIIS
 SCF converges when DIIS error is below 1.0e-06
 Alpha HF Exchange    Energy = -10.75097265732193
 Beta HF Exchange     Energy = -10.75097265732193
 DFT Correlation      Energy =  -3.12615926206087
 DFT Exchange         Energy = -85.04595682843150
 One-Electron (alpha) Energy = -2118.72366905046783
 One-Electron (beta)  Energy = -2118.72366905046783
 Total Coulomb        Energy = 1398.91506438211536
 ---------------------------------------
  Cycle       Energy         DIIS error
 ---------------------------------------
    1   -2696.0251236365      1.65e-01  
 Alpha HF Exchange    Energy = -10.80442937894175
 Beta HF Exchange     Energy = -10.80442937894177
 DFT Correlation      Energy =  -3.16653617145190
 DFT Exchange         Energy = -85.95302916447748
 One-Electron (alpha) Energy = -2125.69208208845157
 One-Electron (beta)  Energy = -2125.69208208845430
 Total Coulomb        Energy = 1417.60655442707161
    2   -2692.3248223561      9.61e-03  
 Alpha HF Exchange    Energy = -10.70604342901735
 Beta HF Exchange     Energy = -10.70604342901736
 DFT Correlation      Energy =  -3.13306289754604
 DFT Exchange         Energy = -85.15593574017348
 One-Electron (alpha) Energy = -2116.22405272851802
 One-Electron (beta)  Energy = -2116.22405272851893
 Total Coulomb        Energy = 1397.63764592302982
    3   -2692.3303335423      4.43e-03  
 Alpha HF Exchange    Energy = -10.77978604256954
 Beta HF Exchange     Energy = -10.77978604256953
 DFT Correlation      Energy =  -3.15868759512004
 DFT Exchange         Energy = -85.75060213077813
 One-Electron (alpha) Energy = -2123.21669019985302
 One-Electron (beta)  Energy = -2123.21669019985211
 Total Coulomb        Energy = 1412.31758789522178
    4   -2692.4034428280      2.55e-03  
 Alpha HF Exchange    Energy = -10.75593205566235
 Beta HF Exchange     Energy = -10.75593205566235
 DFT Correlation      Energy =  -3.14993135281181
 DFT Exchange         Energy = -85.55667999146573
 One-Electron (alpha) Energy = -2121.23189884915473
 One-Electron (beta)  Energy = -2121.23189884915519
 Total Coulomb        Energy = 1408.06362854245936
    5   -2692.4374331240      3.41e-04  
 Alpha HF Exchange    Energy = -10.75458251025165
 Beta HF Exchange     Energy = -10.75458251025164
 DFT Correlation      Energy =  -3.15006640343950
 DFT Exchange         Energy = -85.54742290823901
 One-Electron (alpha) Energy = -2120.99221693759137
 One-Electron (beta)  Energy = -2120.99221693759182
 Total Coulomb        Energy = 1407.57172596189753
    6   -2692.4381507580      8.13e-05  
 Alpha HF Exchange    Energy = -10.75417733084758
 Beta HF Exchange     Energy = -10.75417733084757
 DFT Correlation      Energy =  -3.14981152008730
 DFT Exchange         Energy = -85.54382841738258
 One-Electron (alpha) Energy = -2120.95287831560154
 One-Electron (beta)  Energy = -2120.95287831559835
 Total Coulomb        Energy = 1407.48834861743376
    7   -2692.4381911254      2.16e-05  
 Alpha HF Exchange    Energy = -10.75423896396748
 Beta HF Exchange     Energy = -10.75423896396748
 DFT Correlation      Energy =  -3.14982421038272
 DFT Exchange         Energy = -85.54434434544673
 One-Electron (alpha) Energy = -2120.96405425378271
 One-Electron (beta)  Energy = -2120.96405425378362
 Total Coulomb        Energy = 1407.51134968012252
    8   -2692.4381938237      5.43e-06  
 Alpha HF Exchange    Energy = -10.75424372208295
 Beta HF Exchange     Energy = -10.75424372208295
 DFT Correlation      Energy =  -3.14982721444929
 DFT Exchange         Energy = -85.54437942749956
 One-Electron (alpha) Energy = -2120.96475546347847
 One-Electron (beta)  Energy = -2120.96475546347801
 Total Coulomb        Energy = 1407.51279950314847
    9   -2692.4381940224      5.80e-07  Convergence criterion met
 ---------------------------------------
 SCF time:   CPU 27.03s  wall 2.00s 
<S^2> =         -0.000000000
 Alpha HF Exchange    Energy = -10.75424372208295
 Beta HF Exchange     Energy = -10.75424372208295
 DFT Correlation      Energy =  -3.14982721444929
 DFT Exchange         Energy = -85.54437942749956
 One-Electron (alpha) Energy = -2120.96475546347847
 One-Electron (beta)  Energy = -2120.96475546347801
 Total Coulomb        Energy = 1407.51279950314847
 Nuclear repulsion Energy = 252.18121148749793
 SCF   energy in the final basis set =    -2692.4381940224
 Total energy in the final basis set =    -2692.4381940224
 
 --------------------------------------------------------------
 
                    Orbital Energies (a.u.)
 --------------------------------------------------------------
 
 Alpha MOs
 -- Occupied --
******* -62.502 -56.323 -56.320 -56.320 -10.250 -10.191 -10.191
 -8.689  -6.519  -6.507  -6.507  -2.613  -2.609  -2.609  -2.600
 -2.599  -0.835  -0.736  -0.701  -0.586  -0.474  -0.450  -0.428
 -0.399  -0.367  -0.360  -0.343  -0.273  -0.272
 -- Virtual --
  0.003   0.086   0.128   0.142   0.147   0.166   0.176   0.181
  0.195   0.230   0.248   0.347   0.359   0.367   0.463   0.478
  0.489   0.513   0.563   0.610   0.613   0.680   0.693   0.706
  0.753   0.806   0.810   0.838   0.862   0.867   0.896   0.903
  0.920   0.949   0.960   1.088   1.314   1.361   1.378   1.529
  1.542   1.694   1.768   1.814   1.831   1.855   1.910   2.033
  2.037   2.058   2.068   2.092   2.105   2.113   2.255   2.302
  2.336   2.375   2.500   2.553   2.612   2.661   2.703   2.725
  2.855   2.858   2.889   2.895   3.159   3.208   3.310   3.408
  3.444   3.460   3.489   4.252   4.463   4.578   4.747   4.756
  4.835   4.842   4.990   6.315  90.400
 
 Beta MOs
 -- Occupied --
******* -62.502 -56.323 -56.320 -56.320 -10.250 -10.191 -10.191
 -8.689  -6.519  -6.507  -6.507  -2.613  -2.609  -2.609  -2.600
 -2.599  -0.835  -0.736  -0.701  -0.586  -0.474  -0.450  -0.428
 -0.399  -0.367  -0.360  -0.343  -0.273  -0.272
 -- Virtual --
  0.003   0.086   0.128   0.142   0.147   0.166   0.176   0.181
  0.195   0.230   0.248   0.347   0.359   0.367   0.463   0.478
  0.489   0.513   0.563   0.610   0.613   0.680   0.693   0.706
  0.753   0.806   0.810   0.838   0.862   0.867   0.896   0.903
  0.920   0.949   0.960   1.088   1.314   1.361   1.378   1.529
  1.542   1.694   1.768   1.814   1.831   1.855   1.910   2.033
  2.037   2.058   2.068   2.092   2.105   2.113   2.255   2.302
  2.336   2.375   2.500   2.553   2.612   2.661   2.703   2.725
  2.855   2.858   2.889   2.895   3.159   3.208   3.310   3.408
  3.444   3.460   3.489   4.252   4.463   4.578   4.747   4.756
  4.835   4.842   4.990   6.315  90.400
 --------------------------------------------------------------
 
          Ground-State Mulliken Net Atomic Charges

     Atom                 Charge (a.u.)    Spin (a.u.)
  --------------------------------------------------------
      1 Br                   -0.123239       0.000000
      2 C                    -0.128684       0.000000
      3 C                    -0.308133       0.000000
      4 C                    -0.308106      -0.000000
      5 H                     0.144090      -0.000000
      6 H                     0.125310      -0.000000
      7 H                     0.110518       0.000000
      8 H                     0.126209      -0.000000
      9 H                     0.125317       0.000000
     10 H                     0.110506      -0.000000
     11 H                     0.126212       0.000000
  --------------------------------------------------------
  Sum of atomic charges =     0.000000
  Sum of spin   charges =     0.000000

 -----------------------------------------------------------------
                    Cartesian Multipole Moments
 -----------------------------------------------------------------
    Charge (ESU x 10^10)
                 0.0000
    Dipole Moment (Debye)
         X      -2.2366      Y       0.0005      Z       0.4187
       Tot       2.2754
    Quadrupole Moments (Debye-Ang)
        XX     -40.6097     XY       0.0009     YY     -38.3227
        XZ      -0.2793     YZ       0.0001     ZZ     -38.2969
    Octopole Moments (Debye-Ang^2)
       XXX     -57.4612    XXY       0.0029    XYY     -20.1447
       YYY       0.0115    XXZ       0.3470    XYZ       0.0005
       YYZ       2.0873    XZZ     -20.0932    YZZ       0.0041
       ZZZ       5.2784
    Hexadecapole Moments (Debye-Ang^3)
      XXXX    -436.8132   XXXY       0.0171   XXYY    -114.9827
      XYYY       0.0305   YYYY    -209.6289   XXXZ      -3.3070
      XXYZ       0.0015   XYYZ       2.0649   YYYZ      -0.0017
      XXZZ     -90.9239   XYZZ       0.0090   YYZZ     -48.0150
      XZZZ       5.8137   YZZZ      -0.0013   ZZZZ     -70.2800
 -----------------------------------------------------------------
 Calculating analytic gradient of the SCF energy
 Gradient of SCF Energy
            1           2           3           4           5           6
    1  -0.0126220   0.0147767  -0.0014239  -0.0013551  -0.0023904   0.0008662
    2   0.0000023   0.0000585   0.0089459  -0.0089621   0.0000017  -0.0008568
    3   0.0002279   0.0011113   0.0000374   0.0000585   0.0017198   0.0005947
            7           8           9          10          11
    1   0.0010020  -0.0003424   0.0008798   0.0009472  -0.0003383
    2  -0.0017939  -0.0016005   0.0008351   0.0017771   0.0015926
    3  -0.0010597  -0.0011149   0.0005900  -0.0010507  -0.0011141
 Max gradient component =       1.478E-02
 RMS gradient           =       4.170E-03
 Gradient time:  CPU 10.86 s  wall 0.97 s
 Geometry Optimization Parameters
   NAtoms,    NIC,     NZ,  NCons,   NDum,   NFix, NCnnct, MaxDiis
       11      68       0       1       0       0       0       0


** CONSTRAINED OPTIMIZATION IN DELOCALIZED INTERNAL COORDINATES **
   Searching for a Minimum

   Optimization Cycle:   1

                       Coordinates (Angstroms)
     ATOM                X               Y               Z
      1  Br        1.7446000000   -0.0004000000   -0.1010000000
      2  C        -0.1482000000    0.0001000000    0.3952000000
      3  C        -0.7986000000   -1.2608000000   -0.1471000000
      4  C        -0.7979000000    1.2612000000   -0.1471000000
      5  H        -0.1683000000    0.0001000000    1.4894000000
      6  H        -0.3119000000   -2.1587000000    0.2494000000
      7  H        -1.8554000000   -1.3022000000    0.1367000000
      8  H        -0.7416000000   -1.3080000000   -1.2404000000
      9  H        -0.3107000000    2.1588000000    0.2494000000
     10  H        -1.8548000000    1.3030000000    0.1366000000
     11  H        -0.7408000000    1.3083000000   -1.2404000000
   Point Group: c1    Number of degrees of freedom:    27


   Energy is  -2692.438194022

              Constraints and their Current Values
                                        Value     Constraint
   Distance(Angs):        1   2             1.956759     1.600000

 Attempting to Generate Delocalized Internal Coordinates
**WARNING** Constraint Gradient Reduced for constraint   1

   Using Lagrange Multiplier Algorithm


 28 Hessian modes will be used to form the next step
  Hessian Eigenvalues:
    -0.919359    0.045000    0.045000    0.073955    0.082338    0.082345
     0.082514    0.083104    0.083107    0.112642    0.160000    0.160000
     0.160000    0.160000    0.160000    0.160000    0.178856    0.231596
     0.304753    0.304882    0.341506    0.341507    0.341748    0.341774
     0.342285    0.342382    0.343108    1.087715

 Minimum Search - Taking P-RFO Step
 Searching for Lamda that Maximizes Along the Constraint modes Only
 Value Taken    Lamda =   0.05395526


 ********************************************
 ** ERROR IN DETERMINING Lamda IN CONFormD **
 ********************************************


 ** Scaling Hessian by  2.398011 **


 28 Hessian modes will be used to form the next step
  Hessian Eigenvalues:
    -0.818310    0.107911    0.107911    0.177345    0.197448    0.197464
     0.197868    0.199284    0.199293    0.270116    0.383682    0.383682
     0.383682    0.383682    0.383682    0.383682    0.428898    0.555371
     0.730801    0.731111    0.818935    0.818937    0.819514    0.819578
     0.820803    0.821036    0.822777    1.222030

 Minimum Search - Taking P-RFO Step
 Searching for Lamda that Maximizes Along the Constraint modes Only
 Value Taken    Lamda =   0.06516996
 Searching for Lamda that Minimizes Along All other modes
 Value Taken    Lamda =  -0.02637199
 Step Taken.  Stepsize is  0.285490

                             Maximum     Tolerance    Cnvgd?
         Gradient            0.300000       0.000300      NO
         Displacement        0.283887       0.001200      NO
         Energy change     *********       0.000001      NO


 New Cartesian Coordinates Obtained by Inverse Iteration

 Displacement from previous Coordinates is:  0.267721
 ----------------------------------------------------------------
             Standard Nuclear Orientation (Angstroms)
    I     Atom           X                Y                Z
 ----------------------------------------------------------------
    1      Br      1.6150548354    -0.0003940430    -0.0710151718
    2      C      -0.1330203995     0.0000697123     0.3848273946
    3      C      -0.7859863884    -1.2655759423    -0.1499146639
    4      C      -0.7852992312     1.2659665351    -0.1499255797
    5      H      -0.1449410436     0.0000617366     1.4780406389
    6      H      -0.2994683430    -2.1635342444     0.2444220384
    7      H      -1.8413606666    -1.2997040959     0.1428601034
    8      H      -0.7351503361    -1.3107626434    -1.2428689424
    9      H      -0.2983110669     2.1636524076     0.2444094206
   10      H      -1.8407409970     1.3005353994     0.1427451450
   11      H      -0.7343763631     1.3110851780    -1.2428803831
 ----------------------------------------------------------------
 Nuclear Repulsion Energy =   262.0143513101 hartrees
 There are       30 alpha and       30 beta electrons

                       Distance Matrix (Angstroms)
             Br(  1)   C (  2)   C (  3)   C (  4)   H (  5)   H (  6)
   C (  2)  1.806533
   C (  3)  2.715126  1.521240
   C (  4)  2.715068  1.521159  2.531543
   H (  5)  2.344602  1.093278  2.159402  2.159363
   H (  6)  2.905869  2.174535  1.094774  3.486118  2.495364
   H (  7)  3.698751  2.160182  1.095763  2.789920  2.519908  1.770296
   H (  8)  2.934923  2.174911  1.095069  2.799388  3.077329  1.768919
   H (  9)  2.905780  2.174426  3.486105  1.094759  2.495294  4.327187
   H ( 10)  3.698734  2.160121  2.789818  1.095814  2.519917  3.792840
   H ( 11)  2.934804  2.174816  2.799361  1.095070  3.077276  3.804496
             H (  7)   H (  8)   H (  9)   H ( 10)
   H (  8)  1.773152
   H (  9)  3.792908  3.804522
   H ( 10)  2.600240  3.156127  1.770423
   H ( 11)  3.156250  2.621848  1.768913  1.773164
 
 Applying Cartesian multipole field
    Component          Value
    ---------          -----
     (2,0,0)        1.00000E-11
     (0,2,0)        2.00000E-11
     (0,0,2)       -3.00000E-10
 Nucleus-field energy     =    -0.0000000009 hartrees
 Requested basis set is 6-31G(d,p)
 There are 41 shells and 115 basis functions
 A cutoff of  1.0D-14 yielded    844 shell pairs
 There are      6736 function pairs
 Smallest overlap matrix eigenvalue = 7.22E-04
 Guess from superposition of atomic densities
 Warning:  Energy on first SCF cycle will be non-variational
 SAD guess density has 59.972873 electrons

 -----------------------------------------------------------------------
  General SCF calculation program by
  Eric Jon Sundstrom, Paul Horn, Yuezhi Mao, Dmitri Zuev, Alec White,
  David Stuck, Shaama M.S., Shane Yost, Joonho Lee, David Small,
  Daniel Levine, Susi Lehtola, Hugh Burton, Evgeny Epifanovsky
 -----------------------------------------------------------------------
 Exchange:     0.2000 Hartree-Fock + 0.0800 Slater + 0.7200 B88
 Correlation:  0.1900 VWN1RPA + 0.8100 LYP
 Using SG-1 standard quadrature grid
 using 12 threads for integral computing
 -------------------------------------------------------
 OpenMP Integral computing Module                
 Release: version 1.0, May 2013, Q-Chem Inc. Pittsburgh 
 -------------------------------------------------------
 -------------------------------------------------------
 OpenMP BLAS3 based DFT computing Module                
 Release: version 1.0, May 2013, Q-Chem Inc. Pittsburgh 
 -------------------------------------------------------
 A unrestricted SCF calculation will be
 performed using DIIS
 SCF converges when DIIS error is below 1.0e-06
 Alpha HF Exchange    Energy = -10.76685358733737
 Beta HF Exchange     Energy = -10.76685358733737
 DFT Correlation      Energy =  -3.13050689522950
 DFT Exchange         Energy = -85.07758272803414
 One-Electron (alpha) Energy = -2128.49219578295879
 One-Electron (beta)  Energy = -2128.49219578295879
 Total Coulomb        Energy = 1408.50755333925940
 ---------------------------------------
  Cycle       Energy         DIIS error
 ---------------------------------------
    1   -2696.2042837154      1.66e-01  
 Alpha HF Exchange    Energy = -10.81033495607119
 Beta HF Exchange     Energy = -10.81033495607116
 DFT Correlation      Energy =  -3.17125186867464
 DFT Exchange         Energy = -85.99488304196863
 One-Electron (alpha) Energy = -2135.40747438252083
 One-Electron (beta)  Energy = -2135.40747438251810
 Total Coulomb        Energy = 1427.27595708635181
    2   -2692.3114451923      9.62e-03  
 Alpha HF Exchange    Energy = -10.71144528992129
 Beta HF Exchange     Energy = -10.71144528992129
 DFT Correlation      Energy =  -3.13665788090116
 DFT Exchange         Energy = -85.19067251156270
 One-Electron (alpha) Energy = -2125.97539986183847
 One-Electron (beta)  Energy = -2125.97539986183801
 Total Coulomb        Energy = 1407.37687714929734
    3   -2692.3097922375      4.49e-03  
 Alpha HF Exchange    Energy = -10.78602731626956
 Beta HF Exchange     Energy = -10.78602731626956
 DFT Correlation      Energy =  -3.16401636956455
 DFT Exchange         Energy = -85.79616839636208
 One-Electron (alpha) Energy = -2132.98774859977675
 One-Electron (beta)  Energy = -2132.98774859977630
 Total Coulomb        Energy = 1422.11138198360436
    4   -2692.3820033052      2.71e-03  
 Alpha HF Exchange    Energy = -10.76208997186983
 Beta HF Exchange     Energy = -10.76208997186981
 DFT Correlation      Energy =  -3.15421402712956
 DFT Exchange         Energy = -85.59890401775209
 One-Electron (alpha) Energy = -2130.99216846613353
 One-Electron (beta)  Energy = -2130.99216846613308
 Total Coulomb        Energy = 1417.82362929745022
    5   -2692.4236543142      5.28e-04  
 Alpha HF Exchange    Energy = -10.76044254263410
 Beta HF Exchange     Energy = -10.76044254263411
 DFT Correlation      Energy =  -3.15445891508632
 DFT Exchange         Energy = -85.58766410155408
 One-Electron (alpha) Energy = -2130.75854898886564
 One-Electron (beta)  Energy = -2130.75854898886655
 Total Coulomb        Energy = 1417.34049710586623
    6   -2692.4252576646      7.02e-05  
 Alpha HF Exchange    Energy = -10.75995664261179
 Beta HF Exchange     Energy = -10.75995664261178
 DFT Correlation      Energy =  -3.15422855590957
 DFT Exchange         Energy = -85.58358823521638
 One-Electron (alpha) Energy = -2130.69776993728601
 One-Electron (beta)  Energy = -2130.69776993728556
 Total Coulomb        Energy = 1417.21363059701594
    7   -2692.4252880447      2.19e-05  
 Alpha HF Exchange    Energy = -10.76002952967742
 Beta HF Exchange     Energy = -10.76002952967741
 DFT Correlation      Energy =  -3.15423187070051
 DFT Exchange         Energy = -85.58415060441807
 One-Electron (alpha) Energy = -2130.71222106269033
 One-Electron (beta)  Energy = -2130.71222106268897
 Total Coulomb        Energy = 1417.24324154523401
    8   -2692.4252908054      5.53e-06  
 Alpha HF Exchange    Energy = -10.76003485779294
 Beta HF Exchange     Energy = -10.76003485779293
 DFT Correlation      Energy =  -3.15423780924249
 DFT Exchange         Energy = -85.58419903994026
 One-Electron (alpha) Energy = -2130.71230490262269
 One-Electron (beta)  Energy = -2130.71230490262087
 Total Coulomb        Energy = 1417.24347407566074
    9   -2692.4252909852      5.91e-07  Convergence criterion met
 ---------------------------------------
 SCF time:   CPU 26.27s  wall 2.00s 
<S^2> =         -0.000000000
 Alpha HF Exchange    Energy = -10.76003485779294
 Beta HF Exchange     Energy = -10.76003485779293
 DFT Correlation      Energy =  -3.15423780924249
 DFT Exchange         Energy = -85.58419903994026
 One-Electron (alpha) Energy = -2130.71230490262269
 One-Electron (beta)  Energy = -2130.71230490262087
 Total Coulomb        Energy = 1417.24347407566074
 Nuclear repulsion Energy = 262.01435130918890
 SCF   energy in the final basis set =    -2692.4252909852
 Total energy in the final basis set =    -2692.4252909852
 
 --------------------------------------------------------------
 
                    Orbital Energies (a.u.)
 --------------------------------------------------------------
 
 Alpha MOs
 -- Occupied --
******* -62.504 -56.325 -56.322 -56.322 -10.239 -10.188 -10.188
 -8.693  -6.523  -6.510  -6.510  -2.617  -2.613  -2.613  -2.603
 -2.603  -0.860  -0.736  -0.700  -0.584  -0.478  -0.450  -0.431
 -0.397  -0.369  -0.361  -0.351  -0.270  -0.269
 -- Virtual --
  0.039   0.091   0.128   0.145   0.148   0.167   0.176   0.183
  0.193   0.223   0.253   0.353   0.367   0.369   0.472   0.483
  0.485   0.503   0.567   0.606   0.620   0.666   0.699   0.726
  0.758   0.810   0.841   0.850   0.866   0.870   0.905   0.906
  0.935   0.952   0.990   1.096   1.329   1.387   1.395   1.542
  1.544   1.727   1.791   1.830   1.832   1.860   1.915   2.035
  2.039   2.070   2.072   2.095   2.110   2.120   2.269   2.303
  2.343   2.386   2.507   2.553   2.623   2.666   2.703   2.723
  2.860   2.862   2.890   2.904   3.166   3.212   3.312   3.411
  3.452   3.463   3.493   4.256   4.467   4.578   4.751   4.764
  4.863   4.875   4.996   6.312  90.410
 
 Beta MOs
 -- Occupied --
******* -62.504 -56.325 -56.322 -56.322 -10.239 -10.188 -10.188
 -8.693  -6.523  -6.510  -6.510  -2.617  -2.613  -2.613  -2.603
 -2.603  -0.860  -0.736  -0.700  -0.584  -0.478  -0.450  -0.431
 -0.397  -0.369  -0.361  -0.351  -0.270  -0.269
 -- Virtual --
  0.039   0.091   0.128   0.145   0.148   0.167   0.176   0.183
  0.193   0.223   0.253   0.353   0.367   0.369   0.472   0.483
  0.485   0.503   0.567   0.606   0.620   0.666   0.699   0.726
  0.758   0.810   0.841   0.850   0.866   0.870   0.905   0.906
  0.935   0.952   0.990   1.096   1.329   1.387   1.395   1.542
  1.544   1.727   1.791   1.830   1.832   1.860   1.915   2.035
  2.039   2.070   2.072   2.095   2.110   2.120   2.269   2.303
  2.343   2.386   2.507   2.553   2.623   2.666   2.703   2.723
  2.860   2.862   2.890   2.904   3.166   3.212   3.312   3.411
  3.452   3.463   3.493   4.256   4.467   4.578   4.751   4.764
  4.863   4.875   4.996   6.312  90.410
 --------------------------------------------------------------
 
          Ground-State Mulliken Net Atomic Charges

     Atom                 Charge (a.u.)    Spin (a.u.)
  --------------------------------------------------------
      1 Br                   -0.095705       0.000000
      2 C                    -0.127574       0.000000
      3 C                    -0.309407      -0.000000
      4 C                    -0.309391      -0.000000
      5 H                     0.138869       0.000000
      6 H                     0.122885       0.000000
      7 H                     0.105826       0.000000
      8 H                     0.122895       0.000000
      9 H                     0.122890       0.000000
     10 H                     0.105817      -0.000000
     11 H                     0.122896       0.000000
  --------------------------------------------------------
  Sum of atomic charges =    -0.000000
  Sum of spin   charges =     0.000000

 -----------------------------------------------------------------
                    Cartesian Multipole Moments
 -----------------------------------------------------------------
    Charge (ESU x 10^10)
                 0.0000
    Dipole Moment (Debye)
         X      -1.8686      Y       0.0004      Z       0.3843
       Tot       1.9077
    Quadrupole Moments (Debye-Ang)
        XX     -40.3297     XY       0.0008     YY     -38.3055
        XZ      -0.2101     YZ       0.0001     ZZ     -38.2252
    Octopole Moments (Debye-Ang^2)
       XXX     -49.6661    XXY       0.0030    XYY     -17.4808
       YYY       0.0118    XXZ       0.0358    XYZ       0.0005
       YYZ       1.6583    XZZ     -17.5921    YZZ       0.0041
       ZZZ       3.8969
    Hexadecapole Moments (Debye-Ang^3)
      XXXX    -387.4018   XXXY       0.0139   XXYY    -106.8405
      XYYY       0.0263   YYYY    -210.8922   XXXZ      -6.0540
      XXYZ       0.0018   XYYZ       0.8366   YYYZ      -0.0004
      XXZZ     -82.1103   XYZZ       0.0078   YYZZ     -48.0472
      XZZZ       2.4738   YZZZ      -0.0001   ZZZZ     -69.4656
 -----------------------------------------------------------------
 Calculating analytic gradient of the SCF energy
 Gradient of SCF Energy
            1           2           3           4           5           6
    1  -0.0861492   0.0626588   0.0084607   0.0085036   0.0055443   0.0001170
    2   0.0000235   0.0000205   0.0067394  -0.0067532  -0.0000021  -0.0010197
    3   0.0181700  -0.0131082  -0.0022587  -0.0022434  -0.0002133   0.0001709
            7           8           9          10          11
    1   0.0008737  -0.0004883   0.0001260   0.0008404  -0.0004869
    2  -0.0000135  -0.0014489   0.0010069   0.0000018   0.0014453
    3   0.0001443  -0.0004878   0.0001666   0.0001473  -0.0004876
 Max gradient component =       8.615E-02
 RMS gradient           =       1.918E-02
 Gradient time:  CPU 11.12 s  wall 0.98 s
 Geometry Optimization Parameters
   NAtoms,    NIC,     NZ,  NCons,   NDum,   NFix, NCnnct, MaxDiis
       11      68       0       1       0       0       0       0

 Cartesian Hessian Update
 Hessian Updated using BFGS Update


** CONSTRAINED OPTIMIZATION IN DELOCALIZED INTERNAL COORDINATES **
   Searching for a Minimum

   Optimization Cycle:   2

                       Coordinates (Angstroms)
     ATOM                X               Y               Z
      1  Br        1.6150548354   -0.0003940430   -0.0710151718
      2  C        -0.1330203995    0.0000697123    0.3848273946
      3  C        -0.7859863884   -1.2655759423   -0.1499146639
      4  C        -0.7852992312    1.2659665351   -0.1499255797
      5  H        -0.1449410436    0.0000617366    1.4780406389
      6  H        -0.2994683430   -2.1635342444    0.2444220384
      7  H        -1.8413606666   -1.2997040959    0.1428601034
      8  H        -0.7351503361   -1.3107626434   -1.2428689424
      9  H        -0.2983110669    2.1636524076    0.2444094206
     10  H        -1.8407409970    1.3005353994    0.1427451450
     11  H        -0.7343763631    1.3110851780   -1.2428803831
   Point Group: c1    Number of degrees of freedom:    27


   Energy is  -2692.425290985

              Constraints and their Current Values
                                        Value     Constraint
   Distance(Angs):        1   2             1.806533     1.600000
 Hessian Updated using BFGS Update
**WARNING** Constraint Gradient Reduced for constraint   1

   Using Lagrange Multiplier Algorithm


 24 Hessian modes will be used to form the next step
  Hessian Eigenvalues:
    -0.875599    0.107911    0.107913    0.180923    0.197007    0.197456
     0.197695    0.199273    0.199290    0.270116    0.383208    0.384572
     0.428898    0.558348    0.730064    0.730977    0.818870    0.818936
     0.819434    0.819555    0.820761    0.821001    0.822873    1.146230

 Minimum Search - Taking P-RFO Step
 Searching for Lamda that Maximizes Along the Constraint modes Only
 Value Taken    Lamda =   0.04562856
 Searching for Lamda that Minimizes Along All other modes
 Value Taken    Lamda =  -0.04343413
 Calculated Step too Large.  Step scaled by  0.988873
 Step Taken.  Stepsize is  0.300000

                             Maximum     Tolerance    Cnvgd?
         Gradient            0.300000       0.000300      NO
         Displacement        0.283690       0.001200      NO
         Energy change      0.012903       0.000001      NO


 New Cartesian Coordinates Obtained by Inverse Iteration

 Displacement from previous Coordinates is:  0.237148
 ----------------------------------------------------------------
             Standard Nuclear Orientation (Angstroms)
    I     Atom           X                Y                Z
 ----------------------------------------------------------------
    1      Br      1.5110133846    -0.0004062527    -0.0325666187
    2      C      -0.0960243081     0.0000313190     0.3688361153
    3      C      -0.7770612305    -1.2668276602    -0.1529154530
    4      C      -0.7763945837     1.2672104694    -0.1529374587
    5      H      -0.1204774599     0.0000280991     1.4620523379
    6      H      -0.2982862935    -2.1677517979     0.2409311084
    7      H      -1.8313701520    -1.2849225079     0.1488190943
    8      H      -0.7339107045    -1.3107002159    -1.2455503822
    9      H      -0.2971815366     2.1678970759     0.2409063384
   10      H      -1.8307349058     1.2857949862     0.1486981851
   11      H      -0.7331722099     1.3110464850    -1.2455732668
 ----------------------------------------------------------------
 Nuclear Repulsion Energy =   271.8669007527 hartrees
 There are       30 alpha and       30 beta electrons

                       Distance Matrix (Angstroms)
             Br(  1)   C (  2)   C (  3)   C (  4)   H (  5)   H (  6)
   C (  2)  1.656410
   C (  3)  2.617937  1.530022
   C (  4)  2.617934  1.529998  2.534038
   H (  5)  2.212611  1.093490  2.155028  2.155034
   H (  6)  2.836504  2.180952  1.093620  3.490370  2.494398
   H (  7)  3.585305  2.170470  1.096786  2.778023  2.510544  1.771502
   H (  8)  2.868429  2.175123  1.094366  2.800220  3.070085  1.770292
   H (  9)  2.836529  2.180934  3.490374  1.093615  2.494409  4.335649
   H ( 10)  3.585311  2.170454  2.777964  1.096797  2.510593  3.779404
   H ( 11)  2.868390  2.175094  2.800225  1.094369  3.070082  3.807999
             H (  7)   H (  8)   H (  9)   H ( 10)
   H (  8)  1.774640
   H (  9)  3.779441  3.808008
   H ( 10)  2.570718  3.144637  1.771551
   H ( 11)  3.144745  2.621747  1.770283  1.774620
 
 Applying Cartesian multipole field
    Component          Value
    ---------          -----
     (2,0,0)        1.00000E-11
     (0,2,0)        2.00000E-11
     (0,0,2)       -3.00000E-10
 Nucleus-field energy     =    -0.0000000011 hartrees
 Requested basis set is 6-31G(d,p)
 There are 41 shells and 115 basis functions
 A cutoff of  1.0D-14 yielded    845 shell pairs
 There are      6737 function pairs
 Smallest overlap matrix eigenvalue = 7.21E-04
 Guess from superposition of atomic densities
 Warning:  Energy on first SCF cycle will be non-variational
 SAD guess density has 59.972873 electrons

 -----------------------------------------------------------------------
  General SCF calculation program by
  Eric Jon Sundstrom, Paul Horn, Yuezhi Mao, Dmitri Zuev, Alec White,
  David Stuck, Shaama M.S., Shane Yost, Joonho Lee, David Small,
  Daniel Levine, Susi Lehtola, Hugh Burton, Evgeny Epifanovsky
 -----------------------------------------------------------------------
 Exchange:     0.2000 Hartree-Fock + 0.0800 Slater + 0.7200 B88
 Correlation:  0.1900 VWN1RPA + 0.8100 LYP
 Using SG-1 standard quadrature grid
 using 12 threads for integral computing
 -------------------------------------------------------
 OpenMP Integral computing Module                
 Release: version 1.0, May 2013, Q-Chem Inc. Pittsburgh 
 -------------------------------------------------------
 -------------------------------------------------------
 OpenMP BLAS3 based DFT computing Module                
 Release: version 1.0, May 2013, Q-Chem Inc. Pittsburgh 
 -------------------------------------------------------
 A unrestricted SCF calculation will be
 performed using DIIS
 SCF converges when DIIS error is below 1.0e-06
 Alpha HF Exchange    Energy = -10.78583046720627
 Beta HF Exchange     Energy = -10.78583046720627
 DFT Correlation      Energy =  -3.13502398247915
 DFT Exchange         Energy = -85.11694765768303
 One-Electron (alpha) Energy = -2138.23070462517035
 One-Electron (beta)  Energy = -2138.23070462517035
 Total Coulomb        Energy = 1417.98568902936927
 ---------------------------------------
  Cycle       Energy         DIIS error
 ---------------------------------------
    1   -2696.4324520439      1.67e-01  
 Alpha HF Exchange    Energy = -10.81750502268822
 Beta HF Exchange     Energy = -10.81750502268821
 DFT Correlation      Energy =  -3.17635572039611
 DFT Exchange         Energy = -86.04865119643205
 One-Electron (alpha) Energy = -2145.20948332138823
 One-Electron (beta)  Energy = -2145.20948332138823
 Total Coulomb        Energy = 1437.14374511126380
    2   -2692.2683377421      9.65e-03  
 Alpha HF Exchange    Energy = -10.71649720850860
 Beta HF Exchange     Energy = -10.71649720850862
 DFT Correlation      Energy =  -3.14025164447876
 DFT Exchange         Energy = -85.22562521158318
 One-Electron (alpha) Energy = -2135.47272558999157
 One-Electron (beta)  Energy = -2135.47272558999293
 Total Coulomb        Energy = 1416.62165087283415
    3   -2692.2557708286      4.69e-03  
 Alpha HF Exchange    Energy = -10.79329200976088
 Beta HF Exchange     Energy = -10.79329200976088
 DFT Correlation      Energy =  -3.16936480441509
 DFT Exchange         Energy = -85.85096979372814
 One-Electron (alpha) Energy = -2142.85565793110072
 One-Electron (beta)  Energy = -2142.85565793110118
 Total Coulomb        Energy = 1432.11770949714264
    4   -2692.3336242311      2.92e-03  
 Alpha HF Exchange    Energy = -10.76901525099508
 Beta HF Exchange     Energy = -10.76901525099508
 DFT Correlation      Energy =  -3.15898063179085
 DFT Exchange         Energy = -85.65012751839360
 One-Electron (alpha) Energy = -2140.70676075450319
 One-Electron (beta)  Energy = -2140.70676075450410
 Total Coulomb        Energy = 1427.50958879700170
    5   -2692.3841706125      5.63e-04  
 Alpha HF Exchange    Energy = -10.76690600953619
 Beta HF Exchange     Energy = -10.76690600953618
 DFT Correlation      Energy =  -3.15907082643014
 DFT Exchange         Energy = -85.63498500264254
 One-Electron (alpha) Energy = -2140.47516464716364
 One-Electron (beta)  Energy = -2140.47516464716227
 Total Coulomb        Energy = 1427.02547866957048
    6   -2692.3858177213      6.81e-05  
 Alpha HF Exchange    Energy = -10.76647026825132
 Beta HF Exchange     Energy = -10.76647026825135
 DFT Correlation      Energy =  -3.15886623756815
 DFT Exchange         Energy = -85.63136657227248
 One-Electron (alpha) Energy = -2140.41378122575770
 One-Electron (beta)  Energy = -2140.41378122576134
 Total Coulomb        Energy = 1426.89799068228308
    7   -2692.3858443639      2.30e-05  
 Alpha HF Exchange    Energy = -10.76655542337585
 Beta HF Exchange     Energy = -10.76655542337586
 DFT Correlation      Energy =  -3.15886894342190
 DFT Exchange         Energy = -85.63200786082825
 One-Electron (alpha) Energy = -2140.43089218963223
 One-Electron (beta)  Energy = -2140.43089218963223
 Total Coulomb        Energy = 1426.93302381807530
    8   -2692.3858474606      6.31e-06  
 Alpha HF Exchange    Energy = -10.76656257797055
 Beta HF Exchange     Energy = -10.76656257797056
 DFT Correlation      Energy =  -3.15887751644839
 DFT Exchange         Energy = -85.63207596496537
 One-Electron (alpha) Energy = -2140.43068450005603
 One-Electron (beta)  Energy = -2140.43068450005694
 Total Coulomb        Energy = 1426.93269920264470
    9   -2692.3858476832      5.92e-07  Convergence criterion met
 ---------------------------------------
 SCF time:   CPU 26.29s  wall 3.00s 
<S^2> =          0.000000000
 Alpha HF Exchange    Energy = -10.76656257797055
 Beta HF Exchange     Energy = -10.76656257797056
 DFT Correlation      Energy =  -3.15887751644839
 DFT Exchange         Energy = -85.63207596496537
 One-Electron (alpha) Energy = -2140.43068450005603
 One-Electron (beta)  Energy = -2140.43068450005694
 Total Coulomb        Energy = 1426.93269920264470
 Nuclear repulsion Energy = 271.86690075164080
 SCF   energy in the final basis set =    -2692.3858476832
 Total energy in the final basis set =    -2692.3858476832
 
 --------------------------------------------------------------
 
                    Orbital Energies (a.u.)
 --------------------------------------------------------------
 
 Alpha MOs
 -- Occupied --
******* -62.507 -56.327 -56.324 -56.324 -10.229 -10.186 -10.186
 -8.697  -6.527  -6.514  -6.514  -2.622  -2.617  -2.617  -2.607
 -2.607  -0.894  -0.734  -0.700  -0.581  -0.484  -0.450  -0.438
 -0.396  -0.375  -0.362  -0.360  -0.264  -0.264
 -- Virtual --
  0.063   0.103   0.127   0.147   0.147   0.166   0.172   0.185
  0.193   0.213   0.256   0.356   0.371   0.388   0.478   0.486
  0.494   0.498   0.581   0.602   0.628   0.652   0.701   0.736
  0.763   0.804   0.852   0.856   0.872   0.879   0.905   0.912
  0.950   0.954   1.042   1.117   1.349   1.399   1.435   1.543
  1.545   1.754   1.805   1.827   1.835   1.884   1.915   2.036
  2.039   2.070   2.090   2.096   2.113   2.124   2.272   2.309
  2.351   2.393   2.521   2.548   2.631   2.662   2.703   2.720
  2.862   2.867   2.888   2.912   3.170   3.214   3.305   3.412
  3.452   3.464   3.497   4.257   4.470   4.582   4.757   4.772
  4.885   4.900   4.983   6.315  90.440
 
 Beta MOs
 -- Occupied --
******* -62.507 -56.327 -56.324 -56.324 -10.229 -10.186 -10.186
 -8.697  -6.527  -6.514  -6.514  -2.622  -2.617  -2.617  -2.607
 -2.607  -0.894  -0.734  -0.700  -0.581  -0.484  -0.450  -0.438
 -0.396  -0.375  -0.362  -0.360  -0.264  -0.264
 -- Virtual --
  0.063   0.103   0.127   0.147   0.147   0.166   0.172   0.185
  0.193   0.213   0.256   0.356   0.371   0.388   0.478   0.486
  0.494   0.498   0.581   0.602   0.628   0.652   0.701   0.736
  0.763   0.804   0.852   0.856   0.872   0.879   0.905   0.912
  0.950   0.954   1.042   1.117   1.349   1.399   1.435   1.543
  1.545   1.754   1.805   1.827   1.835   1.884   1.915   2.036
  2.039   2.070   2.090   2.096   2.113   2.124   2.272   2.309
  2.351   2.393   2.521   2.548   2.631   2.662   2.703   2.720
  2.862   2.867   2.888   2.912   3.170   3.214   3.305   3.412
  3.452   3.464   3.497   4.257   4.470   4.582   4.757   4.772
  4.885   4.900   4.983   6.315  90.440
 --------------------------------------------------------------
 
          Ground-State Mulliken Net Atomic Charges

     Atom                 Charge (a.u.)    Spin (a.u.)
  --------------------------------------------------------
      1 Br                   -0.076497       0.000000
      2 C                    -0.111962      -0.000000
      3 C                    -0.314382      -0.000000
      4 C                    -0.314377       0.000000
      5 H                     0.130176      -0.000000
      6 H                     0.120363      -0.000000
      7 H                     0.103113       0.000000
      8 H                     0.120045      -0.000000
      9 H                     0.120364       0.000000
     10 H                     0.103112      -0.000000
     11 H                     0.120045      -0.000000
  --------------------------------------------------------
  Sum of atomic charges =    -0.000000
  Sum of spin   charges =     0.000000

 -----------------------------------------------------------------
                    Cartesian Multipole Moments
 -----------------------------------------------------------------
    Charge (ESU x 10^10)
                 0.0000
    Dipole Moment (Debye)
         X      -1.6203      Y       0.0004      Z       0.3646
       Tot       1.6608
    Quadrupole Moments (Debye-Ang)
        XX     -40.1822     XY       0.0006     YY     -38.2639
        XZ      -0.0901     YZ      -0.0000     ZZ     -38.1631
    Octopole Moments (Debye-Ang^2)
       XXX     -44.2022    XXY       0.0037    XYY     -15.5046
       YYY       0.0134    XXZ      -0.2923    XYZ       0.0005
       YYZ       1.1519    XZZ     -15.6972    YZZ       0.0044
       ZZZ       2.1884
    Hexadecapole Moments (Debye-Ang^3)
      XXXX    -351.2522   XXXY       0.0129   XXYY    -100.6470
      XYYY       0.0243   YYYY    -211.2585   XXXZ      -8.9645
      XXYZ       0.0021   XYYZ      -0.5126   YYYZ       0.0011
      XXZZ     -75.6355   XYZZ       0.0075   YYZZ     -47.9394
      XZZZ      -1.1196   YZZZ       0.0012   ZZZZ     -68.7084
 -----------------------------------------------------------------
 Calculating analytic gradient of the SCF energy
 Gradient of SCF Energy
            1           2           3           4           5           6
    1  -0.2108474   0.1704731   0.0148250   0.0148339   0.0133753  -0.0007406
    2   0.0000568  -0.0000364   0.0037559  -0.0037644  -0.0000051  -0.0006389
    3   0.0513899  -0.0429167  -0.0040948  -0.0040850  -0.0023724  -0.0000778
            7           8           9          10          11
    1   0.0001719  -0.0007581  -0.0007376   0.0001635  -0.0007589
    2   0.0008078  -0.0009849   0.0006365  -0.0008126   0.0009852
    3   0.0008543   0.0002664  -0.0000808   0.0008509   0.0002660
 Max gradient component =       2.108E-01
 RMS gradient           =       4.883E-02
 Gradient time:  CPU 11.62 s  wall 1.12 s
 Geometry Optimization Parameters
   NAtoms,    NIC,     NZ,  NCons,   NDum,   NFix, NCnnct, MaxDiis
       11      68       0       1       0       0       0       0

 Cartesian Hessian Update
 Hessian Updated using BFGS Update


** CONSTRAINED OPTIMIZATION IN DELOCALIZED INTERNAL COORDINATES **
   Searching for a Minimum

   Optimization Cycle:   3

                       Coordinates (Angstroms)
     ATOM                X               Y               Z
      1  Br        1.5110133846   -0.0004062527   -0.0325666187
      2  C        -0.0960243081    0.0000313190    0.3688361153
      3  C        -0.7770612305   -1.2668276602   -0.1529154530
      4  C        -0.7763945837    1.2672104694   -0.1529374587
      5  H        -0.1204774599    0.0000280991    1.4620523379
      6  H        -0.2982862935   -2.1677517979    0.2409311084
      7  H        -1.8313701520   -1.2849225079    0.1488190943
      8  H        -0.7339107045   -1.3107002159   -1.2455503822
      9  H        -0.2971815366    2.1678970759    0.2409063384
     10  H        -1.8307349058    1.2857949862    0.1486981851
     11  H        -0.7331722099    1.3110464850   -1.2455732668
   Point Group: c1    Number of degrees of freedom:    27


   Energy is  -2692.385847683

              Constraints and their Current Values
                                        Value     Constraint
   Distance(Angs):        1   2             1.656410     1.600000
 Hessian Updated using BFGS Update

   Using Lagrange Multiplier Algorithm


 25 Hessian modes will be used to form the next step
  Hessian Eigenvalues:
    -0.789374    0.107911    0.107914    0.179973    0.196928    0.197455
     0.197629    0.199271    0.199289    0.270116    0.382885    0.383683
     0.384602    0.428898    0.555733    0.724435    0.730958    0.818896
     0.818936    0.819414    0.819554    0.820765    0.821004    0.822919
     1.285299

 Minimum Search - Taking P-RFO Step
 Searching for Lamda that Maximizes Along the Constraint modes Only
 Value Taken    Lamda =   0.01712417
 Searching for Lamda that Minimizes Along All other modes
 Value Taken    Lamda =  -0.00392617
 Step Taken.  Stepsize is  0.172379

                             Maximum     Tolerance    Cnvgd?
         Gradient            0.106600       0.000300      NO
         Displacement        0.104563       0.001200      NO
         Energy change      0.039443       0.000001      NO


 New Cartesian Coordinates Obtained by Inverse Iteration

 Displacement from previous Coordinates is:  0.109786
 ----------------------------------------------------------------
             Standard Nuclear Orientation (Angstroms)
    I     Atom           X                Y                Z
 ----------------------------------------------------------------
    1      Br      1.4969451670    -0.0004127482    -0.0189685075
    2      C      -0.0593108468     0.0000106383     0.3572191789
    3      C      -0.7765162197    -1.2622764191    -0.1530196069
    4      C      -0.7758594168     1.2626543471    -0.1530471341
    5      H      -0.1197693538     0.0000246496     1.4512745982
    6      H      -0.3096604247    -2.1678270157     0.2434103099
    7      H      -1.8305187203    -1.2620820765     0.1510117126
    8      H      -0.7355878681    -1.3075352312    -1.2457182742
    9      H      -0.3085741620     2.1679824659     0.2433832695
   10      H      -1.8298822361     1.2629746472     0.1509010107
   11      H      -0.7348659188     1.3078867425    -1.2457465571
 ----------------------------------------------------------------
 Nuclear Repulsion Energy =   274.7677245117 hartrees
 There are       30 alpha and       30 beta electrons

                       Distance Matrix (Angstroms)
             Br(  1)   C (  2)   C (  3)   C (  4)   H (  5)   H (  6)
   C (  2)  1.601078
   C (  3)  2.603631  1.538862
   C (  4)  2.603643  1.538858  2.524931
   H (  5)  2.185264  1.095725  2.144407  2.144420
   H (  6)  2.833787  2.185211  1.093221  3.484641  2.488890
   H (  7)  3.562684  2.184623  1.096976  2.753008  2.492039  1.772547
   H (  8)  2.863160  2.176335  1.094401  2.793103  3.059856  1.771728
   H (  9)  2.833843  2.185221  3.484649  1.093221  2.488913  4.335810
   H ( 10)  3.562693  2.184621  2.752969  1.096973  2.492088  3.753669
   H ( 11)  2.863147  2.176330  2.793121  1.094403  3.059864  3.805125
             H (  7)   H (  8)   H (  9)   H ( 10)
   H (  8)  1.775329
   H (  9)  3.753690  3.805126
   H ( 10)  2.525057  3.123387  1.772560
   H ( 11)  3.123480  2.615422  1.771721  1.775303
 
 Applying Cartesian multipole field
    Component          Value
    ---------          -----
     (2,0,0)        1.00000E-11
     (0,2,0)        2.00000E-11
     (0,0,2)       -3.00000E-10
 Nucleus-field energy     =    -0.0000000010 hartrees
 Requested basis set is 6-31G(d,p)
 There are 41 shells and 115 basis functions
 A cutoff of  1.0D-14 yielded    845 shell pairs
 There are      6737 function pairs
 Smallest overlap matrix eigenvalue = 7.21E-04
 Guess from superposition of atomic densities
 Warning:  Energy on first SCF cycle will be non-variational
 SAD guess density has 59.972873 electrons

 -----------------------------------------------------------------------
  General SCF calculation program by
  Eric Jon Sundstrom, Paul Horn, Yuezhi Mao, Dmitri Zuev, Alec White,
  David Stuck, Shaama M.S., Shane Yost, Joonho Lee, David Small,
  Daniel Levine, Susi Lehtola, Hugh Burton, Evgeny Epifanovsky
 -----------------------------------------------------------------------
 Exchange:     0.2000 Hartree-Fock + 0.0800 Slater + 0.7200 B88
 Correlation:  0.1900 VWN1RPA + 0.8100 LYP
 Using SG-1 standard quadrature grid
 using 12 threads for integral computing
 -------------------------------------------------------
 OpenMP Integral computing Module                
 Release: version 1.0, May 2013, Q-Chem Inc. Pittsburgh 
 -------------------------------------------------------
 -------------------------------------------------------
 OpenMP BLAS3 based DFT computing Module                
 Release: version 1.0, May 2013, Q-Chem Inc. Pittsburgh 
 -------------------------------------------------------
 A unrestricted SCF calculation will be
 performed using DIIS
 SCF converges when DIIS error is below 1.0e-06
 Alpha HF Exchange    Energy = -10.79222764009803
 Beta HF Exchange     Energy = -10.79222764009803
 DFT Correlation      Energy =  -3.13637829328572
 DFT Exchange         Energy = -85.13109000237259
 One-Electron (alpha) Energy = -2141.07359134707622
 One-Electron (beta)  Energy = -2141.07359134707622
 Total Coulomb        Energy = 1420.71381341760298
 ---------------------------------------
  Cycle       Energy         DIIS error
 ---------------------------------------
    1   -2696.5175683417      1.68e-01  
 Alpha HF Exchange    Energy = -10.81991800695823
 Beta HF Exchange     Energy = -10.81991800695823
 DFT Correlation      Energy =  -3.17793733526704
 DFT Exchange         Energy = -86.06794902069288
 One-Electron (alpha) Energy = -2148.06717209215321
 One-Electron (beta)  Energy = -2148.06717209215321
 Total Coulomb        Energy = 1440.00977171497630
    2   -2692.2425703285      9.67e-03  
 Alpha HF Exchange    Energy = -10.71803259373950
 Beta HF Exchange     Energy = -10.71803259373950
 DFT Correlation      Energy =  -3.14124439646895
 DFT Exchange         Energy = -85.23706782881345
 One-Electron (alpha) Energy = -2138.19988050747043
 One-Electron (beta)  Energy = -2138.19988050746952
 Total Coulomb        Energy = 1419.22115938308252
    3   -2692.2252545339      4.78e-03  
 Alpha HF Exchange    Energy = -10.79564641116896
 Beta HF Exchange     Energy = -10.79564641116896
 DFT Correlation      Energy =  -3.17096049740947
 DFT Exchange         Energy = -85.86982546996401
 One-Electron (alpha) Energy = -2145.72985613379160
 One-Electron (beta)  Energy = -2145.72985613379024
 Total Coulomb        Energy = 1435.01735045921555
    4   -2692.3067160874      2.99e-03  
 Alpha HF Exchange    Energy = -10.77131958875323
 Beta HF Exchange     Energy = -10.77131958875322
 DFT Correlation      Energy =  -3.16044711836083
 DFT Exchange         Energy = -85.66826498086860
 One-Electron (alpha) Energy = -2143.53130728944143
 One-Electron (beta)  Energy = -2143.53130728944052
 Total Coulomb        Energy = 1430.30579537543849
    5   -2692.3604459695      5.58e-04  
 Alpha HF Exchange    Energy = -10.76902584139828
 Beta HF Exchange     Energy = -10.76902584139828
 DFT Correlation      Energy =  -3.16045563382173
 DFT Exchange         Energy = -85.65156032943761
 One-Electron (alpha) Energy = -2143.29665548999810
 One-Electron (beta)  Energy = -2143.29665548999719
 Total Coulomb        Energy = 1429.81364763411079
    6   -2692.3620064813      6.85e-05  
 Alpha HF Exchange    Energy = -10.76861529107462
 Beta HF Exchange     Energy = -10.76861529107462
 DFT Correlation      Energy =  -3.16025972710393
 DFT Exchange         Energy = -85.64815351362097
 One-Electron (alpha) Energy = -2143.23479973148324
 One-Electron (beta)  Energy = -2143.23479973148324
 Total Coulomb        Energy = 1429.68548648317346
    7   -2692.3620322920      2.43e-05  
 Alpha HF Exchange    Energy = -10.76870658715172
 Beta HF Exchange     Energy = -10.76870658715171
 DFT Correlation      Energy =  -3.16026283326647
 DFT Exchange         Energy = -85.64883751248961
 One-Electron (alpha) Energy = -2143.25359057213473
 One-Electron (beta)  Energy = -2143.25359057213518
 Total Coulomb        Energy = 1429.72393436452580
    8   -2692.3620357891      6.69e-06  
 Alpha HF Exchange    Energy = -10.76871544114471
 Beta HF Exchange     Energy = -10.76871544114471
 DFT Correlation      Energy =  -3.16027267414450
 DFT Exchange         Energy = -85.64892067666099
 One-Electron (alpha) Energy = -2143.25341518754385
 One-Electron (beta)  Energy = -2143.25341518754522
 Total Coulomb        Energy = 1429.72369405945051
    9   -2692.3620360380      5.95e-07  Convergence criterion met
 ---------------------------------------
 SCF time:   CPU 27.41s  wall 2.00s 
<S^2> =          0.000000000
 Alpha HF Exchange    Energy = -10.76871544114471
 Beta HF Exchange     Energy = -10.76871544114471
 DFT Correlation      Energy =  -3.16027267414450
 DFT Exchange         Energy = -85.64892067666099
 One-Electron (alpha) Energy = -2143.25341518754385
 One-Electron (beta)  Energy = -2143.25341518754522
 Total Coulomb        Energy = 1429.72369405945051
 Nuclear repulsion Energy = 274.76772451068899
 SCF   energy in the final basis set =    -2692.3620360380
 Total energy in the final basis set =    -2692.3620360380
 
 --------------------------------------------------------------
 
                    Orbital Energies (a.u.)
 --------------------------------------------------------------
 
 Alpha MOs
 -- Occupied --
******* -62.509 -56.329 -56.326 -56.326 -10.226 -10.185 -10.185
 -8.700  -6.530  -6.517  -6.517  -2.625  -2.620  -2.620  -2.610
 -2.610  -0.908  -0.735  -0.698  -0.579  -0.487  -0.449  -0.441
 -0.395  -0.378  -0.365  -0.361  -0.261  -0.261
 -- Virtual --
  0.067   0.108   0.127   0.147   0.147   0.164   0.170   0.187
  0.194   0.208   0.255   0.356   0.371   0.399   0.479   0.486
  0.496   0.503   0.591   0.599   0.630   0.646   0.700   0.735
  0.765   0.801   0.852   0.857   0.876   0.880   0.906   0.912
  0.953   0.955   1.056   1.142   1.356   1.406   1.444   1.544
  1.547   1.758   1.798   1.826   1.835   1.891   1.915   2.036
  2.039   2.070   2.096   2.101   2.111   2.128   2.272   2.319
  2.354   2.390   2.528   2.542   2.633   2.649   2.702   2.720
  2.860   2.873   2.884   2.912   3.169   3.216   3.295   3.412
  3.447   3.463   3.499   4.255   4.470   4.582   4.755   4.772
  4.889   4.904   4.988   6.316  90.460
 
 Beta MOs
 -- Occupied --
******* -62.509 -56.329 -56.326 -56.326 -10.226 -10.185 -10.185
 -8.700  -6.530  -6.517  -6.517  -2.625  -2.620  -2.620  -2.610
 -2.610  -0.908  -0.735  -0.698  -0.579  -0.487  -0.449  -0.441
 -0.395  -0.378  -0.365  -0.361  -0.261  -0.261
 -- Virtual --
  0.067   0.108   0.127   0.147   0.147   0.164   0.170   0.187
  0.194   0.208   0.255   0.356   0.371   0.399   0.479   0.486
  0.496   0.503   0.591   0.599   0.630   0.646   0.700   0.735
  0.765   0.801   0.852   0.857   0.876   0.880   0.906   0.912
  0.953   0.955   1.056   1.142   1.356   1.406   1.444   1.544
  1.547   1.758   1.798   1.826   1.835   1.891   1.915   2.036
  2.039   2.070   2.096   2.101   2.111   2.128   2.272   2.319
  2.354   2.390   2.528   2.542   2.633   2.649   2.702   2.720
  2.860   2.873   2.884   2.912   3.169   3.216   3.295   3.412
  3.447   3.463   3.499   4.255   4.470   4.582   4.755   4.772
  4.889   4.904   4.988   6.316  90.460
 --------------------------------------------------------------
 
          Ground-State Mulliken Net Atomic Charges

     Atom                 Charge (a.u.)    Spin (a.u.)
  --------------------------------------------------------
      1 Br                   -0.065678       0.000000
      2 C                    -0.104638      -0.000000
      3 C                    -0.317084       0.000000
      4 C                    -0.317083      -0.000000
      5 H                     0.124986       0.000000
      6 H                     0.118165      -0.000000
      7 H                     0.103237      -0.000000
      8 H                     0.118346      -0.000000
      9 H                     0.118165       0.000000
     10 H                     0.103238      -0.000000
     11 H                     0.118345       0.000000
  --------------------------------------------------------
  Sum of atomic charges =    -0.000000
  Sum of spin   charges =     0.000000

 -----------------------------------------------------------------
                    Cartesian Multipole Moments
 -----------------------------------------------------------------
    Charge (ESU x 10^10)
                 0.0000
    Dipole Moment (Debye)
         X      -1.5354      Y       0.0004      Z       0.3607
       Tot       1.5772
    Quadrupole Moments (Debye-Ang)
        XX     -40.0552     XY       0.0004     YY     -38.3170
        XZ      -0.0669     YZ      -0.0000     ZZ     -38.1808
    Octopole Moments (Debye-Ang^2)
       XXX     -43.7628    XXY       0.0040    XYY     -15.2860
       YYY       0.0141    XXZ      -0.3467    XYZ       0.0004
       YYZ       1.0445    XZZ     -15.4894    YZZ       0.0046
       ZZZ       1.6183
    Hexadecapole Moments (Debye-Ang^3)
      XXXX    -345.9660   XXXY       0.0133   XXYY     -99.5459
      XYYY       0.0243   YYYY    -210.6086   XXXZ      -9.9483
      XXYZ       0.0022   XYYZ      -1.0105   YYYZ       0.0017
      XXZZ     -74.7000   XYZZ       0.0076   YYZZ     -47.7493
      XZZZ      -2.4131   YZZZ       0.0016   ZZZZ     -68.5123
 -----------------------------------------------------------------
 Calculating analytic gradient of the SCF energy
 Gradient of SCF Energy
            1           2           3           4           5           6
    1  -0.2805460   0.2481111   0.0121663   0.0121634   0.0125326  -0.0009221
    2   0.0000759  -0.0000668   0.0022124  -0.0022180  -0.0000045  -0.0000657
    3   0.0679285  -0.0614421  -0.0033798  -0.0033728  -0.0021710   0.0000569
            7           8           9          10          11
    1  -0.0006053  -0.0006865  -0.0009220  -0.0006037  -0.0006877
    2   0.0003226  -0.0003110   0.0000670  -0.0003241   0.0003122
    3   0.0006334   0.0005317   0.0000552   0.0006288   0.0005311
 Max gradient component =       2.805E-01
 RMS gradient           =       6.723E-02
 Gradient time:  CPU 11.52 s  wall 1.02 s
 Geometry Optimization Parameters
   NAtoms,    NIC,     NZ,  NCons,   NDum,   NFix, NCnnct, MaxDiis
       11      68       0       1       0       0       0       0

 Cartesian Hessian Update
 Hessian Updated using BFGS Update


** CONSTRAINED OPTIMIZATION IN DELOCALIZED INTERNAL COORDINATES **
   Searching for a Minimum

   Optimization Cycle:   4

                       Coordinates (Angstroms)
     ATOM                X               Y               Z
      1  Br        1.4969451670   -0.0004127482   -0.0189685075
      2  C        -0.0593108468    0.0000106383    0.3572191789
      3  C        -0.7765162197   -1.2622764191   -0.1530196069
      4  C        -0.7758594168    1.2626543471   -0.1530471341
      5  H        -0.1197693538    0.0000246496    1.4512745982
      6  H        -0.3096604247   -2.1678270157    0.2434103099
      7  H        -1.8305187203   -1.2620820765    0.1510117126
      8  H        -0.7355878681   -1.3075352312   -1.2457182742
      9  H        -0.3085741620    2.1679824659    0.2433832695
     10  H        -1.8298822361    1.2629746472    0.1509010107
     11  H        -0.7348659188    1.3078867425   -1.2457465571
   Point Group: c1    Number of degrees of freedom:    27


   Energy is  -2692.362036038

              Constraints and their Current Values
                                        Value     Constraint
   Distance(Angs):        1   2             1.601078     1.600000
 Hessian Updated using BFGS Update

   Using Lagrange Multiplier Algorithm


 26 Hessian modes will be used to form the next step
  Hessian Eigenvalues:
    -0.653916    0.107911    0.107911    0.138838    0.197229    0.197378
     0.197457    0.199234    0.199289    0.270116    0.381435    0.383612
     0.383682    0.383794    0.428898    0.540337    0.709726    0.730956
     0.818885    0.818936    0.819472    0.819560    0.820810    0.821040
     0.821843    1.583576

 Minimum Search - Taking P-RFO Step
 Searching for Lamda that Maximizes Along the Constraint modes Only
 Value Taken    Lamda =   0.00054956
 Searching for Lamda that Minimizes Along All other modes
 Value Taken    Lamda =  -0.00212823
 Step Taken.  Stepsize is  0.105083

                             Maximum     Tolerance    Cnvgd?
         Gradient            0.035648       0.000300      NO
         Displacement        0.074820       0.001200      NO
         Energy change      0.023812       0.000001      NO


 New Cartesian Coordinates Obtained by Inverse Iteration

 Displacement from previous Coordinates is:  0.092167
 ----------------------------------------------------------------
             Standard Nuclear Orientation (Angstroms)
    I     Atom           X                Y                Z
 ----------------------------------------------------------------
    1      Br      1.5204195242    -0.0004184497    -0.0183168721
    2      C      -0.0365029237     0.0000029211     0.3505086664
    3      C      -0.7787321453    -1.2578711495    -0.1522839075
    4      C      -0.7780791375     1.2582472315    -0.1523137855
    5      H      -0.1305518347     0.0000322180     1.4444338034
    6      H      -0.3211556016    -2.1669449254     0.2472805466
    7      H      -1.8319885853    -1.2429671219     0.1523162542
    8      H      -0.7381483909    -1.3066855640    -1.2451835318
    9      H      -0.3200703725     2.1671019934     0.2472540148
   10      H      -1.8313577171     1.2438668698     0.1522187041
   11      H      -0.7374328155     1.3070359767    -1.2452138927
 ----------------------------------------------------------------
 Nuclear Repulsion Energy =   273.7968471294 hartrees
 There are       30 alpha and       30 beta electrons

                       Distance Matrix (Angstroms)
             Br(  1)   C (  2)   C (  3)   C (  4)   H (  5)   H (  6)
   C (  2)  1.600012
   C (  3)  2.623973  1.544653
   C (  4)  2.623984  1.544650  2.516118
   H (  5)  2.205753  1.097961  2.133534  2.133542
   H (  6)  2.855832  2.188000  1.093363  3.478562  2.483001
   H (  7)  3.579341  2.192721  1.096518  2.731226  2.471741  1.773519
   H (  8)  2.883169  2.178526  1.094742  2.788340  3.051348  1.772393
   H (  9)  2.855884  2.188011  3.478569  1.093363  2.483012  4.334047
   H ( 10)  3.579349  2.192720  2.731197  1.096514  2.471778  3.731405
   H ( 11)  2.883160  2.178524  2.788360  1.094743  3.051355  3.803862
             H (  7)   H (  8)   H (  9)   H ( 10)
   H (  8)  1.775824
   H (  9)  3.731418  3.803861
   H ( 10)  2.486834  3.106953  1.773523
   H ( 11)  3.107034  2.613722  1.772390  1.775804
 
 Applying Cartesian multipole field
    Component          Value
    ---------          -----
     (2,0,0)        1.00000E-11
     (0,2,0)        2.00000E-11
     (0,0,2)       -3.00000E-10
 Nucleus-field energy     =    -0.0000000009 hartrees
 Requested basis set is 6-31G(d,p)
 There are 41 shells and 115 basis functions
 A cutoff of  1.0D-14 yielded    845 shell pairs
 There are      6737 function pairs
 Smallest overlap matrix eigenvalue = 7.21E-04
 Guess from superposition of atomic densities
 Warning:  Energy on first SCF cycle will be non-variational
 SAD guess density has 59.972873 electrons

 -----------------------------------------------------------------------
  General SCF calculation program by
  Eric Jon Sundstrom, Paul Horn, Yuezhi Mao, Dmitri Zuev, Alec White,
  David Stuck, Shaama M.S., Shane Yost, Joonho Lee, David Small,
  Daniel Levine, Susi Lehtola, Hugh Burton, Evgeny Epifanovsky
 -----------------------------------------------------------------------
 Exchange:     0.2000 Hartree-Fock + 0.0800 Slater + 0.7200 B88
 Correlation:  0.1900 VWN1RPA + 0.8100 LYP
 Using SG-1 standard quadrature grid
 using 12 threads for integral computing
 -------------------------------------------------------
 OpenMP Integral computing Module                
 Release: version 1.0, May 2013, Q-Chem Inc. Pittsburgh 
 -------------------------------------------------------
 -------------------------------------------------------
 OpenMP BLAS3 based DFT computing Module                
 Release: version 1.0, May 2013, Q-Chem Inc. Pittsburgh 
 -------------------------------------------------------
 A unrestricted SCF calculation will be
 performed using DIIS
 SCF converges when DIIS error is below 1.0e-06
 Alpha HF Exchange    Energy = -10.79043544342568
 Beta HF Exchange     Energy = -10.79043544342568
 DFT Correlation      Energy =  -3.13594843705205
 DFT Exchange         Energy = -85.12786330707826
 One-Electron (alpha) Energy = -2140.10794472036832
 One-Electron (beta)  Energy = -2140.10794472036832
 Total Coulomb        Energy = 1419.76295351293152
 ---------------------------------------
  Cycle       Energy         DIIS error
 ---------------------------------------
    1   -2696.5007714303      1.68e-01  
 Alpha HF Exchange    Energy = -10.81908626861840
 Beta HF Exchange     Energy = -10.81908626861839
 DFT Correlation      Energy =  -3.17742284272528
 DFT Exchange         Energy = -86.06212569104702
 One-Electron (alpha) Energy = -2147.04039502304158
 One-Electron (beta)  Energy = -2147.04039502304113
 Total Coulomb        Energy = 1438.91774494855031
    2   -2692.2439190401      9.66e-03  
 Alpha HF Exchange    Energy = -10.71773486850931
 Beta HF Exchange     Energy = -10.71773486850931
 DFT Correlation      Energy =  -3.14088204904132
 DFT Exchange         Energy = -85.23522127923768
 One-Electron (alpha) Energy = -2137.27797636636978
 One-Electron (beta)  Energy = -2137.27797636637024
 Total Coulomb        Energy = 1418.34379273137461
    3   -2692.2268859382      4.76e-03  
 Alpha HF Exchange    Energy = -10.79486279957447
 Beta HF Exchange     Energy = -10.79486279957446
 DFT Correlation      Energy =  -3.17047510395092
 DFT Exchange         Energy = -85.86443661298399
 One-Electron (alpha) Energy = -2144.70955568668387
 One-Electron (beta)  Energy = -2144.70955568668387
 Total Coulomb        Energy = 1433.93945433067893
    4   -2692.3074472303      2.99e-03  
 Alpha HF Exchange    Energy = -10.77070361063315
 Beta HF Exchange     Energy = -10.77070361063314
 DFT Correlation      Energy =  -3.15999138234384
 DFT Exchange         Energy = -85.66403382250809
 One-Electron (alpha) Energy = -2142.54828128347890
 One-Electron (beta)  Energy = -2142.54828128347845
 Total Coulomb        Energy = 1429.30393693766041
    5   -2692.3612109270      5.56e-04  
 Alpha HF Exchange    Energy = -10.76839111374183
 Beta HF Exchange     Energy = -10.76839111374184
 DFT Correlation      Energy =  -3.15999666223401
 DFT Exchange         Energy = -85.64719849249488
 One-Electron (alpha) Energy = -2142.31175739670607
 One-Electron (beta)  Energy = -2142.31175739670789
 Total Coulomb        Energy = 1428.80788937549391
    6   -2692.3627556717      6.85e-05  
 Alpha HF Exchange    Energy = -10.76797618820590
 Beta HF Exchange     Energy = -10.76797618820591
 DFT Correlation      Energy =  -3.15980066734797
 DFT Exchange         Energy = -85.64375770236893
 One-Electron (alpha) Energy = -2142.24844641292839
 One-Electron (beta)  Energy = -2142.24844641292839
 Total Coulomb        Energy = 1428.67677514594857
    7   -2692.3627812976      2.53e-05  
 Alpha HF Exchange    Energy = -10.76806894101332
 Beta HF Exchange     Energy = -10.76806894101331
 DFT Correlation      Energy =  -3.15980380023945
 DFT Exchange         Energy = -85.64445279414262
 One-Electron (alpha) Energy = -2142.26786207917257
 One-Electron (beta)  Energy = -2142.26786207917212
 Total Coulomb        Energy = 1428.71648641022193
    8   -2692.3627850961      6.63e-06  
 Alpha HF Exchange    Energy = -10.76807882373968
 Beta HF Exchange     Energy = -10.76807882373966
 DFT Correlation      Energy =  -3.15981378444812
 DFT Exchange         Energy = -85.64454371837728
 One-Electron (alpha) Energy = -2142.26785001388225
 One-Electron (beta)  Energy = -2142.26785001388180
 Total Coulomb        Energy = 1428.71658270647208
    9   -2692.3627853431      5.98e-07  Convergence criterion met
 ---------------------------------------
 SCF time:   CPU 26.90s  wall 2.00s 
<S^2> =         -0.000000000
 Alpha HF Exchange    Energy = -10.76807882373968
 Beta HF Exchange     Energy = -10.76807882373966
 DFT Correlation      Energy =  -3.15981378444812
 DFT Exchange         Energy = -85.64454371837728
 One-Electron (alpha) Energy = -2142.26785001388225
 One-Electron (beta)  Energy = -2142.26785001388180
 Total Coulomb        Energy = 1428.71658270647208
 Nuclear repulsion Energy = 273.79684712845807
 SCF   energy in the final basis set =    -2692.3627853431
 Total energy in the final basis set =    -2692.3627853431
 
 --------------------------------------------------------------
 
                    Orbital Energies (a.u.)
 --------------------------------------------------------------
 
 Alpha MOs
 -- Occupied --
******* -62.510 -56.331 -56.328 -56.328 -10.227 -10.185 -10.185
 -8.701  -6.532  -6.519  -6.519  -2.627  -2.622  -2.622  -2.612
 -2.612  -0.906  -0.736  -0.696  -0.579  -0.485  -0.449  -0.439
 -0.394  -0.379  -0.366  -0.359  -0.262  -0.262
 -- Virtual --
  0.067   0.107   0.127   0.147   0.148   0.163   0.170   0.188
  0.194   0.207   0.252   0.355   0.370   0.399   0.481   0.485
  0.498   0.503   0.594   0.599   0.628   0.645   0.699   0.732
  0.765   0.801   0.851   0.857   0.878   0.879   0.909   0.912
[...]
     11  H        -0.7509990438    1.3071394304   -1.2486674365
   Point Group: c1    Number of degrees of freedom:    27


   Energy is  -2692.363489036

              Constraints and their Current Values
                                        Value     Constraint
   Distance(Angs):        1   2             1.600000     1.600000
 Hessian Updated using BFGS Update

 25 Hessian modes will be used to form the next step
  Hessian Eigenvalues:
     0.004880    0.061309    0.095414    0.107911    0.189496    0.197456
     0.198288    0.199288    0.270116    0.278974    0.338626    0.383682
     0.383682    0.384566    0.428898    0.495262    0.668177    0.730956
     0.798660    0.817825    0.818936    0.819545    0.820488    0.820825
     0.820925

 Minimum Search - Taking Simple RFO Step
 Searching for Lamda that Minimizes Along All modes
 Value Taken    Lamda =   0.00000000
 Step Taken.  Stepsize is  0.003144

                             Maximum     Tolerance    Cnvgd?
         Gradient           0.000146      0.000300     YES
         Displacement       0.001528      0.001200      NO
         Energy change     -0.000002      0.000001      NO


 New Cartesian Coordinates Obtained by Inverse Iteration

 Displacement from previous Coordinates is:  0.004071
 ----------------------------------------------------------------
             Standard Nuclear Orientation (Angstroms)
    I     Atom           X                Y                Z
 ----------------------------------------------------------------
    1      Br      1.5474172574    -0.0004060383    -0.0025733901
    2      C      -0.0140878383    -0.0000046478     0.3462842679
    3      C      -0.7787804377    -1.2573352281    -0.1542875733
    4      C      -0.7781400885     1.2577050564    -0.1543082710
    5      H      -0.1748339385     0.0000461041     1.4360013369
    6      H      -0.3180790061    -2.1704582940     0.2348832248
    7      H      -1.8238361025    -1.2300892353     0.1685529179
    8      H      -0.7518703081    -1.3058880415    -1.2486083088
    9      H      -0.3169369304     2.1705985814     0.2348065985
   10      H      -1.8231963715     1.2310315959     0.1685812136
   11      H      -0.7512562358     1.3062001473    -1.2486320165
 ----------------------------------------------------------------
 Nuclear Repulsion Energy =   272.4537742456 hartrees
 There are       30 alpha and       30 beta electrons

                       Distance Matrix (Angstroms)
             Br(  1)   C (  2)   C (  3)   C (  4)   H (  5)   H (  6)
   C (  2)  1.600000
   C (  3)  2.648412  1.554415
   C (  4)  2.648412  1.554414  2.515040
   H (  5)  2.244025  1.101509  2.115367  2.115365
   H (  6)  2.871513  2.194468  1.094300  3.480723  2.484813
   H (  7)  3.592597  2.195424  1.094125  2.717874  2.416375  1.776513
   H (  8)  2.922945  2.189369  1.095728  2.787506  3.040652  1.770989
   H (  9)  2.871485  2.194462  3.480722  1.094300  2.484826  4.341057
   H ( 10)  3.592599  2.195428  2.717907  1.094126  2.416356  3.720203
   H ( 11)  2.922975  2.189371  2.787483  1.095728  3.040651  3.804683
             H (  7)   H (  8)   H (  9)   H ( 10)
   H (  8)  1.778539
   H (  9)  3.720190  3.804687
   H ( 10)  2.461121  3.097116  1.776510
   H ( 11)  3.097032  2.612088  1.770991  1.778539
 
 Applying Cartesian multipole field
    Component          Value
    ---------          -----
     (2,0,0)        1.00000E-11
     (0,2,0)        2.00000E-11
     (0,0,2)       -3.00000E-10
 Nucleus-field energy     =    -0.0000000008 hartrees
 Requested basis set is 6-31G(d,p)
 There are 41 shells and 115 basis functions
 A cutoff of  1.0D-14 yielded    845 shell pairs
 There are      6737 function pairs
 Smallest overlap matrix eigenvalue = 7.21E-04
 Guess from superposition of atomic densities
 Warning:  Energy on first SCF cycle will be non-variational
 SAD guess density has 59.972873 electrons

 -----------------------------------------------------------------------
  General SCF calculation program by
  Eric Jon Sundstrom, Paul Horn, Yuezhi Mao, Dmitri Zuev, Alec White,
  David Stuck, Shaama M.S., Shane Yost, Joonho Lee, David Small,
  Daniel Levine, Susi Lehtola, Hugh Burton, Evgeny Epifanovsky
 -----------------------------------------------------------------------
 Exchange:     0.2000 Hartree-Fock + 0.0800 Slater + 0.7200 B88
 Correlation:  0.1900 VWN1RPA + 0.8100 LYP
 Using SG-1 standard quadrature grid
 using 12 threads for integral computing
 -------------------------------------------------------
 OpenMP Integral computing Module                
 Release: version 1.0, May 2013, Q-Chem Inc. Pittsburgh 
 -------------------------------------------------------
 -------------------------------------------------------
 OpenMP BLAS3 based DFT computing Module                
 Release: version 1.0, May 2013, Q-Chem Inc. Pittsburgh 
 -------------------------------------------------------
 A unrestricted SCF calculation will be
 performed using DIIS
 SCF converges when DIIS error is below 1.0e-06
 Alpha HF Exchange    Energy = -10.78752772671243
 Beta HF Exchange     Energy = -10.78752772671243
 DFT Correlation      Energy =  -3.13525997666334
 DFT Exchange         Energy = -85.12250804973164
 One-Electron (alpha) Energy = -2138.77460435497233
 One-Electron (beta)  Energy = -2138.77460435497233
 Total Coulomb        Energy = 1418.45528809942289
 ---------------------------------------
  Cycle       Energy         DIIS error
 ---------------------------------------
    1   -2696.4729698455      1.68e-01  
 Alpha HF Exchange    Energy = -10.81775180112087
 Beta HF Exchange     Energy = -10.81775180112086
 DFT Correlation      Energy =  -3.17660936053074
 DFT Exchange         Energy = -86.05282408543098
 One-Electron (alpha) Energy = -2145.62718035247553
 One-Electron (beta)  Energy = -2145.62718035247462
 Total Coulomb        Energy = 1437.41985389713000
    2   -2692.2456696112      9.65e-03  
 Alpha HF Exchange    Energy = -10.71717799307144
 Beta HF Exchange     Energy = -10.71717799307145
 DFT Correlation      Energy =  -3.14032916343496
 DFT Exchange         Energy = -85.23179149367434
 One-Electron (alpha) Energy = -2136.00904278781172
 One-Electron (beta)  Energy = -2136.00904278781309
 Total Coulomb        Energy = 1417.14121331864226
    3   -2692.2295746554      4.72e-03  
 Alpha HF Exchange    Energy = -10.79362319673296
 Beta HF Exchange     Energy = -10.79362319673296
 DFT Correlation      Energy =  -3.16969551892633
 DFT Exchange         Energy = -85.85591964345510
 One-Electron (alpha) Energy = -2143.30700943629608
 One-Electron (beta)  Energy = -2143.30700943629427
 Total Coulomb        Energy = 1432.46452002061142
    4   -2692.3085861630      2.97e-03  
 Alpha HF Exchange    Energy = -10.76964664650403
 Beta HF Exchange     Energy = -10.76964664650404
 DFT Correlation      Energy =  -3.15926700600378
 DFT Exchange         Energy = -85.65678376318129
 One-Electron (alpha) Energy = -2141.19160253066229
 One-Electron (beta)  Energy = -2141.19160253066366
 Total Coulomb        Energy = 1427.92282901523686
    5   -2692.3619458635      5.52e-04  
 Alpha HF Exchange    Energy = -10.76734571076792
 Beta HF Exchange     Energy = -10.76734571076791
 DFT Correlation      Energy =  -3.15927534239046
 DFT Exchange         Energy = -85.64006215035947
 One-Electron (alpha) Energy = -2140.95538106340837
 One-Electron (beta)  Energy = -2140.95538106340700
 Total Coulomb        Energy = 1427.42755734593948
    6   -2692.3634594503      6.86e-05  
 Alpha HF Exchange    Energy = -10.76692455993733
 Beta HF Exchange     Energy = -10.76692455993734
 DFT Correlation      Energy =  -3.15907933089165
 DFT Exchange         Energy = -85.63657189833276
 One-Electron (alpha) Energy = -2140.89031563127082
 One-Electron (beta)  Energy = -2140.89031563127173
 Total Coulomb        Energy = 1427.29287231055491
    7   -2692.3634850563      2.66e-05  
 Alpha HF Exchange    Energy = -10.76701787511460
 Beta HF Exchange     Energy = -10.76701787511457
 DFT Correlation      Energy =  -3.15908212816946
 DFT Exchange         Energy = -85.63727128855639
 One-Electron (alpha) Energy = -2140.91033072722257
 One-Electron (beta)  Energy = -2140.91033072722121
 Total Coulomb        Energy = 1427.33378710323427
    8   -2692.3634892733      6.51e-06  
 Alpha HF Exchange    Energy = -10.76702898340954
 Beta HF Exchange     Energy = -10.76702898340955
 DFT Correlation      Energy =  -3.15909220225491
 DFT Exchange         Energy = -85.63737133131933
 One-Electron (alpha) Energy = -2140.91053727089457
 One-Electron (beta)  Energy = -2140.91053727089547
 Total Coulomb        Energy = 1427.33433228304966
    9   -2692.3634895143      6.03e-07  Convergence criterion met
 ---------------------------------------
 SCF time:   CPU 27.12s  wall 2.00s 
<S^2> =          0.000000000
 Alpha HF Exchange    Energy = -10.76702898340954
 Beta HF Exchange     Energy = -10.76702898340955
 DFT Correlation      Energy =  -3.15909220225491
 DFT Exchange         Energy = -85.63737133131933
 One-Electron (alpha) Energy = -2140.91053727089457
 One-Electron (beta)  Energy = -2140.91053727089547
 Total Coulomb        Energy = 1427.33433228304966
 Nuclear repulsion Energy = 272.45377424481916
 SCF   energy in the final basis set =    -2692.3634895143
 Total energy in the final basis set =    -2692.3634895143
 
 --------------------------------------------------------------
 
                    Orbital Energies (a.u.)
 --------------------------------------------------------------
 
 Alpha MOs
 -- Occupied --
******* -62.512 -56.332 -56.330 -56.330 -10.227 -10.185 -10.185
 -8.703  -6.533  -6.521  -6.521  -2.628  -2.624  -2.623  -2.613
 -2.613  -0.904  -0.737  -0.694  -0.577  -0.484  -0.448  -0.437
 -0.393  -0.380  -0.366  -0.358  -0.263  -0.262
 -- Virtual --
  0.066   0.106   0.129   0.146   0.148   0.161   0.169   0.189
  0.193   0.206   0.248   0.352   0.370   0.399   0.483   0.483
  0.501   0.502   0.595   0.604   0.625   0.642   0.696   0.728
  0.767   0.798   0.847   0.855   0.876   0.885   0.912   0.913
  0.952   0.957   1.052   1.141   1.352   1.410   1.421   1.546
  1.555   1.755   1.783   1.813   1.832   1.886   1.910   2.033
  2.038   2.071   2.093   2.104   2.110   2.134   2.275   2.332
  2.354   2.387   2.531   2.535   2.624   2.624   2.700   2.723
  2.859   2.874   2.881   2.909   3.166   3.219   3.283   3.411
  3.439   3.463   3.499   4.252   4.472   4.579   4.748   4.764
  4.884   4.895   4.983   6.311  90.452
 
 Beta MOs
 -- Occupied --
******* -62.512 -56.332 -56.330 -56.330 -10.227 -10.185 -10.185
 -8.703  -6.533  -6.521  -6.521  -2.628  -2.624  -2.623  -2.613
 -2.613  -0.904  -0.737  -0.694  -0.577  -0.484  -0.448  -0.437
 -0.393  -0.380  -0.366  -0.358  -0.263  -0.262
 -- Virtual --
  0.066   0.106   0.129   0.146   0.148   0.161   0.169   0.189
  0.193   0.206   0.248   0.352   0.370   0.399   0.483   0.483
  0.501   0.502   0.595   0.604   0.625   0.642   0.696   0.728
  0.767   0.798   0.847   0.855   0.876   0.885   0.912   0.913
  0.952   0.957   1.052   1.141   1.352   1.410   1.421   1.546
  1.555   1.755   1.783   1.813   1.832   1.886   1.910   2.033
  2.038   2.071   2.093   2.104   2.110   2.134   2.275   2.332
  2.354   2.387   2.531   2.535   2.624   2.624   2.700   2.723
  2.859   2.874   2.881   2.909   3.166   3.219   3.283   3.411
  3.439   3.463   3.499   4.252   4.472   4.579   4.748   4.764
  4.884   4.895   4.983   6.311  90.452
 --------------------------------------------------------------
 
          Ground-State Mulliken Net Atomic Charges

     Atom                 Charge (a.u.)    Spin (a.u.)
  --------------------------------------------------------
      1 Br                   -0.054985      -0.000000
      2 C                    -0.105796      -0.000000
      3 C                    -0.317508      -0.000000
      4 C                    -0.317508      -0.000000
      5 H                     0.122815       0.000000
      6 H                     0.115453       0.000000
      7 H                     0.104880       0.000000
      8 H                     0.116158      -0.000000
      9 H                     0.115453      -0.000000
     10 H                     0.104880       0.000000
     11 H                     0.116158       0.000000
  --------------------------------------------------------
  Sum of atomic charges =    -0.000000
  Sum of spin   charges =    -0.000000

 -----------------------------------------------------------------
                    Cartesian Multipole Moments
 -----------------------------------------------------------------
    Charge (ESU x 10^10)
                -0.0000
    Dipole Moment (Debye)
         X      -1.4658      Y       0.0004      Z       0.3311
       Tot       1.5028
    Quadrupole Moments (Debye-Ang)
        XX     -39.7791     XY       0.0003     YY     -38.4974
        XZ      -0.2196     YZ       0.0001     ZZ     -38.3048
    Octopole Moments (Debye-Ang^2)
       XXX     -46.4114    XXY       0.0041    XYY     -16.1572
       YYY       0.0137    XXZ      -0.4513    XYZ       0.0003
       YYZ       0.8163    XZZ     -16.5873    YZZ       0.0046
       ZZZ       0.7309
    Hexadecapole Moments (Debye-Ang^3)
      XXXX    -360.1220   XXXY       0.0141   XXYY    -102.0932
      XYYY       0.0251   YYYY    -210.3474   XXXZ     -11.4384
      XXYZ       0.0023   XYYZ      -1.5901   YYYZ       0.0016
      XXZZ     -77.3437   XYZZ       0.0077   YYZZ     -47.6938
      XZZZ      -4.2239   YZZZ       0.0017   ZZZZ     -68.6648
 -----------------------------------------------------------------
 Calculating analytic gradient of the SCF energy
 Gradient of SCF Energy
            1           2           3           4           5           6
    1  -0.2705801   0.2706520  -0.0001029  -0.0001033   0.0001384   0.0000123
    2   0.0000698  -0.0000698   0.0000502  -0.0000502   0.0000001  -0.0000160
    3   0.0603402  -0.0605800  -0.0000410  -0.0000411  -0.0000447  -0.0000081
            7           8           9          10          11
    1   0.0000230  -0.0000370   0.0000118   0.0000229  -0.0000371
    2  -0.0000471   0.0000041   0.0000161   0.0000468  -0.0000039
    3   0.0001410   0.0000501  -0.0000077   0.0001411   0.0000503
 Max gradient component =       2.707E-01
 RMS gradient           =       6.826E-02
 Gradient time:  CPU 11.68 s  wall 1.07 s
 Geometry Optimization Parameters
   NAtoms,    NIC,     NZ,  NCons,   NDum,   NFix, NCnnct, MaxDiis
       11      68       0       1       0       0       0       0

 Cartesian Hessian Update
 Hessian Updated using BFGS Update


** CONSTRAINED OPTIMIZATION IN DELOCALIZED INTERNAL COORDINATES **
   Searching for a Minimum

   Optimization Cycle:  14

                       Coordinates (Angstroms)
     ATOM                X               Y               Z
      1  Br        1.5474172574   -0.0004060383   -0.0025733901
      2  C        -0.0140878383   -0.0000046478    0.3462842679
      3  C        -0.7787804377   -1.2573352281   -0.1542875733
      4  C        -0.7781400885    1.2577050564   -0.1543082710
      5  H        -0.1748339385    0.0000461041    1.4360013369
      6  H        -0.3180790061   -2.1704582940    0.2348832248
      7  H        -1.8238361025   -1.2300892353    0.1685529179
      8  H        -0.7518703081   -1.3058880415   -1.2486083088
      9  H        -0.3169369304    2.1705985814    0.2348065985
     10  H        -1.8231963715    1.2310315959    0.1685812136
     11  H        -0.7512562358    1.3062001473   -1.2486320165
   Point Group: c1    Number of degrees of freedom:    27


   Energy is  -2692.363489514

              Constraints and their Current Values
                                        Value     Constraint
   Distance(Angs):        1   2             1.600000     1.600000
 Hessian Updated using BFGS Update

 24 Hessian modes will be used to form the next step
  Hessian Eigenvalues:
     0.004993    0.061323    0.071940    0.107911    0.181203    0.197456
     0.198290    0.270116    0.271264    0.353342    0.383682    0.383682
     0.385966    0.428898    0.502457    0.672636    0.730956    0.792037
     0.817405    0.818936    0.819545    0.820496    0.820784    0.820925

 Minimum Search - Taking Simple RFO Step
 Searching for Lamda that Minimizes Along All modes
 Value Taken    Lamda =   0.00000000
 Step Taken.  Stepsize is  0.001411

                             Maximum     Tolerance    Cnvgd?
         Gradient           0.000084      0.000300     YES
         Displacement       0.000674      0.001200     YES
         Energy change     -0.000000      0.000001     YES


                       Distance Matrix (Angstroms)
             Br(  1)   C (  2)   C (  3)   C (  4)   H (  5)   H (  6)
   C (  2)  1.600000
   C (  3)  2.648412  1.554415
   C (  4)  2.648412  1.554414  2.515040
   H (  5)  2.244025  1.101509  2.115367  2.115365
   H (  6)  2.871513  2.194468  1.094300  3.480723  2.484813
   H (  7)  3.592597  2.195424  1.094125  2.717874  2.416375  1.776513
   H (  8)  2.922945  2.189369  1.095728  2.787506  3.040652  1.770989
   H (  9)  2.871485  2.194462  3.480722  1.094300  2.484826  4.341057
   H ( 10)  3.592599  2.195428  2.717907  1.094126  2.416356  3.720203
   H ( 11)  2.922975  2.189371  2.787483  1.095728  3.040651  3.804683
             H (  7)   H (  8)   H (  9)   H ( 10)
   H (  8)  1.778539
   H (  9)  3.720190  3.804687
   H ( 10)  2.461121  3.097116  1.776510
   H ( 11)  3.097032  2.612088  1.770991  1.778539
 
 Final energy is   -2692.36348951432     


 ******************************
 **  OPTIMIZATION CONVERGED  **
 ******************************

                       Coordinates (Angstroms)
     ATOM                X               Y               Z
      1  Br        1.5474172574   -0.0004060383   -0.0025733901
      2  C        -0.0140878383   -0.0000046478    0.3462842679
      3  C        -0.7787804377   -1.2573352281   -0.1542875733
      4  C        -0.7781400885    1.2577050564   -0.1543082710
      5  H        -0.1748339385    0.0000461041    1.4360013369
      6  H        -0.3180790061   -2.1704582940    0.2348832248
      7  H        -1.8238361025   -1.2300892353    0.1685529179
      8  H        -0.7518703081   -1.3058880415   -1.2486083088
      9  H        -0.3169369304    2.1705985814    0.2348065985
     10  H        -1.8231963715    1.2310315959    0.1685812136
     11  H        -0.7512562358    1.3062001473   -1.2486320165

Z-matrix Print:
$molecule
0 1
Br
C  1 1.600000
H  2 1.101509 1 110.984994
C  2 1.554414 1 114.185774 3 117.520624 0
H  4 1.094126 2 110.776754 1 -176.360403 0
H  4 1.094300 2 110.690082 1 -55.909046 0
H  4 1.095728 2 110.205219 1 63.409503 0
C  2 1.554415 1 114.185688 3 -117.520644 0
H  8 1.094125 2 110.776398 1 176.363782 0
H  8 1.094300 2 110.690452 1 55.912058 0
H  8 1.095728 2 110.204934 1 -63.406386 0
$end

PES scan, value:    1.6000 energy: -2692.3634895143
------- Summary of potential scan: ------ 
    1.6000     -2692.3634895143
----------------------------------------- 
Archival summary:
1\1\hpc0242\JobtypUnspecified\ProcedureUnspecified\6-31G**\r137\knomura\WedMar1313:55:292019WedMar1313:55:292019\0\\#,JobtypUnspecified,ProcedureUnspecified,6-31G**,\\0,1\Br\C,1,1.6\H,2,1.10151,1,110.985\C,2,1.55441,1,114.186,3,117.521,0\H,4,1.09413,2,110.777,1,-176.36,0\H,4,1.0943,2,110.69,1,-55.909,0\H,4,1.09573,2,110.205,1,63.4095,0\C,2,1.55442,1,114.186,3,-117.521,0\H,8,1.09413,2,110.776,1,176.364,0\H,8,1.0943,2,110.69,1,55.9121,0\H,8,1.09573,2,110.205,1,-63.4064,0\\\@

 Total job time:  53.01s(wall), 606.23s(cpu) 
 Wed Mar 13 13:55:29 2019

        *************************************************************
        *                                                           *
        *  Thank you very much for using Q-Chem.  Have a nice day.  *
        *                                                           *
        *************************************************************


