
Running Job 1 of 1 halogens/Flourine/01/F_2.xyz.data/inputs/bond_singlet_1.7.in
qchem halogens/Flourine/01/F_2.xyz.data/inputs/bond_singlet_1.7.in_27739.0 /staging/scratch/2868761/qchem27739/ 1
/usr/usc/qchem/5.1.1/exe/qcprog.exe_s halogens/Flourine/01/F_2.xyz.data/inputs/bond_singlet_1.7.in_27739.0 /staging/scratch/2868761/qchem27739/
Check license passed

                  Welcome to Q-Chem
     A Quantum Leap Into The Future Of Chemistry


 Q-Chem 5.1, Q-Chem, Inc., Pleasanton, CA (2018)

 Yihan Shao,  Zhengting Gan,  E. Epifanovsky,  A. T. B. Gilbert,  M. Wormit,  
 J. Kussmann,  A. W. Lange,  A. Behn,  Jia Deng,  Xintian Feng,  D. Ghosh,  
 M. Goldey,  P. R. Horn,  L. D. Jacobson,  I. Kaliman,  T. Kus,  A. Landau,  
 Jie Liu,  E. I. Proynov,  R. M. Richard,  R. P. Steele,  E. J. Sundstrom,  
 H. L. Woodcock III,  P. M. Zimmerman,  D. Zuev,  B. Albrecht,  E. Alguire,  
 S. A. Baeppler,  D. Barton,  Z. Benda,  Y. A. Bernard,  E. J. Berquist,  
 K. B. Bravaya,  H. Burton,  D. Casanova,  Chun-Min Chang,  Yunqing Chen,  
 A. Chien,  K. D. Closser,  M. P. Coons,  S. Coriani,  S. Dasgupta,  
 A. L. Dempwolff,  M. Diedenhofen,  Hainam Do,  R. G. Edgar,  Po-Tung Fang,  
 S. Faraji,  S. Fatehi,  Qingguo Feng,  K. D. Fenk,  J. Fosso-Tande,  
 Qinghui Ge,  A. Ghysels,  G. Gidofalvi,  J. Gomes,  J. Gonthier,  A. Gunina,  
 D. Hait,  M. W. D. Hanson-Heine,  P. H. P. Harbach,  A. W. Hauser,  
 J. E. Herr,  E. G. Hohenstein,  Z. C. Holden,  Kerwin Hui,  B. C. Huynh,  
 T.-C. Jagau,  Hyunjun Ji,  B. Kaduk,  K. Khistyaev,  Jaehoon Kim,  
 P. Klunzinger,  K. Koh,  D. Kosenkov,  L. Koulias,  T. Kowalczyk,  
 C. M. Krauter,  A. Kunitsa,  Ka Un Lao,  A. Laurent,  K. V. Lawler,  
 Joonho Lee,  D. Lefrancois,  S. Lehtola,  D. S. Levine,  Yi-Pei Li,  
 You-Sheng Lin,  Fenglai Liu,  E. Livshits,  A. Luenser,  P. Manohar,  
 E. Mansoor,  S. F. Manzer,  Shan-Ping Mao,  Yuezhi Mao,  N. Mardirossian,  
 A. V. Marenich,  T. Markovich,  L. A. Martinez-Martinez,  S. A. Maurer,  
 N. J. Mayhall,  S. C. McKenzie,  J.-M. Mewes,  A. F. Morrison,  
 J. W. Mullinax,  K. Nanda,  T. S. Nguyen-Beck,  R. Olivares-Amaya,  
 J. A. Parkhill,  T. M. Perrine,  F. Plasser,  P. Pokhilko,  S. Prager,  
 A. Prociuk,  E. Ramos,  D. R. Rehn,  F. Rob,  M. Schneider,  N. Sergueev,  
 S. M. Sharada,  S. Sharma,  D. W. Small,  T. Stauch,  T. Stein,  
 Yu-Chuan Su,  A. J. W. Thom,  A. Tkatchenko,  T. Tsuchimochi,  N. M. Tubman,  
 L. Vogt,  M. L. Vidal,  O. Vydrov,  M. A. Watson,  J. Wenzel,  
 M. de Wergifosse,  T. A. Wesolowski,  A. White,  J. Witte,  A. Yamada,  
 Jun Yang,  K. Yao,  S. Yeganeh,  S. R. Yost,  Zhi-Qiang You,  A. Zech,  
 Igor Ying Zhang,  Xing Zhang,  Yan Zhao,  Ying Zhu,  B. R. Brooks,  
 G. K. L. Chan,  C. J. Cramer,  M. S. Gordon,  W. J. Hehre,  A. Klamt,  
 M. W. Schmidt,  C. D. Sherrill,  D. G. Truhlar,  A. Aspuru-Guzik,  R. Baer,  
 A. T. Bell,  N. A. Besley,  Jeng-Da Chai,  A. E. DePrince, III,  
 R. A. DiStasio Jr.,  A. Dreuw,  B. D. Dunietz,  T. R. Furlani,  
 Chao-Ping Hsu,  Yousung Jung,  Jing Kong,  D. S. Lambrecht,  WanZhen Liang,  
 C. Ochsenfeld,  V. A. Rassolov,  L. V. Slipchenko,  J. E. Subotnik,  
 T. Van Voorhis,  J. M. Herbert,  A. I. Krylov,  P. M. W. Gill,  M. Head-Gordon

 Contributors to earlier versions of Q-Chem not listed above: 
 R. D. Adamson,  B. Austin,  J. Baker,  G. J. O. Beran,  K. Brandhorst,  
 S. T. Brown,  E. F. C. Byrd,  A. K. Chakraborty,  C.-L. Cheng,  
 Siu Hung Chien,  D. M. Chipman,  D. L. Crittenden,  H. Dachsel,  
 R. J. Doerksen,  A. D. Dutoi,  L. Fusti-Molnar,  W. A. Goddard III,  
 A. Golubeva-Zadorozhnaya,  S. R. Gwaltney,  G. Hawkins,  A. Heyden,  
 S. Hirata,  G. Kedziora,  F. J. Keil,  C. Kelley,  Jihan Kim,  R. A. King,  
 R. Z. Khaliullin,  P. P. Korambath,  W. Kurlancheek,  A. M. Lee,  M. S. Lee,  
 S. V. Levchenko,  Ching Yeh Lin,  D. Liotard,  R. C. Lochan,  I. Lotan,  
 P. E. Maslen,  N. Nair,  D. P. O'Neill,  D. Neuhauser,  E. Neuscamman,  
 C. M. Oana,  R. Olson,  B. Peters,  R. Peverati,  P. A. Pieniazek,  
 Y. M. Rhee,  J. Ritchie,  M. A. Rohrdanz,  E. Rosta,  N. J. Russ,  
 H. F. Schaefer III,  N. E. Schultz,  N. Shenvi,  A. C. Simmonett,  A. Sodt,  
 D. Stuck,  K. S. Thanthiriwatte,  V. Vanovschi,  Tao Wang,  A. Warshel,  
 C. F. Williams,  Q. Wu,  X. Xu,  W. Zhang

 Please cite Q-Chem as follows:
 Y. Shao et al., Mol. Phys. 113, 184-215 (2015)
 DOI: 10.1080/00268976.2014.952696

 Q-Chem 5.1.1 for Intel X86 EM64T Linux

 Parts of Q-Chem use Armadillo 8.300.2 (Tropical Shenanigans).
 http://arma.sourceforge.net/

 Q-Chem begins on Wed Mar 13 13:53:40 2019  

Host: 
0

     Scratch files written to /staging/scratch/2868761/qchem27739//
 Aug318 |scratch|qcdevops|jenkins|workspace|build_RNUM 6013   
Processing $rem in /usr/usc/qchem/5.1.1/config/preferences.
 MEM_TOTAL  2000 
Input Ideriv = 2
Curr. Ideriv = -1
Max.  Ideriv = 2

Checking the input file for inconsistencies... 	...done.

--------------------------------------------------------------
User input:
--------------------------------------------------------------

$comment
potential surface scanner
$end

$rem
JOBTYPE  PES_SCAN
UNRESTRICTED TRUE
SYM_IGNORE  TRUE
GEOM_OPT_MAX_CYCLES 400
SCF_MAX_CYCLES 400
METHOD   B3LYP
BASIS   6-31G**
PDB_PRINT 2
SCF_CONVERGENCE 6
THRESH 14
SCF_PRINT 1
$end
$molecule
0 1
F -0.000979 1.430930 0.151388
C 0.000094 -0.074188 -0.391400
C -1.282076 -0.673580 0.119503
C 1.283118 -0.671778 0.119468
H -0.000020 0.064223 -1.474606
H -2.139598 -0.084015 -0.211660
H -1.398023 -1.695907 -0.259643
H -1.278959 -0.708909 1.212247
H 2.139810 -0.081033 -0.211741
H 1.400445 -1.693946 -0.259670
H 1.280090 -0.707096 1.212213
$end
$scan
stre 1 2 1.700000 1.701000 0.100000
$end
--------------------------------------------------------------
 ----------------------------------------------------------------
             Standard Nuclear Orientation (Angstroms)
    I     Atom           X                Y                Z
 ----------------------------------------------------------------
    1      F      -0.0009790000     1.4309300000     0.1513880000
    2      C       0.0000940000    -0.0741880000    -0.3914000000
    3      C      -1.2820760000    -0.6735800000     0.1195030000
    4      C       1.2831180000    -0.6717780000     0.1194680000
    5      H      -0.0000200000     0.0642230000    -1.4746060000
    6      H      -2.1395980000    -0.0840150000    -0.2116600000
    7      H      -1.3980230000    -1.6959070000    -0.2596430000
    8      H      -1.2789590000    -0.7089090000     1.2122470000
    9      H       2.1398100000    -0.0810330000    -0.2117410000
   10      H       1.4004450000    -1.6939460000    -0.2596700000
   11      H       1.2800900000    -0.7070960000     1.2122130000
 ----------------------------------------------------------------
 Nuclear Repulsion Energy =   128.7053177740 hartrees
 There are       17 alpha and       17 beta electrons
 Requested basis set is 6-31G(d,p)
 There are 37 shells and 95 basis functions

 Total QAlloc Memory Limit   2000 MB
 Mega-Array Size       188 MB
 MEM_STATIC part       192 MB
A total of 1 constraints
  
            1
    1   1.0100000
    2   1.0100000
    3   2.0100000
    4   1.7000000
    5   1.7010000
    6   0.1000000
    7   0.0000000
    8   0.0000000
    9   0.0000000
   10   0.0000000

                       Distance Matrix (Angstroms)
             F (  1)   C (  2)   C (  3)   C (  4)   H (  5)   H (  6)
   C (  2)  1.600000
   C (  3)  2.463978  1.504743
   C (  4)  2.464002  1.504743  2.565195
   H (  5)  2.124087  1.092013  2.174673  2.174675
   H (  6)  2.645856  2.147251  1.092062  3.488566  2.488936
   H (  7)  3.449317  2.145242  1.096516  2.895010  2.555114  1.774946
   H (  8)  2.708794  2.147215  1.093319  2.785639  3.074508  1.777274
   H (  9)  2.645916  2.147256  3.488573  1.092062  2.488935  4.279409
   H ( 10)  3.449320  2.145216  2.894968  1.096512  2.555099  3.889227
   H ( 11)  2.708808  2.147216  2.785648  1.093320  3.074510  3.756316
             H (  7)   H (  8)   H (  9)   H ( 10)
   H (  8)  1.776176
   H (  9)  3.889264  3.756322
   H ( 10)  2.798469  3.211860  1.774950
   H ( 11)  3.211915  2.559050  1.777278  1.776175
 
 A cutoff of  1.0D-14 yielded    695 shell pairs
 There are      4665 function pairs
 
 -------------------------------------------------------
 OpenMP Integral Computing Module                       
 Release: version 1.0, May 2013, Q-Chem Inc. Pittsburgh 
 -------------------------------------------------------
 Integral Job Info:
 Integral job number is                      11
 Integral operator is                         1
 short-range coefficients                     0
 long-range coefficients              100000000
 Omega coefficients                           0
 if combine SR and LR in K                    0
 Integral screening is                        0
 Integral computing path is                   2
 max size of driver memory is            800000
 size of driver memory is                593474
 size of scratch memory is              2361544
 max col of scratch BK array               1296
 max len of scratch array in speh3          155
 max len of scratch index in speh4           18
 max int batch size is                      520
 min int batch size is                       52
 fixed nKL is                                52
 max L of basis functions is                  2
 order of int derivative is                   0
 number of shells is                         37
 number of basis is                          95
 number of cartesian basis is                95
 number of contracted shell pairs           695
 number of primitive shell pairs           2458
 maxK2 (contraction) of shell pair           36
 max number of K2 of shell pair               1
 max number of CS2 of shell pair             59
 max number of PS2 of shell pair            252
 mem total for path MDJ                  514716
 -------------------------------------------------------
 Smallest overlap matrix eigenvalue = 4.43E-03

 Scale SEOQF with 1.000000e-01/1.000000e-01/1.000000e+00

 Standard Electronic Orientation quadrupole field applied
 Nucleus-field energy     =    -0.0000000036 hartrees
 Guess from superposition of atomic densities
 Warning:  Energy on first SCF cycle will be non-variational
 SAD guess density has 34.000000 electrons

 -----------------------------------------------------------------------
  General SCF calculation program by
  Eric Jon Sundstrom, Paul Horn, Yuezhi Mao, Dmitri Zuev, Alec White,
  David Stuck, Shaama M.S., Shane Yost, Joonho Lee, David Small,
  Daniel Levine, Susi Lehtola, Hugh Burton, Evgeny Epifanovsky
 -----------------------------------------------------------------------
 Exchange:     0.2000 Hartree-Fock + 0.0800 Slater + 0.7200 B88
 Correlation:  0.1900 VWN1RPA + 0.8100 LYP
 Using SG-1 standard quadrature grid
 using 12 threads for integral computing
 -------------------------------------------------------
 OpenMP Integral computing Module                
 Release: version 1.0, May 2013, Q-Chem Inc. Pittsburgh 
 -------------------------------------------------------
 -------------------------------------------------------
 OpenMP BLAS3 based DFT computing Module                
 Release: version 1.0, May 2013, Q-Chem Inc. Pittsburgh 
 -------------------------------------------------------
 A unrestricted SCF calculation will be
 performed using DIIS
 SCF converges when DIIS error is below 1.0e-06
 Alpha HF Exchange    Energy =  -2.80210062512014
 Beta HF Exchange     Energy =  -2.80210062512014
 DFT Correlation      Energy =  -1.44200893650799
 DFT Exchange         Energy = -21.86881365255346
 One-Electron (alpha) Energy = -274.75389157548557
 One-Electron (beta)  Energy = -274.75389157548557
 Total Coulomb        Energy = 231.10159681542339
 ---------------------------------------
  Cycle       Energy         DIIS error
 ---------------------------------------
    1    -218.6158924045      3.10e-02  
 Alpha HF Exchange    Energy =  -2.84204390664626
 Beta HF Exchange     Energy =  -2.84204390664626
 DFT Correlation      Energy =  -1.47111264192656
 DFT Exchange         Energy = -22.56584989410623
 One-Electron (alpha) Energy = -278.29512280004485
 One-Electron (beta)  Energy = -278.29512280004485
 Total Coulomb        Energy = 239.32629197821626
    2    -218.2796862009      4.73e-03  
 Alpha HF Exchange    Energy =  -2.76415040253232
 Beta HF Exchange     Energy =  -2.76415040253233
 DFT Correlation      Energy =  -1.44409354288388
 DFT Exchange         Energy = -21.94742570178834
 One-Electron (alpha) Energy = -274.72914228654969
 One-Electron (beta)  Energy = -274.72914228654980
 Total Coulomb        Energy = 231.42134851682616
    3    -218.2514383357      5.79e-03  
 Alpha HF Exchange    Energy =  -2.80597242513702
 Beta HF Exchange     Energy =  -2.80597242513702
 DFT Correlation      Energy =  -1.45709424179281
 DFT Exchange         Energy = -22.27292747306055
 One-Electron (alpha) Energy = -276.53863300059385
 One-Electron (beta)  Energy = -276.53863300059390
 Total Coulomb        Energy = 235.34403267217832
    4    -218.3698821238      1.05e-03  
 Alpha HF Exchange    Energy =  -2.80432990144758
 Beta HF Exchange     Energy =  -2.80432990144758
 DFT Correlation      Energy =  -1.45804136978798
 DFT Exchange         Energy = -22.26526749434148
 One-Electron (alpha) Energy = -276.62599200947653
 One-Electron (beta)  Energy = -276.62599200947659
 Total Coulomb        Energy = 235.50497403658571
    5    -218.3736608791      2.20e-04  
 Alpha HF Exchange    Energy =  -2.80471653284883
 Beta HF Exchange     Energy =  -2.80471653284884
 DFT Correlation      Energy =  -1.45789113735783
 DFT Exchange         Energy = -22.26740258583925
 One-Electron (alpha) Energy = -276.60968977888092
 One-Electron (beta)  Energy = -276.60968977888092
 Total Coulomb        Energy = 235.47495617287211
    6    -218.3738324035      2.25e-05  
 Alpha HF Exchange    Energy =  -2.80471562964060
 Beta HF Exchange     Energy =  -2.80471562964060
 DFT Correlation      Energy =  -1.45789404330971
 DFT Exchange         Energy = -22.26736009530464
 One-Electron (alpha) Energy = -276.61015468215481
 One-Electron (beta)  Energy = -276.61015468215470
 Total Coulomb        Energy = 235.47584251211572
    7    -218.3738344798      4.63e-06  
 Alpha HF Exchange    Energy =  -2.80473255973175
 Beta HF Exchange     Energy =  -2.80473255973175
 DFT Correlation      Energy =  -1.45790125450248
 DFT Exchange         Energy = -22.26750516020931
 One-Electron (alpha) Energy = -276.61150001199957
 One-Electron (beta)  Energy = -276.61150001199957
 Total Coulomb        Energy = 235.47871921731101
    8    -218.3738345705      1.37e-06  
 Alpha HF Exchange    Energy =  -2.80472875737087
 Beta HF Exchange     Energy =  -2.80472875737087
 DFT Correlation      Energy =  -1.45789956207604
 DFT Exchange         Energy = -22.26746987599928
 One-Electron (alpha) Energy = -276.61111687283466
 One-Electron (beta)  Energy = -276.61111687283471
 Total Coulomb        Energy = 235.47790835037205
    9    -218.3738345778      3.82e-07  Convergence criterion met
 ---------------------------------------
 SCF time:   CPU 19.88s  wall 2.00s 
<S^2> =         -0.000000000
 Alpha HF Exchange    Energy =  -2.80472875737087
 Beta HF Exchange     Energy =  -2.80472875737087
 DFT Correlation      Energy =  -1.45789956207604
 DFT Exchange         Energy = -22.26746987599928
 One-Electron (alpha) Energy = -276.61111687283466
 One-Electron (beta)  Energy = -276.61111687283471
 Total Coulomb        Energy = 235.47790835037205
 Nuclear repulsion Energy = 128.70531777032321
 SCF   energy in the final basis set =     -218.3738345778
 Total energy in the final basis set =     -218.3738345778
 
 --------------------------------------------------------------
 
                    Orbital Energies (a.u.)
 --------------------------------------------------------------
 
 Alpha MOs
 -- Occupied --
-24.626 -10.267 -10.189 -10.189  -1.089  -0.795  -0.704  -0.588
 -0.478  -0.453  -0.432  -0.401  -0.374  -0.369  -0.366  -0.314
 -0.313
 -- Virtual --
  0.051   0.092   0.130   0.145   0.163   0.165   0.179   0.183
  0.225   0.264   0.488   0.505   0.532   0.562   0.584   0.631
  0.683   0.689   0.731   0.812   0.856   0.871   0.877   0.878
  0.914   0.941   0.961   1.149   1.225   1.235   1.313   1.417
  1.418   1.462   1.535   1.645   1.686   1.765   1.821   1.838
  1.864   1.930   1.952   2.004   2.031   2.032   2.053   2.057
  2.093   2.106   2.157   2.212   2.214   2.299   2.369   2.382
  2.492   2.586   2.684   2.693   2.698   2.717   2.801   2.865
  2.883   2.907   3.032   3.169   3.213   3.326   3.414   3.464
  3.469   3.510   3.980   4.342   4.495   4.626
 
 Beta MOs
 -- Occupied --
-24.626 -10.267 -10.189 -10.189  -1.089  -0.795  -0.704  -0.588
 -0.478  -0.453  -0.432  -0.401  -0.374  -0.369  -0.366  -0.314
 -0.313
 -- Virtual --
  0.051   0.092   0.130   0.145   0.163   0.165   0.179   0.183
  0.225   0.264   0.488   0.505   0.532   0.562   0.584   0.631
  0.683   0.689   0.731   0.812   0.856   0.871   0.877   0.878
  0.914   0.941   0.961   1.149   1.225   1.235   1.313   1.417
  1.418   1.462   1.535   1.645   1.686   1.765   1.821   1.838
  1.864   1.930   1.952   2.004   2.031   2.032   2.053   2.057
  2.093   2.106   2.157   2.212   2.214   2.299   2.369   2.382
  2.492   2.586   2.684   2.693   2.698   2.717   2.801   2.865
  2.883   2.907   3.032   3.169   3.213   3.326   3.414   3.464
  3.469   3.510   3.980   4.342   4.495   4.626
 --------------------------------------------------------------
 
          Ground-State Mulliken Net Atomic Charges

     Atom                 Charge (a.u.)    Spin (a.u.)
  --------------------------------------------------------
      1 F                    -0.383226       0.000000
      2 C                     0.203843       0.000000
      3 C                    -0.326151      -0.000000
      4 C                    -0.326148      -0.000000
      5 H                     0.109114      -0.000000
      6 H                     0.129994      -0.000000
      7 H                     0.106498       0.000000
      8 H                     0.124791       0.000000
      9 H                     0.129993       0.000000
     10 H                     0.106500       0.000000
     11 H                     0.124792       0.000000
  --------------------------------------------------------
  Sum of atomic charges =    -0.000000
  Sum of spin   charges =    -0.000000

 -----------------------------------------------------------------
                    Cartesian Multipole Moments
 -----------------------------------------------------------------
    Charge (ESU x 10^10)
                -0.0000
    Dipole Moment (Debye)
         X       0.0017      Y      -2.4322      Z      -0.6511
       Tot       2.5178
    Quadrupole Moments (Debye-Ang)
        XX     -23.7472     XY       0.0028     YY     -27.8564
        XZ       0.0002     YZ      -0.3895     ZZ     -24.0431
    Octopole Moments (Debye-Ang^2)
       XXX      -0.0125    XXY       4.5417    XYY       0.0004
       YYY       6.9009    XXZ      -0.5254    XYZ       0.0003
       YYZ      -0.9437    XZZ      -0.0036    YZZ       3.8214
       ZZZ       0.1081
    Hexadecapole Moments (Debye-Ang^3)
      XXXX    -192.4827   XXXY      -0.0151   XXYY     -56.4523
      XYYY      -0.0180   YYYY    -142.5177   XXXZ       0.0008
      XXYZ       0.0232   XYYZ      -0.0018   YYYZ       3.0067
      XXZZ     -41.7506   XYZZ      -0.0061   YYZZ     -32.6451
      XZZZ       0.0014   YZZZ      -0.3504   ZZZZ     -48.6203
 -----------------------------------------------------------------
 Calculating analytic gradient of the SCF energy
 Gradient of SCF Energy
            1           2           3           4           5           6
    1  -0.0000421   0.0000423   0.0000208  -0.0000210  -0.0000002   0.0000023
    2   0.0590420  -0.0590965   0.0000801   0.0000801  -0.0000052  -0.0000145
    3   0.0212284  -0.0212537   0.0000404   0.0000402  -0.0000059  -0.0000221
            7           8           9          10          11
    1  -0.0000154   0.0000092  -0.0000023   0.0000155  -0.0000091
    2  -0.0000079  -0.0000282  -0.0000140  -0.0000075  -0.0000285
    3  -0.0000039   0.0000014  -0.0000220  -0.0000042   0.0000014
 Max gradient component =       5.910E-02
 RMS gradient           =       1.545E-02
 Gradient time:  CPU 7.62 s  wall 0.80 s
 Geometry Optimization Parameters
   NAtoms,    NIC,     NZ,  NCons,   NDum,   NFix, NCnnct, MaxDiis
       11      68       0       1       0       0       0       0


** CONSTRAINED OPTIMIZATION IN DELOCALIZED INTERNAL COORDINATES **
   Searching for a Minimum

   Optimization Cycle:   1

                       Coordinates (Angstroms)
     ATOM                X               Y               Z
      1  F        -0.0009790000    1.4309300000    0.1513880000
      2  C         0.0000940000   -0.0741880000   -0.3914000000
      3  C        -1.2820760000   -0.6735800000    0.1195030000
      4  C         1.2831180000   -0.6717780000    0.1194680000
      5  H        -0.0000200000    0.0642230000   -1.4746060000
      6  H        -2.1395980000   -0.0840150000   -0.2116600000
      7  H        -1.3980230000   -1.6959070000   -0.2596430000
      8  H        -1.2789590000   -0.7089090000    1.2122470000
      9  H         2.1398100000   -0.0810330000   -0.2117410000
     10  H         1.4004450000   -1.6939460000   -0.2596700000
     11  H         1.2800900000   -0.7070960000    1.2122130000
   Point Group: c1    Number of degrees of freedom:    27


   Energy is   -218.373834578

              Constraints and their Current Values
                                        Value     Constraint
   Distance(Angs):        1   2             1.600000     1.700000

 Attempting to Generate Delocalized Internal Coordinates

   Using Lagrange Multiplier Algorithm


 28 Hessian modes will be used to form the next step
  Hessian Eigenvalues:
    -0.888048    0.045000    0.045000    0.067727    0.083522    0.083522
     0.084006    0.084007    0.084274    0.123699    0.160000    0.160000
     0.160000    0.160000    0.160000    0.160000    0.181669    0.228117
     0.318847    0.318848    0.340703    0.340708    0.344318    0.344318
     0.345754    0.345754    0.345810    1.126066

 Minimum Search - Taking P-RFO Step
 Searching for Lamda that Maximizes Along the Constraint modes Only
 Value Taken    Lamda =   0.03621866
 Searching for Lamda that Minimizes Along All other modes
 Value Taken    Lamda =  -0.00545479
 Step Taken.  Stepsize is  0.183363

                             Maximum     Tolerance    Cnvgd?
         Gradient            0.188973       0.000300      NO
         Displacement        0.183360       0.001200      NO
         Energy change     *********       0.000001      NO


 New Cartesian Coordinates Obtained by Inverse Iteration

 Displacement from previous Coordinates is:  0.173052
 ----------------------------------------------------------------
             Standard Nuclear Orientation (Angstroms)
    I     Atom           X                Y                Z
 ----------------------------------------------------------------
    1      F      -0.0010388247     1.5144547522     0.1744989350
    2      C       0.0001007738    -0.0838836098    -0.3957853253
    3      C      -1.2820693379    -0.6815053292     0.1172929163
    4      C       1.2831225840    -0.6797032775     0.1172582018
    5      H      -0.0000102280     0.0506131246    -1.4794808846
    6      H      -2.1396285342    -0.0931310802    -0.2158995269
    7      H      -1.3979541839    -1.7052270462    -0.2580363942
    8      H      -1.2788915804    -0.7126575820     1.2101635501
    9      H       2.1398535330    -0.0901511456    -0.2159828022
   10      H       1.4003889650    -1.7032675754    -0.2580593417
   11      H       1.2800288333    -0.7108402309     1.2101296717
 ----------------------------------------------------------------
 Nuclear Repulsion Energy =   126.6564659736 hartrees
 There are       17 alpha and       17 beta electrons

                       Distance Matrix (Angstroms)
             F (  1)   C (  2)   C (  3)   C (  4)   H (  5)   H (  6)
   C (  2)  1.697030
   C (  3)  2.542942  1.504779
   C (  4)  2.542966  1.504779  2.565193
   H (  5)  2.208729  1.092010  2.174709  2.174711
   H (  6)  2.703758  2.147297  1.092066  3.488594  2.489029
   H (  7)  3.536214  2.145294  1.096498  2.894947  2.555220  1.775024
   H (  8)  2.768671  2.147149  1.093319  2.785578  3.074460  1.777171
   H (  9)  2.703823  2.147303  3.488600  1.092066  2.489028  4.279483
   H ( 10)  3.536219  2.145269  2.894904  1.096494  2.555208  3.889221
   H ( 11)  2.768683  2.147150  2.785588  1.093319  3.074462  3.756219
             H (  7)   H (  8)   H (  9)   H ( 10)
   H (  8)  1.776227
   H (  9)  3.889257  3.756225
   H ( 10)  2.798344  3.211780  1.775028
   H ( 11)  3.211839  2.558921  1.777175  1.776226
 
 Applying Cartesian multipole field
    Component          Value
    ---------          -----
     (2,0,0)        1.00000E-11
     (0,2,0)        2.00000E-11
     (0,0,2)       -3.00000E-10
 Nucleus-field energy     =    -0.0000000036 hartrees
 Requested basis set is 6-31G(d,p)
 There are 37 shells and 95 basis functions
 A cutoff of  1.0D-14 yielded    695 shell pairs
 There are      4665 function pairs
 Smallest overlap matrix eigenvalue = 4.75E-03
 Guess from superposition of atomic densities
 Warning:  Energy on first SCF cycle will be non-variational
 SAD guess density has 34.000000 electrons

 -----------------------------------------------------------------------
  General SCF calculation program by
  Eric Jon Sundstrom, Paul Horn, Yuezhi Mao, Dmitri Zuev, Alec White,
  David Stuck, Shaama M.S., Shane Yost, Joonho Lee, David Small,
  Daniel Levine, Susi Lehtola, Hugh Burton, Evgeny Epifanovsky
 -----------------------------------------------------------------------
 Exchange:     0.2000 Hartree-Fock + 0.0800 Slater + 0.7200 B88
 Correlation:  0.1900 VWN1RPA + 0.8100 LYP
 Using SG-1 standard quadrature grid
 using 12 threads for integral computing
 -------------------------------------------------------
 OpenMP Integral computing Module                
 Release: version 1.0, May 2013, Q-Chem Inc. Pittsburgh 
 -------------------------------------------------------
 -------------------------------------------------------
 OpenMP BLAS3 based DFT computing Module                
 Release: version 1.0, May 2013, Q-Chem Inc. Pittsburgh 
 -------------------------------------------------------
 A unrestricted SCF calculation will be
 performed using DIIS
 SCF converges when DIIS error is below 1.0e-06
 Alpha HF Exchange    Energy =  -2.79539974268219
 Beta HF Exchange     Energy =  -2.79539974268219
 DFT Correlation      Energy =  -1.43959739387953
 DFT Exchange         Energy = -21.85464191347865
 One-Electron (alpha) Energy = -272.72321371114293
 One-Electron (beta)  Energy = -272.72321371114293
 Total Coulomb        Energy = 229.12300375804995
 ---------------------------------------
  Cycle       Energy         DIIS error
 ---------------------------------------
    1    -218.5519964869      3.04e-02  
 Alpha HF Exchange    Energy =  -2.84134105641312
 Beta HF Exchange     Energy =  -2.84134105641313
 DFT Correlation      Energy =  -1.46912938973813
 DFT Exchange         Energy = -22.56252727263921
 One-Electron (alpha) Energy = -276.30781109522673
 One-Electron (beta)  Energy = -276.30781109522701
 Total Coulomb        Energy = 237.41324189917617
    2    -218.2602530965      4.92e-03  
 Alpha HF Exchange    Energy =  -2.75550605382259
 Beta HF Exchange     Energy =  -2.75550605382259
 DFT Correlation      Energy =  -1.44125980933303
 DFT Exchange         Energy = -21.89145506436616
 One-Electron (alpha) Energy = -272.61364657421359
 One-Electron (beta)  Energy = -272.61364657421387
 Total Coulomb        Energy = 229.21904864650060
    3    -218.1955055132      6.88e-03  
 Alpha HF Exchange    Energy =  -2.80282925136112
 Beta HF Exchange     Energy =  -2.80282925136112
 DFT Correlation      Energy =  -1.45416215200518
 DFT Exchange         Energy = -22.25145848367036
 One-Electron (alpha) Energy = -274.43828544828762
 One-Electron (beta)  Energy = -274.43828544828750
 Total Coulomb        Energy = 233.17957560877028
    4    -218.3518084562      1.54e-03  
 Alpha HF Exchange    Energy =  -2.80129420332712
 Beta HF Exchange     Energy =  -2.80129420332712
 DFT Correlation      Energy =  -1.45582426782968
 DFT Exchange         Energy = -22.24784012971407
 One-Electron (alpha) Energy = -274.61031688505244
 One-Electron (beta)  Energy = -274.61031688505255
 Total Coulomb        Energy = 233.50970226222859
    5    -218.3607183420      2.18e-04  
 Alpha HF Exchange    Energy =  -2.80172960316057
 Beta HF Exchange     Energy =  -2.80172960316057
 DFT Correlation      Energy =  -1.45570146780154
 DFT Exchange         Energy = -22.25039218133340
 One-Electron (alpha) Energy = -274.59764127595821
 One-Electron (beta)  Energy = -274.59764127595815
 Total Coulomb        Energy = 233.48748355258306
    6    -218.3608858848      3.04e-05  
 Alpha HF Exchange    Energy =  -2.80172291703561
 Beta HF Exchange     Energy =  -2.80172291703561
 DFT Correlation      Energy =  -1.45569228272330
 DFT Exchange         Energy = -22.25022786975701
 One-Electron (alpha) Energy = -274.59576645276752
 One-Electron (beta)  Energy = -274.59576645276746
 Total Coulomb        Energy = 233.48354333852359
    7    -218.3608895835      8.00e-06  
 Alpha HF Exchange    Energy =  -2.80175578213197
 Beta HF Exchange     Energy =  -2.80175578213198
 DFT Correlation      Energy =  -1.45570540917689
 DFT Exchange         Energy = -22.25050718086251
 One-Electron (alpha) Energy = -274.59833394655720
 One-Electron (beta)  Energy = -274.59833394655755
 Total Coulomb        Energy = 233.48903623753083
    8    -218.3608898399      1.86e-06  
 Alpha HF Exchange    Energy =  -2.80175398981872
 Beta HF Exchange     Energy =  -2.80175398981872
 DFT Correlation      Energy =  -1.45570398475481
 DFT Exchange         Energy = -22.25048411157022
 One-Electron (alpha) Energy = -274.59797686046431
 One-Electron (beta)  Energy = -274.59797686046443
 Total Coulomb        Energy = 233.48829397240945
    9    -218.3608898545      3.47e-07  Convergence criterion met
 ---------------------------------------
 SCF time:   CPU 19.59s  wall 2.00s 
<S^2> =         -0.000000000
 Alpha HF Exchange    Energy =  -2.80175398981872
 Beta HF Exchange     Energy =  -2.80175398981872
 DFT Correlation      Energy =  -1.45570398475481
 DFT Exchange         Energy = -22.25048411157022
 One-Electron (alpha) Energy = -274.59797686046431
 One-Electron (beta)  Energy = -274.59797686046443
 Total Coulomb        Energy = 233.48829397240945
 Nuclear repulsion Energy = 126.65646597002922
 SCF   energy in the final basis set =     -218.3608898545
 Total energy in the final basis set =     -218.3608898545
 
 --------------------------------------------------------------
 
                    Orbital Energies (a.u.)
 --------------------------------------------------------------
 
 Alpha MOs
 -- Occupied --
-24.615 -10.273 -10.193 -10.193  -1.065  -0.800  -0.707  -0.590
 -0.476  -0.451  -0.430  -0.403  -0.370  -0.370  -0.355  -0.307
 -0.307
 -- Virtual --
  0.018   0.090   0.128   0.142   0.158   0.161   0.176   0.182
  0.221   0.261   0.485   0.502   0.532   0.557   0.578   0.632
  0.681   0.687   0.729   0.808   0.853   0.870   0.875   0.876
  0.911   0.938   0.958   1.148   1.227   1.240   1.312   1.410
  1.414   1.433   1.532   1.635   1.702   1.732   1.802   1.842
  1.862   1.922   1.952   1.993   2.025   2.028   2.039   2.053
  2.090   2.097   2.126   2.190   2.198   2.291   2.369   2.371
  2.486   2.570   2.647   2.685   2.690   2.712   2.760   2.860
  2.872   2.903   2.984   3.165   3.210   3.322   3.411   3.459
  3.463   3.502   3.896   4.318   4.487   4.608
 
 Beta MOs
 -- Occupied --
-24.615 -10.273 -10.193 -10.193  -1.065  -0.800  -0.707  -0.590
 -0.476  -0.451  -0.430  -0.403  -0.370  -0.370  -0.355  -0.307
 -0.307
 -- Virtual --
  0.018   0.090   0.128   0.142   0.158   0.161   0.176   0.182
  0.221   0.261   0.485   0.502   0.532   0.557   0.578   0.632
  0.681   0.687   0.729   0.808   0.853   0.870   0.875   0.876
  0.911   0.938   0.958   1.148   1.227   1.240   1.312   1.410
  1.414   1.433   1.532   1.635   1.702   1.732   1.802   1.842
  1.862   1.922   1.952   1.993   2.025   2.028   2.039   2.053
  2.090   2.097   2.126   2.190   2.198   2.291   2.369   2.371
  2.486   2.570   2.647   2.685   2.690   2.712   2.760   2.860
  2.872   2.903   2.984   3.165   3.210   3.322   3.411   3.459
  3.463   3.502   3.896   4.318   4.487   4.608
 --------------------------------------------------------------
 
          Ground-State Mulliken Net Atomic Charges

     Atom                 Charge (a.u.)    Spin (a.u.)
  --------------------------------------------------------
      1 F                    -0.389937      -0.000000
      2 C                     0.177777       0.000000
      3 C                    -0.326846      -0.000000
      4 C                    -0.326842      -0.000000
      5 H                     0.117873       0.000000
      6 H                     0.134492      -0.000000
      7 H                     0.110498      -0.000000
      8 H                     0.128997      -0.000000
      9 H                     0.134490      -0.000000
     10 H                     0.110499      -0.000000
     11 H                     0.128999       0.000000
  --------------------------------------------------------
  Sum of atomic charges =    -0.000000
  Sum of spin   charges =    -0.000000

 -----------------------------------------------------------------
                    Cartesian Multipole Moments
 -----------------------------------------------------------------
    Charge (ESU x 10^10)
                -0.0000
    Dipole Moment (Debye)
         X       0.0020      Y      -2.8338      Z      -0.7375
       Tot       2.9282
    Quadrupole Moments (Debye-Ang)
        XX     -23.4954     XY       0.0033     YY     -28.2883
        XZ       0.0003     YZ      -0.4450     ZZ     -23.9318
    Octopole Moments (Debye-Ang^2)
       XXX      -0.0113    XXY       3.9843    XYY       0.0011
       YYY       4.7248    XXZ      -0.5839    XYZ       0.0003
       YYZ      -1.1160    XZZ      -0.0033    YZZ       3.4077
       ZZZ      -0.2106
    Hexadecapole Moments (Debye-Ang^3)
      XXXX    -190.8464   XXXY      -0.0118   XXYY     -57.4886
      XYYY      -0.0135   YYYY    -151.9968   XXXZ       0.0014
      XXYZ      -0.2726   XYYZ      -0.0015   YYYZ       2.1105
      XXZZ     -41.5701   XYZZ      -0.0049   YYZZ     -34.1080
      XZZZ       0.0020   YZZZ      -1.1967   ZZZZ     -48.2890
 -----------------------------------------------------------------
 Calculating analytic gradient of the SCF energy
 Gradient of SCF Energy
            1           2           3           4           5           6
    1  -0.0000518   0.0000422  -0.0006856   0.0006928   0.0000027   0.0000797
    2   0.0724145  -0.0586401  -0.0052875  -0.0052863  -0.0040169   0.0002235
    3   0.0256596  -0.0222049  -0.0016496  -0.0016498  -0.0014122  -0.0000741
            7           8           9          10          11
    1  -0.0008532   0.0001871  -0.0000799   0.0008535  -0.0001874
    2   0.0000035   0.0001804   0.0002238   0.0000050   0.0001800
    3   0.0005779   0.0001249  -0.0000740   0.0005775   0.0001247
 Max gradient component =       7.241E-02
 RMS gradient           =       1.734E-02
 Gradient time:  CPU 7.49 s  wall 0.76 s
 Geometry Optimization Parameters
   NAtoms,    NIC,     NZ,  NCons,   NDum,   NFix, NCnnct, MaxDiis
       11      68       0       1       0       0       0       0

 Cartesian Hessian Update
 Hessian Updated using BFGS Update


** CONSTRAINED OPTIMIZATION IN DELOCALIZED INTERNAL COORDINATES **
   Searching for a Minimum

   Optimization Cycle:   2

                       Coordinates (Angstroms)
     ATOM                X               Y               Z
      1  F        -0.0010388247    1.5144547522    0.1744989350
      2  C         0.0001007738   -0.0838836098   -0.3957853253
      3  C        -1.2820693379   -0.6815053292    0.1172929163
      4  C         1.2831225840   -0.6797032775    0.1172582018
      5  H        -0.0000102280    0.0506131246   -1.4794808846
      6  H        -2.1396285342   -0.0931310802   -0.2158995269
      7  H        -1.3979541839   -1.7052270462   -0.2580363942
      8  H        -1.2788915804   -0.7126575820    1.2101635501
      9  H         2.1398535330   -0.0901511456   -0.2159828022
     10  H         1.4003889650   -1.7032675754   -0.2580593417
     11  H         1.2800288333   -0.7108402309    1.2101296717
   Point Group: c1    Number of degrees of freedom:    27


   Energy is   -218.360889854

              Constraints and their Current Values
                                        Value     Constraint
   Distance(Angs):        1   2             1.697030     1.700000
 Hessian Updated using BFGS Update

   Using Lagrange Multiplier Algorithm


 24 Hessian modes will be used to form the next step
  Hessian Eigenvalues:
    -0.963044    0.045000    0.045001    0.075456    0.083522    0.084004
     0.084006    0.084021    0.084556    0.123699    0.160000    0.162850
     0.181669    0.231685    0.318848    0.324740    0.340705    0.340721
     0.344318    0.344330    0.345754    0.345755    0.346243    1.040150

 Minimum Search - Taking P-RFO Step
 Searching for Lamda that Maximizes Along the Constraint modes Only
 Value Taken    Lamda =   0.00019017
 Searching for Lamda that Minimizes Along All other modes
 Value Taken    Lamda =  -0.00089555
 Step Taken.  Stepsize is  0.065125

                             Maximum     Tolerance    Cnvgd?
         Gradient            0.025082       0.000300      NO
         Displacement        0.042092       0.001200      NO
         Energy change      0.012945       0.000001      NO


 New Cartesian Coordinates Obtained by Inverse Iteration

 Displacement from previous Coordinates is:  0.040132
 ----------------------------------------------------------------
             Standard Nuclear Orientation (Angstroms)
    I     Atom           X                Y                Z
 ----------------------------------------------------------------
    1      F      -0.0010299094     1.5028610476     0.1747519092
    2      C       0.0001100538    -0.0974338030    -0.3988607849
    3      C      -1.2831347759    -0.6795337847     0.1181100485
    4      C       1.2841851828    -0.6777300132     0.1180757702
    5      H      -0.0000114122     0.0517441262    -1.4794212970
    6      H      -2.1381356555    -0.0875014929    -0.2148288786
    7      H      -1.4006371096    -1.7024989640    -0.2591953944
    8      H      -1.2799593421    -0.7109839076     1.2108146350
    9      H       2.1383524378    -0.0845251564    -0.2149149725
   10      H       1.4030672553    -1.7005373637    -0.2592134856
   11      H       1.2810952750    -0.7091596883     1.2107814502
 ----------------------------------------------------------------
 Nuclear Repulsion Energy =   126.8437906240 hartrees
 There are       17 alpha and       17 beta electrons

                       Distance Matrix (Angstroms)
             F (  1)   C (  2)   C (  3)   C (  4)   H (  5)   H (  6)
   C (  2)  1.699993
   C (  3)  2.531768  1.500939
   C (  4)  2.531791  1.500938  2.567321
   H (  5)  2.200461  1.090809  2.175610  2.175613
   H (  6)  2.692257  2.146174  1.091960  3.488764  2.488003
   H (  7)  3.524421  2.134908  1.096642  2.898406  2.555009  1.775976
   H (  8)  2.758658  2.146177  1.093162  2.787476  3.075287  1.776980
   H (  9)  2.692321  2.146179  3.488770  1.091960  2.488000  4.276489
   H ( 10)  3.524426  2.134884  2.898362  1.096638  2.555000  3.891526
   H ( 11)  2.758666  2.146178  2.787487  1.093162  3.075289  3.756323
             H (  7)   H (  8)   H (  9)   H ( 10)
   H (  8)  1.777244
   H (  9)  3.891561  3.756329
   H ( 10)  2.803705  3.215405  1.775979
   H ( 11)  3.215469  2.561055  1.776983  1.777243
 
 Applying Cartesian multipole field
    Component          Value
    ---------          -----
     (2,0,0)        1.00000E-11
     (0,2,0)        2.00000E-11
     (0,0,2)       -3.00000E-10
 Nucleus-field energy     =    -0.0000000036 hartrees
 Requested basis set is 6-31G(d,p)
 There are 37 shells and 95 basis functions
 A cutoff of  1.0D-14 yielded    695 shell pairs
 There are      4665 function pairs
 Smallest overlap matrix eigenvalue = 4.69E-03
 Guess from superposition of atomic densities
 Warning:  Energy on first SCF cycle will be non-variational
 SAD guess density has 34.000000 electrons

 -----------------------------------------------------------------------
  General SCF calculation program by
  Eric Jon Sundstrom, Paul Horn, Yuezhi Mao, Dmitri Zuev, Alec White,
  David Stuck, Shaama M.S., Shane Yost, Joonho Lee, David Small,
  Daniel Levine, Susi Lehtola, Hugh Burton, Evgeny Epifanovsky
 -----------------------------------------------------------------------
 Exchange:     0.2000 Hartree-Fock + 0.0800 Slater + 0.7200 B88
 Correlation:  0.1900 VWN1RPA + 0.8100 LYP
 Using SG-1 standard quadrature grid
 using 12 threads for integral computing
 -------------------------------------------------------
 OpenMP Integral computing Module                
 Release: version 1.0, May 2013, Q-Chem Inc. Pittsburgh 
 -------------------------------------------------------
 -------------------------------------------------------
 OpenMP BLAS3 based DFT computing Module                
 Release: version 1.0, May 2013, Q-Chem Inc. Pittsburgh 
 -------------------------------------------------------
 A unrestricted SCF calculation will be
 performed using DIIS
 SCF converges when DIIS error is below 1.0e-06
 Alpha HF Exchange    Energy =  -2.79619911874731
 Beta HF Exchange     Energy =  -2.79619911874731
 DFT Correlation      Energy =  -1.43980813823969
 DFT Exchange         Energy = -21.85621871707195
 One-Electron (alpha) Energy = -272.90681568069283
 One-Electron (beta)  Energy = -272.90681568069283
 Total Coulomb        Energy = 229.29898466277655
 ---------------------------------------
  Cycle       Energy         DIIS error
 ---------------------------------------
    1    -218.5592811711      3.05e-02  
 Alpha HF Exchange    Energy =  -2.84205808422124
 Beta HF Exchange     Energy =  -2.84205808422124
 DFT Correlation      Energy =  -1.46945393512670
 DFT Exchange         Energy = -22.56767377543076
 One-Electron (alpha) Energy = -276.51595104476826
 One-Electron (beta)  Energy = -276.51595104476814
 Total Coulomb        Energy = 237.65002999813058
    2    -218.2593253501      4.94e-03  
 Alpha HF Exchange    Energy =  -2.75532351016730
 Beta HF Exchange     Energy =  -2.75532351016730
 DFT Correlation      Energy =  -1.44139329724713
 DFT Exchange         Energy = -21.89020741666831
 One-Electron (alpha) Energy = -272.77789662450795
 One-Electron (beta)  Energy = -272.77789662450795
 Total Coulomb        Energy = 229.36261912698353
    3    -218.1916312359      6.97e-03  
 Alpha HF Exchange    Energy =  -2.80322083959837
 Beta HF Exchange     Energy =  -2.80322083959837
 DFT Correlation      Energy =  -1.45437317754323
 DFT Exchange         Energy = -22.25412981928108
 One-Electron (alpha) Energy = -274.62572144134265
 One-Electron (beta)  Energy = -274.62572144134253
 Total Coulomb        Energy = 233.37122502335868
    4    -218.3513719150      1.56e-03  
 Alpha HF Exchange    Energy =  -2.80171374455075
 Beta HF Exchange     Energy =  -2.80171374455075
 DFT Correlation      Energy =  -1.45608124908712
 DFT Exchange         Energy = -22.25091621237053
 One-Electron (alpha) Energy = -274.80282951068841
 One-Electron (beta)  Energy = -274.80282951068858
 Total Coulomb        Energy = 233.71169475646329
    5    -218.3605985951      2.17e-04  
 Alpha HF Exchange    Energy =  -2.80213601675444
 Beta HF Exchange     Energy =  -2.80213601675443
 DFT Correlation      Energy =  -1.45595369647843
 DFT Exchange         Energy = -22.25336166971491
 One-Electron (alpha) Energy = -274.78916395057524
 One-Electron (beta)  Energy = -274.78916395057513
 Total Coulomb        Energy = 233.68735951152817
    6    -218.3607651690      3.01e-05  
 Alpha HF Exchange    Energy =  -2.80214035643347
 Beta HF Exchange     Energy =  -2.80214035643346
 DFT Correlation      Energy =  -1.45594857785525
 DFT Exchange         Energy = -22.25328801149864
 One-Electron (alpha) Energy = -274.78814635863608
 One-Electron (beta)  Energy = -274.78814635863603
 Total Coulomb        Energy = 233.68525057417548
    7    -218.3607688250      7.10e-06  
 Alpha HF Exchange    Energy =  -2.80217061117441
 Beta HF Exchange     Energy =  -2.80217061117441
 DFT Correlation      Energy =  -1.45596044778390
 DFT Exchange         Energy = -22.25354356534039
 One-Electron (alpha) Energy = -274.79045522074318
 One-Electron (beta)  Energy = -274.79045522074301
 Total Coulomb        Energy = 233.69019603260216
    8    -218.3607690240      1.91e-06  
 Alpha HF Exchange    Energy =  -2.80216847180473
 Beta HF Exchange     Energy =  -2.80216847180473
 DFT Correlation      Energy =  -1.45595885773467
 DFT Exchange         Energy = -22.25351738583543
 One-Electron (alpha) Energy = -274.79006583367948
 One-Electron (beta)  Energy = -274.79006583367965
 Total Coulomb        Energy = 233.68938519498772
    9    -218.3607690392      3.66e-07  Convergence criterion met
 ---------------------------------------
 SCF time:   CPU 19.52s  wall 2.00s 
<S^2> =         -0.000000000
 Alpha HF Exchange    Energy =  -2.80216847180473
 Beta HF Exchange     Energy =  -2.80216847180473
 DFT Correlation      Energy =  -1.45595885773467
 DFT Exchange         Energy = -22.25351738583543
 One-Electron (alpha) Energy = -274.79006583367948
 One-Electron (beta)  Energy = -274.79006583367965
 Total Coulomb        Energy = 233.68938519498772
 Nuclear repulsion Energy = 126.84379062035322
 SCF   energy in the final basis set =     -218.3607690392
 Total energy in the final basis set =     -218.3607690392
 
 --------------------------------------------------------------
 
                    Orbital Energies (a.u.)
 --------------------------------------------------------------
 
 Alpha MOs
 -- Occupied --
-24.612 -10.272 -10.193 -10.193  -1.063  -0.801  -0.708  -0.590
 -0.477  -0.452  -0.430  -0.404  -0.371  -0.370  -0.353  -0.305
 -0.305
 -- Virtual --
  0.018   0.090   0.127   0.143   0.159   0.161   0.176   0.181
  0.223   0.263   0.485   0.501   0.532   0.558   0.580   0.634
  0.681   0.689   0.728   0.809   0.853   0.868   0.875   0.875
  0.912   0.938   0.959   1.148   1.228   1.238   1.311   1.413
  1.416   1.435   1.531   1.637   1.705   1.731   1.803   1.849
  1.862   1.924   1.954   1.996   2.026   2.028   2.039   2.053
  2.090   2.098   2.127   2.191   2.197   2.288   2.369   2.372
  2.490   2.572   2.645   2.684   2.690   2.717   2.764   2.859
  2.876   2.906   2.983   3.166   3.210   3.326   3.411   3.459
  3.465   3.503   3.897   4.321   4.489   4.610
 
 Beta MOs
 -- Occupied --
-24.612 -10.272 -10.193 -10.193  -1.063  -0.801  -0.708  -0.590
 -0.477  -0.452  -0.430  -0.404  -0.371  -0.370  -0.353  -0.305
 -0.305
 -- Virtual --
  0.018   0.090   0.127   0.143   0.159   0.161   0.176   0.181
  0.223   0.263   0.485   0.501   0.532   0.558   0.580   0.634
  0.681   0.689   0.728   0.809   0.853   0.868   0.875   0.875
  0.912   0.938   0.959   1.148   1.228   1.238   1.311   1.413
  1.416   1.435   1.531   1.637   1.705   1.731   1.803   1.849
  1.862   1.924   1.954   1.996   2.026   2.028   2.039   2.053
  2.090   2.098   2.127   2.191   2.197   2.288   2.369   2.372
  2.490   2.572   2.645   2.684   2.690   2.717   2.764   2.859
  2.876   2.906   2.983   3.166   3.210   3.326   3.411   3.459
  3.465   3.503   3.897   4.321   4.489   4.610
 --------------------------------------------------------------
 
          Ground-State Mulliken Net Atomic Charges

     Atom                 Charge (a.u.)    Spin (a.u.)
  --------------------------------------------------------
      1 F                    -0.392785      -0.000000
      2 C                     0.177517       0.000000
      3 C                    -0.325771      -0.000000
      4 C                    -0.325768      -0.000000
      5 H                     0.118516      -0.000000
      6 H                     0.135247       0.000000
      7 H                     0.109562       0.000000
      8 H                     0.129336       0.000000
      9 H                     0.135246      -0.000000
     10 H                     0.109563      -0.000000
     11 H                     0.129337       0.000000
  --------------------------------------------------------
  Sum of atomic charges =    -0.000000
  Sum of spin   charges =     0.000000

 -----------------------------------------------------------------
                    Cartesian Multipole Moments
 -----------------------------------------------------------------
    Charge (ESU x 10^10)
                -0.0000
    Dipole Moment (Debye)
         X       0.0020      Y      -2.8402      Z      -0.7452
       Tot       2.9363
    Quadrupole Moments (Debye-Ang)
        XX     -23.4554     XY       0.0033     YY     -28.2980
        XZ       0.0003     YZ      -0.4543     ZZ     -23.8963
    Octopole Moments (Debye-Ang^2)
       XXX      -0.0116    XXY       4.1389    XYY       0.0010
       YYY       5.0990    XXZ      -0.5498    XYZ       0.0004
       YYZ      -1.1197    XZZ      -0.0034    YZZ       3.4937
       ZZZ      -0.2011
    Hexadecapole Moments (Debye-Ang^3)
      XXXX    -190.8037   XXXY      -0.0119   XXYY     -57.4304
      XYYY      -0.0142   YYYY    -150.9283   XXXZ       0.0015
      XXYZ      -0.3172   XYYZ      -0.0016   YYYZ       2.0427
      XXZZ     -41.5544   XYZZ      -0.0051   YYZZ     -33.9087
      XZZZ       0.0020   YZZZ      -1.3010   ZZZZ     -48.2809
 -----------------------------------------------------------------
 Calculating analytic gradient of the SCF energy
 Gradient of SCF Energy
            1           2           3           4           5           6
    1  -0.0000505   0.0000460  -0.0002855   0.0002892   0.0000016  -0.0001699
    2   0.0706407  -0.0641740  -0.0026242  -0.0026235  -0.0025534   0.0001621
    3   0.0253724  -0.0234822  -0.0010406  -0.0010407  -0.0006129   0.0001499
            7           8           9          10          11
    1   0.0001030  -0.0000893   0.0001696  -0.0001032   0.0000890
    2   0.0003129   0.0001918   0.0001627   0.0003132   0.0001917
    3   0.0001062   0.0001461   0.0001500   0.0001058   0.0001460
 Max gradient component =       7.064E-02
 RMS gradient           =       1.769E-02
 Gradient time:  CPU 7.49 s  wall 0.77 s
 Geometry Optimization Parameters
   NAtoms,    NIC,     NZ,  NCons,   NDum,   NFix, NCnnct, MaxDiis
       11      68       0       1       0       0       0       0

 Cartesian Hessian Update
 Hessian Updated using BFGS Update


** CONSTRAINED OPTIMIZATION IN DELOCALIZED INTERNAL COORDINATES **
   Searching for a Minimum

   Optimization Cycle:   3

                       Coordinates (Angstroms)
     ATOM                X               Y               Z
      1  F        -0.0010299094    1.5028610476    0.1747519092
      2  C         0.0001100538   -0.0974338030   -0.3988607849
      3  C        -1.2831347759   -0.6795337847    0.1181100485
      4  C         1.2841851828   -0.6777300132    0.1180757702
      5  H        -0.0000114122    0.0517441262   -1.4794212970
      6  H        -2.1381356555   -0.0875014929   -0.2148288786
      7  H        -1.4006371096   -1.7024989640   -0.2591953944
      8  H        -1.2799593421   -0.7109839076    1.2108146350
      9  H         2.1383524378   -0.0845251564   -0.2149149725
     10  H         1.4030672553   -1.7005373637   -0.2592134856
     11  H         1.2810952750   -0.7091596883    1.2107814502
   Point Group: c1    Number of degrees of freedom:    27


   Energy is   -218.360769039

              Constraints and their Current Values
                                        Value     Constraint
   Distance(Angs):        1   2             1.699993     1.700000
 Hessian Updated using BFGS Update

   Using Lagrange Multiplier Algorithm


 25 Hessian modes will be used to form the next step
  Hessian Eigenvalues:
    -0.960104    0.037937    0.045000    0.045002    0.083522    0.083708
     0.084006    0.084018    0.084394    0.123699    0.159947    0.160000
     0.181669    0.183089    0.227686    0.318812    0.318848    0.340706
     0.342039    0.344297    0.344318    0.345500    0.345754    0.347687
     1.043976

 Minimum Search - Taking P-RFO Step
 Searching for Lamda that Maximizes Along the Constraint modes Only
 Value Taken    Lamda =   0.00000000
 Searching for Lamda that Minimizes Along All other modes
 Value Taken    Lamda =  -0.00023835
 Step Taken.  Stepsize is  0.077576

                             Maximum     Tolerance    Cnvgd?
         Gradient            0.001912       0.000300      NO
         Displacement        0.052037       0.001200      NO
         Energy change      0.000121       0.000001      NO


 New Cartesian Coordinates Obtained by Inverse Iteration

 Displacement from previous Coordinates is:  0.065160
 ----------------------------------------------------------------
             Standard Nuclear Orientation (Angstroms)
    I     Atom           X                Y                Z
 ----------------------------------------------------------------
    1      F      -0.0010166911     1.4868854334     0.1739018649
    2      C       0.0001196824    -0.1119366904    -0.4038227389
    3      C      -1.2845838950    -0.6785853619     0.1184428167
    4      C       1.2856324958    -0.6767790965     0.1184091645
    5      H      -0.0000172257     0.0587401205    -1.4804571221
    6      H      -2.1336992740    -0.0786611042    -0.2137798220
    7      H      -1.4150532881    -1.7016902736    -0.2570754840
    8      H      -1.2771798282    -0.7098489332     1.2107337135
    9      H       2.1339033845    -0.0756936589    -0.2138715752
   10      H       1.4174809557    -1.6997123673    -0.2570835212
   11      H       1.2783156837    -0.7080170680     1.2107017038
 ----------------------------------------------------------------
 Nuclear Repulsion Energy =   127.0661986027 hartrees
 There are       17 alpha and       17 beta electrons

                       Distance Matrix (Angstroms)
             F (  1)   C (  2)   C (  3)   C (  4)   H (  5)   H (  6)
   C (  2)  1.700000
   C (  3)  2.517913  1.498104
   C (  4)  2.517934  1.498104  2.570217
   H (  5)  2.185521  1.090079  2.179505  2.179508
   H (  6)  2.673868  2.142523  1.091457  3.487108  2.485146
   H (  7)  3.514578  2.133440  1.097625  2.912926  2.568678  1.775542
   H (  8)  2.743949  2.143778  1.092763  2.786086  3.076424  1.777994
   H (  9)  2.673931  2.142528  3.487114  1.091457  2.485142  4.267604
   H ( 10)  3.514582  2.133419  2.912881  1.097621  2.568677  3.903916
   H ( 11)  2.743946  2.143778  2.786099  1.092764  3.076424  3.750611
             H (  7)   H (  8)   H (  9)   H ( 10)
   H (  8)  1.776857
   H (  9)  3.903950  3.750619
   H ( 10)  2.832535  3.224207  1.775546
   H ( 11)  3.224282  2.555496  1.777997  1.776857
 
 Applying Cartesian multipole field
    Component          Value
    ---------          -----
     (2,0,0)        1.00000E-11
     (0,2,0)        2.00000E-11
     (0,0,2)       -3.00000E-10
 Nucleus-field energy     =    -0.0000000036 hartrees
 Requested basis set is 6-31G(d,p)
 There are 37 shells and 95 basis functions
 A cutoff of  1.0D-14 yielded    695 shell pairs
 There are      4665 function pairs
 Smallest overlap matrix eigenvalue = 4.63E-03
 Guess from superposition of atomic densities
 Warning:  Energy on first SCF cycle will be non-variational
 SAD guess density has 34.000000 electrons

 -----------------------------------------------------------------------
  General SCF calculation program by
  Eric Jon Sundstrom, Paul Horn, Yuezhi Mao, Dmitri Zuev, Alec White,
  David Stuck, Shaama M.S., Shane Yost, Joonho Lee, David Small,
  Daniel Levine, Susi Lehtola, Hugh Burton, Evgeny Epifanovsky
 -----------------------------------------------------------------------
 Exchange:     0.2000 Hartree-Fock + 0.0800 Slater + 0.7200 B88
 Correlation:  0.1900 VWN1RPA + 0.8100 LYP
 Using SG-1 standard quadrature grid
 using 12 threads for integral computing
 -------------------------------------------------------
 OpenMP Integral computing Module                
 Release: version 1.0, May 2013, Q-Chem Inc. Pittsburgh 
 -------------------------------------------------------
 -------------------------------------------------------
 OpenMP BLAS3 based DFT computing Module                
 Release: version 1.0, May 2013, Q-Chem Inc. Pittsburgh 
 -------------------------------------------------------
 A unrestricted SCF calculation will be
 performed using DIIS
 SCF converges when DIIS error is below 1.0e-06
 Alpha HF Exchange    Energy =  -2.79688178189300
 Beta HF Exchange     Energy =  -2.79688178189300
 DFT Correlation      Energy =  -1.44003027103515
 DFT Exchange         Energy = -21.85761144217891
 One-Electron (alpha) Energy = -273.12633959490933
 One-Electron (beta)  Energy = -273.12633959490933
 Total Coulomb        Energy = 229.51217768816721
 ---------------------------------------
  Cycle       Energy         DIIS error
 ---------------------------------------
    1    -218.5657081796      3.05e-02  
 Alpha HF Exchange    Energy =  -2.84263128833054
 Beta HF Exchange     Energy =  -2.84263128833055
 DFT Correlation      Energy =  -1.46976109744318
 DFT Exchange         Energy = -22.57173616394213
 One-Electron (alpha) Energy = -276.75587526330315
 One-Electron (beta)  Energy = -276.75587526330332
 Total Coulomb        Energy = 237.91339137537864
    2    -218.2589203902      4.96e-03  
 Alpha HF Exchange    Energy =  -2.75529909581284
 Beta HF Exchange     Energy =  -2.75529909581284
 DFT Correlation      Energy =  -1.44156430170999
 DFT Exchange         Energy = -21.89000307341012
 One-Electron (alpha) Energy = -272.98180262884250
 One-Electron (beta)  Energy = -272.98180262884239
 Total Coulomb        Energy = 229.55006091214506
    3    -218.1895113132      7.02e-03  
 Alpha HF Exchange    Energy =  -2.80358042855903
 Beta HF Exchange     Energy =  -2.80358042855903
 DFT Correlation      Energy =  -1.45461098173207
 DFT Exchange         Energy = -22.25657424016305
 One-Electron (alpha) Energy = -274.85102739879926
 One-Electron (beta)  Energy = -274.85102739879949
 Total Coulomb        Energy = 233.60284096727656
    4    -218.3513613103      1.57e-03  
 Alpha HF Exchange    Energy =  -2.80209013831115
 Beta HF Exchange     Energy =  -2.80209013831115
 DFT Correlation      Energy =  -1.45634254107699
 DFT Exchange         Energy = -22.25358375035281
 One-Electron (alpha) Energy = -275.03019575236857
 One-Electron (beta)  Energy = -275.03019575236857
 Total Coulomb        Energy = 233.94756798879632
    5    -218.3607314849      2.16e-04  
 Alpha HF Exchange    Energy =  -2.80249756682577
 Beta HF Exchange     Energy =  -2.80249756682577
 DFT Correlation      Energy =  -1.45620927475824
 DFT Exchange         Energy = -22.25590836504137
 One-Electron (alpha) Energy = -275.01546126940184
 One-Electron (beta)  Energy = -275.01546126940178
 Total Coulomb        Energy = 233.92093961763430
    6    -218.3608970956      2.99e-05  
 Alpha HF Exchange    Energy =  -2.80251144784841
 Beta HF Exchange     Energy =  -2.80251144784841
 DFT Correlation      Energy =  -1.45620802325667
 DFT Exchange         Energy = -22.25591580839740
 One-Electron (alpha) Energy = -275.01526569832140
 One-Electron (beta)  Energy = -275.01526569832140
 Total Coulomb        Energy = 233.92057882622760
    7    -218.3609006987      6.26e-06  
 Alpha HF Exchange    Energy =  -2.80253904558194
 Beta HF Exchange     Energy =  -2.80253904558194
 DFT Correlation      Energy =  -1.45621863109254
 DFT Exchange         Energy = -22.25614705096987
 One-Electron (alpha) Energy = -275.01730956016866
 One-Electron (beta)  Energy = -275.01730956016866
 Total Coulomb        Energy = 233.92496344357153
    8    -218.3609008509      1.90e-06  
 Alpha HF Exchange    Energy =  -2.80253653474249
 Beta HF Exchange     Energy =  -2.80253653474249
 DFT Correlation      Energy =  -1.45621690037426
 DFT Exchange         Energy = -22.25611784439972
 One-Electron (alpha) Energy = -275.01689541889300
 One-Electron (beta)  Energy = -275.01689541889294
 Total Coulomb        Energy = 233.92409918712869
    9    -218.3609008659      3.90e-07  Convergence criterion met
 ---------------------------------------
 SCF time:   CPU 19.48s  wall 2.00s 
<S^2> =          0.000000000
 Alpha HF Exchange    Energy =  -2.80253653474249
 Beta HF Exchange     Energy =  -2.80253653474249
 DFT Correlation      Energy =  -1.45621690037426
 DFT Exchange         Energy = -22.25611784439972
 One-Electron (alpha) Energy = -275.01689541889300
 One-Electron (beta)  Energy = -275.01689541889294
 Total Coulomb        Energy = 233.92409918712869
 Nuclear repulsion Energy = 127.06619859904883
 SCF   energy in the final basis set =     -218.3609008659
 Total energy in the final basis set =     -218.3609008659
 
 --------------------------------------------------------------
 
                    Orbital Energies (a.u.)
 --------------------------------------------------------------
 
 Alpha MOs
 -- Occupied --
-24.611 -10.272 -10.192 -10.192  -1.062  -0.801  -0.708  -0.590
 -0.477  -0.452  -0.431  -0.404  -0.372  -0.371  -0.351  -0.304
 -0.304
 -- Virtual --
  0.018   0.091   0.127   0.142   0.160   0.161   0.175   0.181
  0.224   0.265   0.484   0.500   0.531   0.559   0.583   0.636
  0.682   0.690   0.726   0.809   0.853   0.866   0.875   0.875
  0.913   0.938   0.960   1.151   1.228   1.238   1.306   1.416
  1.418   1.439   1.530   1.636   1.708   1.731   1.807   1.852
  1.862   1.924   1.956   2.000   2.026   2.029   2.038   2.053
  2.090   2.100   2.130   2.194   2.195   2.288   2.368   2.375
  2.493   2.571   2.643   2.685   2.691   2.723   2.770   2.859
  2.876   2.909   2.984   3.167   3.210   3.330   3.412   3.459
  3.465   3.504   3.898   4.324   4.490   4.612
 
 Beta MOs
 -- Occupied --
-24.611 -10.272 -10.192 -10.192  -1.062  -0.801  -0.708  -0.590
 -0.477  -0.452  -0.431  -0.404  -0.372  -0.371  -0.351  -0.304
 -0.304
 -- Virtual --
  0.018   0.091   0.127   0.142   0.160   0.161   0.175   0.181
  0.224   0.265   0.484   0.500   0.531   0.559   0.583   0.636
  0.682   0.690   0.726   0.809   0.853   0.866   0.875   0.875
  0.913   0.938   0.960   1.151   1.228   1.238   1.306   1.416
  1.418   1.439   1.530   1.636   1.708   1.731   1.807   1.852
  1.862   1.924   1.956   2.000   2.026   2.029   2.038   2.053
  2.090   2.100   2.130   2.194   2.195   2.288   2.368   2.375
  2.493   2.571   2.643   2.685   2.691   2.723   2.770   2.859
  2.876   2.909   2.984   3.167   3.210   3.330   3.412   3.459
  3.465   3.504   3.898   4.324   4.490   4.612
 --------------------------------------------------------------
 
          Ground-State Mulliken Net Atomic Charges

     Atom                 Charge (a.u.)    Spin (a.u.)
  --------------------------------------------------------
      1 F                    -0.395381       0.000000
      2 C                     0.177552       0.000000
      3 C                    -0.324854      -0.000000
      4 C                    -0.324852      -0.000000
      5 H                     0.119296      -0.000000
      6 H                     0.135878       0.000000
      7 H                     0.108679       0.000000
      8 H                     0.129562       0.000000
      9 H                     0.135876       0.000000
     10 H                     0.108680      -0.000000
     11 H                     0.129564      -0.000000
  --------------------------------------------------------
  Sum of atomic charges =     0.000000
  Sum of spin   charges =    -0.000000

 -----------------------------------------------------------------
                    Cartesian Multipole Moments
 -----------------------------------------------------------------
    Charge (ESU x 10^10)
                 0.0000
    Dipole Moment (Debye)
         X       0.0020      Y      -2.8280      Z      -0.7506
       Tot       2.9259
    Quadrupole Moments (Debye-Ang)
        XX     -23.4321     XY       0.0033     YY     -28.2671
        XZ       0.0003     YZ      -0.4785     ZZ     -23.8671
    Octopole Moments (Debye-Ang^2)
       XXX      -0.0119    XXY       4.2751    XYY       0.0009
       YYY       5.6112    XXZ      -0.5308    XYZ       0.0003
       YYZ      -1.0827    XZZ      -0.0035    YZZ       3.6334
       ZZZ      -0.1501
    Hexadecapole Moments (Debye-Ang^3)
      XXXX    -191.1594   XXXY      -0.0127   XXYY     -57.2109
      XYYY      -0.0148   YYYY    -149.4921   XXXZ       0.0015
      XXYZ      -0.3292   XYYZ      -0.0016   YYYZ       2.0140
      XXZZ     -41.6131   XYZZ      -0.0053   YYZZ     -33.6797
      XZZZ       0.0021   YZZZ      -1.3654   ZZZZ     -48.2971
 -----------------------------------------------------------------
 Calculating analytic gradient of the SCF energy
 Gradient of SCF Energy
            1           2           3           4           5           6
    1  -0.0000489   0.0000486   0.0002117  -0.0002116   0.0000002  -0.0000032
    2   0.0685775  -0.0684614   0.0002555   0.0002554  -0.0004539  -0.0000484
    3   0.0247919  -0.0244335  -0.0000424  -0.0000423  -0.0000669   0.0000656
            7           8           9          10          11
    1   0.0002233  -0.0001185   0.0000031  -0.0002232   0.0001184
    2  -0.0000324  -0.0000062  -0.0000479  -0.0000321  -0.0000062
    3  -0.0001582  -0.0000105   0.0000657  -0.0001586  -0.0000106
 Max gradient component =       6.858E-02
 RMS gradient           =       1.792E-02
 Gradient time:  CPU 7.30 s  wall 0.79 s
 Geometry Optimization Parameters
   NAtoms,    NIC,     NZ,  NCons,   NDum,   NFix, NCnnct, MaxDiis
       11      68       0       1       0       0       0       0

 Cartesian Hessian Update
 Hessian Updated using BFGS Update


** CONSTRAINED OPTIMIZATION IN DELOCALIZED INTERNAL COORDINATES **
   Searching for a Minimum

   Optimization Cycle:   4

                       Coordinates (Angstroms)
     ATOM                X               Y               Z
      1  F        -0.0010166911    1.4868854334    0.1739018649
      2  C         0.0001196824   -0.1119366904   -0.4038227389
      3  C        -1.2845838950   -0.6785853619    0.1184428167
      4  C         1.2856324958   -0.6767790965    0.1184091645
      5  H        -0.0000172257    0.0587401205   -1.4804571221
      6  H        -2.1336992740   -0.0786611042   -0.2137798220
      7  H        -1.4150532881   -1.7016902736   -0.2570754840
      8  H        -1.2771798282   -0.7098489332    1.2107337135
      9  H         2.1339033845   -0.0756936589   -0.2138715752
     10  H         1.4174809557   -1.6997123673   -0.2570835212
     11  H         1.2783156837   -0.7080170680    1.2107017038
   Point Group: c1    Number of degrees of freedom:    27


   Energy is   -218.360900866

              Constraints and their Current Values
                                        Value     Constraint
   Distance(Angs):        1   2             1.700000     1.700000
 Hessian Updated using BFGS Update

 23 Hessian modes will be used to form the next step
  Hessian Eigenvalues:
     0.032061    0.045000    0.045006    0.083522    0.084006    0.084013
     0.084115    0.084430    0.123699    0.159971    0.160000    0.160194
     0.181669    0.182633    0.230238    0.318848    0.329556    0.340706
     0.341990    0.344300    0.344318    0.345657    0.347859

 Minimum Search - Taking Simple RFO Step
 Searching for Lamda that Minimizes Along All modes
 Value Taken    Lamda =  -0.00001069
 Step Taken.  Stepsize is  0.014979

                             Maximum     Tolerance    Cnvgd?
         Gradient           0.000857      0.000300      NO
         Displacement       0.009609      0.001200      NO
         Energy change     -0.000132      0.000001      NO


 New Cartesian Coordinates Obtained by Inverse Iteration

 Displacement from previous Coordinates is:  0.018892
 ----------------------------------------------------------------
             Standard Nuclear Orientation (Angstroms)
    I     Atom           X                Y                Z
 ----------------------------------------------------------------
    1      F      -0.0010140466     1.4840416452     0.1739637276
    2      C       0.0001209403    -0.1141913153    -0.4053887636
    3      C      -1.2853315822    -0.6790107307     0.1181038282
    4      C       1.2863800376    -0.6772035064     0.1180704901
    5      H      -0.0000194655     0.0611333261    -1.4811870074
    6      H      -2.1332217841    -0.0767909078    -0.2132496869
    7      H      -1.4204886128    -1.7020387406    -0.2558095563
    8      H      -1.2755315884    -0.7095963984     1.2103915273
    9      H       2.1334224909    -0.0738263056    -0.2133454654
   10      H       1.4229170024    -1.7000564046    -0.2558103150
   11      H       1.2766686085    -0.7077596620     1.2103602215
 ----------------------------------------------------------------
 Nuclear Repulsion Energy =   127.0727651652 hartrees
 There are       17 alpha and       17 beta electrons

                       Distance Matrix (Angstroms)
             F (  1)   C (  2)   C (  3)   C (  4)   H (  5)   H (  6)
   C (  2)  1.700000
   C (  3)  2.516225  1.498484
   C (  4)  2.516245  1.498484  2.571712
   H (  5)  2.182703  1.089991  2.181186  2.181190
   H (  6)  2.670663  2.142304  1.091504  3.487685  2.485405
   H (  7)  3.514359  2.135829  1.097572  2.918426  2.574502  1.775171
   H (  8)  2.740552  2.143022  1.092760  2.785248  3.076613  1.778435
   H (  9)  2.670727  2.142308  3.487691  1.091504  2.485400  4.266645
   H ( 10)  3.514366  2.135811  2.918383  1.097569  2.574507  3.909338
   H ( 11)  2.740544  2.143022  2.785264  1.092760  3.076614  3.748618
             H (  7)   H (  8)   H (  9)   H ( 10)
   H (  8)  1.776429
   H (  9)  3.909369  3.748626
   H ( 10)  2.843406  3.226823  1.775175
   H ( 11)  3.226903  2.552201  1.778437  1.776428
 
 Applying Cartesian multipole field
    Component          Value
    ---------          -----
     (2,0,0)        1.00000E-11
     (0,2,0)        2.00000E-11
     (0,0,2)       -3.00000E-10
 Nucleus-field energy     =    -0.0000000037 hartrees
 Requested basis set is 6-31G(d,p)
 There are 37 shells and 95 basis functions
 A cutoff of  1.0D-14 yielded    695 shell pairs
 There are      4665 function pairs
 Smallest overlap matrix eigenvalue = 4.63E-03
 Guess from superposition of atomic densities
 Warning:  Energy on first SCF cycle will be non-variational
 SAD guess density has 34.000000 electrons

 -----------------------------------------------------------------------
  General SCF calculation program by
  Eric Jon Sundstrom, Paul Horn, Yuezhi Mao, Dmitri Zuev, Alec White,
  David Stuck, Shaama M.S., Shane Yost, Joonho Lee, David Small,
  Daniel Levine, Susi Lehtola, Hugh Burton, Evgeny Epifanovsky
 -----------------------------------------------------------------------
 Exchange:     0.2000 Hartree-Fock + 0.0800 Slater + 0.7200 B88
 Correlation:  0.1900 VWN1RPA + 0.8100 LYP
 Using SG-1 standard quadrature grid
 using 12 threads for integral computing
 -------------------------------------------------------
 OpenMP Integral computing Module                
 Release: version 1.0, May 2013, Q-Chem Inc. Pittsburgh 
 -------------------------------------------------------
 -------------------------------------------------------
 OpenMP BLAS3 based DFT computing Module                
 Release: version 1.0, May 2013, Q-Chem Inc. Pittsburgh 
 -------------------------------------------------------
 A unrestricted SCF calculation will be
 performed using DIIS
 SCF converges when DIIS error is below 1.0e-06
 Alpha HF Exchange    Energy =  -2.79679040206158
 Beta HF Exchange     Energy =  -2.79679040206158
 DFT Correlation      Energy =  -1.44001959014788
 DFT Exchange         Energy = -21.85745014608706
 One-Electron (alpha) Energy = -273.13319228561761
 One-Electron (beta)  Energy = -273.13319228561761
 Total Coulomb        Energy = 229.51977509600977
 ---------------------------------------
  Cycle       Energy         DIIS error
 ---------------------------------------
    1    -218.5648948540      3.05e-02  
 Alpha HF Exchange    Energy =  -2.84262332714051
 Beta HF Exchange     Energy =  -2.84262332714051
 DFT Correlation      Energy =  -1.46975098152644
 DFT Exchange         Energy = -22.57164798171502
 One-Electron (alpha) Energy = -276.76331626657651
 One-Electron (beta)  Energy = -276.76331626657645
 Total Coulomb        Energy = 237.92160982943457
    2    -218.2589031597      4.96e-03  
 Alpha HF Exchange    Energy =  -2.75525051759177
 Beta HF Exchange     Energy =  -2.75525051759177
 DFT Correlation      Energy =  -1.44155984122859
 DFT Exchange         Energy = -21.88968594911190
 One-Electron (alpha) Energy = -272.98863597642082
 One-Electron (beta)  Energy = -272.98863597642065
 Total Coulomb        Energy = 229.55711829318403
    3    -218.1891353236      7.03e-03  
 Alpha HF Exchange    Energy =  -2.80355620773444
 Beta HF Exchange     Energy =  -2.80355620773444
 DFT Correlation      Energy =  -1.45459971826721
 DFT Exchange         Energy = -22.25637328103712
 One-Electron (alpha) Energy = -274.85819875020678
 One-Electron (beta)  Energy = -274.85819875020684
 Total Coulomb        Energy = 233.61037595922667
    4    -218.3513417944      1.57e-03  
 Alpha HF Exchange    Energy =  -2.80207148385017
 Beta HF Exchange     Energy =  -2.80207148385018
 DFT Correlation      Energy =  -1.45633635021659
 DFT Exchange         Energy = -22.25344481675258
 One-Electron (alpha) Energy = -275.03774307551208
 One-Electron (beta)  Energy = -275.03774307551220
 Total Coulomb        Energy = 233.95590709462249
    5    -218.3607380295      2.16e-04  
 Alpha HF Exchange    Energy =  -2.80247843730568
 Beta HF Exchange     Energy =  -2.80247843730568
 DFT Correlation      Energy =  -1.45620288967408
 DFT Exchange         Energy = -22.25576692772980
 One-Electron (alpha) Energy = -275.02301410075665
 One-Electron (beta)  Energy = -275.02301410075648
 Total Coulomb        Energy = 233.92928621225187
    6    -218.3609035197      3.00e-05  
 Alpha HF Exchange    Energy =  -2.80249199179336
 Beta HF Exchange     Energy =  -2.80249199179336
 DFT Correlation      Energy =  -1.45620145986252
 DFT Exchange         Energy = -22.25577097685902
 One-Electron (alpha) Energy = -275.02278726486469
 One-Electron (beta)  Energy = -275.02278726486452
 Total Coulomb        Energy = 233.92885864855276
    7    -218.3609071399      6.30e-06  
 Alpha HF Exchange    Energy =  -2.80251978034767
 Beta HF Exchange     Energy =  -2.80251978034766
 DFT Correlation      Energy =  -1.45621214146272
 DFT Exchange         Energy = -22.25600384965986
 One-Electron (alpha) Energy = -275.02484600013958
 One-Electron (beta)  Energy = -275.02484600013929
 Total Coulomb        Energy = 233.93327509612831
    8    -218.3609072944      1.91e-06  
 Alpha HF Exchange    Energy =  -2.80251730188368
 Beta HF Exchange     Energy =  -2.80251730188369
 DFT Correlation      Energy =  -1.45621041648017
 DFT Exchange         Energy = -22.25597486548516
 One-Electron (alpha) Energy = -275.02443265696525
 One-Electron (beta)  Energy = -275.02443265696547
 Total Coulomb        Energy = 233.93241272869503
    9    -218.3609073094      3.90e-07  Convergence criterion met
 ---------------------------------------
 SCF time:   CPU 19.67s  wall 2.00s 
<S^2> =          0.000000000
 Alpha HF Exchange    Energy =  -2.80251730188368
 Beta HF Exchange     Energy =  -2.80251730188369
 DFT Correlation      Energy =  -1.45621041648017
 DFT Exchange         Energy = -22.25597486548516
 One-Electron (alpha) Energy = -275.02443265696525
 One-Electron (beta)  Energy = -275.02443265696547
 Total Coulomb        Energy = 233.93241272869503
 Nuclear repulsion Energy = 127.07276516155530
 SCF   energy in the final basis set =     -218.3609073094
 Total energy in the final basis set =     -218.3609073094
 
 --------------------------------------------------------------
 
                    Orbital Energies (a.u.)
 --------------------------------------------------------------
 
 Alpha MOs
 -- Occupied --
-24.611 -10.272 -10.192 -10.192  -1.062  -0.801  -0.708  -0.590
 -0.477  -0.452  -0.431  -0.404  -0.372  -0.371  -0.351  -0.304
 -0.304
 -- Virtual --
  0.018   0.091   0.127   0.142   0.160   0.161   0.175   0.181
  0.225   0.265   0.484   0.500   0.531   0.559   0.583   0.636
  0.682   0.690   0.726   0.810   0.853   0.866   0.875   0.875
  0.913   0.938   0.960   1.151   1.228   1.238   1.304   1.416
  1.419   1.440   1.530   1.635   1.708   1.731   1.808   1.851
  1.862   1.924   1.956   2.000   2.026   2.029   2.038   2.053
  2.091   2.100   2.130   2.195   2.195   2.288   2.368   2.375
  2.493   2.571   2.642   2.685   2.691   2.724   2.771   2.859
  2.875   2.910   2.985   3.167   3.210   3.330   3.412   3.459
  3.465   3.504   3.898   4.325   4.491   4.612
 
 Beta MOs
 -- Occupied --
-24.611 -10.272 -10.192 -10.192  -1.062  -0.801  -0.708  -0.590
 -0.477  -0.452  -0.431  -0.404  -0.372  -0.371  -0.351  -0.304
 -0.304
 -- Virtual --
  0.018   0.091   0.127   0.142   0.160   0.161   0.175   0.181
  0.225   0.265   0.484   0.500   0.531   0.559   0.583   0.636
  0.682   0.690   0.726   0.810   0.853   0.866   0.875   0.875
  0.913   0.938   0.960   1.151   1.228   1.238   1.304   1.416
  1.419   1.440   1.530   1.635   1.708   1.731   1.808   1.851
  1.862   1.924   1.956   2.000   2.026   2.029   2.038   2.053
  2.091   2.100   2.130   2.195   2.195   2.288   2.368   2.375
  2.493   2.571   2.642   2.685   2.691   2.724   2.771   2.859
  2.875   2.910   2.985   3.167   3.210   3.330   3.412   3.459
  3.465   3.504   3.898   4.325   4.491   4.612
 --------------------------------------------------------------
 
          Ground-State Mulliken Net Atomic Charges

     Atom                 Charge (a.u.)    Spin (a.u.)
  --------------------------------------------------------
      1 F                    -0.395657      -0.000000
      2 C                     0.177354       0.000000
      3 C                    -0.324831      -0.000000
      4 C                    -0.324829      -0.000000
      5 H                     0.119509      -0.000000
      6 H                     0.135948       0.000000
      7 H                     0.108688      -0.000000
      8 H                     0.129590      -0.000000
      9 H                     0.135946       0.000000
     10 H                     0.108689       0.000000
     11 H                     0.129592       0.000000
  --------------------------------------------------------
  Sum of atomic charges =     0.000000
  Sum of spin   charges =    -0.000000

 -----------------------------------------------------------------
                    Cartesian Multipole Moments
 -----------------------------------------------------------------
    Charge (ESU x 10^10)
                 0.0000
    Dipole Moment (Debye)
         X       0.0020      Y      -2.8240      Z      -0.7522
       Tot       2.9225
    Quadrupole Moments (Debye-Ang)
        XX     -23.4286     XY       0.0033     YY     -28.2547
        XZ       0.0003     YZ      -0.4850     ZZ     -23.8657
[...]
      5  H        -0.0000194655    0.0611333261   -1.4811870074
      6  H        -2.1332217841   -0.0767909078   -0.2132496869
      7  H        -1.4204886128   -1.7020387406   -0.2558095563
      8  H        -1.2755315884   -0.7095963984    1.2103915273
      9  H         2.1334224909   -0.0738263056   -0.2133454654
     10  H         1.4229170024   -1.7000564046   -0.2558103150
     11  H         1.2766686085   -0.7077596620    1.2103602215
   Point Group: c1    Number of degrees of freedom:    27


   Energy is   -218.360907309

              Constraints and their Current Values
                                        Value     Constraint
   Distance(Angs):        1   2             1.700000     1.700000
 Hessian Updated using BFGS Update

 23 Hessian modes will be used to form the next step
  Hessian Eigenvalues:
     0.030231    0.045000    0.045099    0.081289    0.083522    0.084006
     0.084037    0.084622    0.156925    0.160000    0.160595    0.169982
     0.181669    0.227637    0.315449    0.318848    0.340706    0.342270
     0.344318    0.344337    0.345648    0.345754    0.347640

 Minimum Search - Taking Simple RFO Step
 Searching for Lamda that Minimizes Along All modes
 Value Taken    Lamda =  -0.00000114
 Step Taken.  Stepsize is  0.004169

                             Maximum     Tolerance    Cnvgd?
         Gradient           0.000261      0.000300     YES
         Displacement       0.002842      0.001200      NO
         Energy change     -0.000006      0.000001      NO


 New Cartesian Coordinates Obtained by Inverse Iteration

 Displacement from previous Coordinates is:  0.006045
 ----------------------------------------------------------------
             Standard Nuclear Orientation (Angstroms)
    I     Atom           X                Y                Z
 ----------------------------------------------------------------
    1      F      -0.0010130777     1.4833468070     0.1743104963
    2      C       0.0001210059    -0.1145155803    -0.4060632608
    3      C      -1.2853785904    -0.6793517813     0.1178760192
    4      C       1.2864270660    -0.6775440826     0.1178431465
    5      H      -0.0000202665     0.0619307794    -1.4816735248
    6      H      -2.1329012555    -0.0762856980    -0.2129163629
    7      H      -1.4218689244    -1.7023752421    -0.2553110565
    8      H      -1.2744958225    -0.7093148878     1.2101926148
    9      H       2.1331012089    -0.0733238362    -0.2130160201
   10      H       1.4242965965    -1.7003931339    -0.2553051196
   11      H       1.2756340596    -0.7074723441     1.2101620679
 ----------------------------------------------------------------
 Nuclear Repulsion Energy =   127.0733077911 hartrees
 There are       17 alpha and       17 beta electrons

                       Distance Matrix (Angstroms)
             F (  1)   C (  2)   C (  3)   C (  4)   H (  5)   H (  6)
   C (  2)  1.700000
   C (  3)  2.515958  1.498687
   C (  4)  2.515977  1.498687  2.571806
   H (  5)  2.182363  1.089987  2.181789  2.181794
   H (  6)  2.669709  2.142090  1.091516  3.487509  2.485564
   H (  7)  3.514574  2.136839  1.097486  2.919656  2.576508  1.775255
   H (  8)  2.739083  2.142596  1.092782  2.784342  3.076565  1.778433
   H (  9)  2.669773  2.142094  3.487515  1.091516  2.485557  4.266003
   H ( 10)  3.514581  2.136823  2.919611  1.097482  2.576518  3.910649
   H ( 11)  2.739070  2.142596  2.784361  1.092782  3.076565  3.747221
             H (  7)   H (  8)   H (  9)   H ( 10)
   H (  8)  1.776398
   H (  9)  3.910679  3.747229
   H ( 10)  2.846166  3.226980  1.775260
   H ( 11)  3.227068  2.550131  1.778435  1.776397
 
 Applying Cartesian multipole field
    Component          Value
    ---------          -----
     (2,0,0)        1.00000E-11
     (0,2,0)        2.00000E-11
     (0,0,2)       -3.00000E-10
 Nucleus-field energy     =    -0.0000000037 hartrees
 Requested basis set is 6-31G(d,p)
 There are 37 shells and 95 basis functions
 A cutoff of  1.0D-14 yielded    695 shell pairs
 There are      4665 function pairs
 Smallest overlap matrix eigenvalue = 4.63E-03
 Guess from superposition of atomic densities
 Warning:  Energy on first SCF cycle will be non-variational
 SAD guess density has 34.000000 electrons

 -----------------------------------------------------------------------
  General SCF calculation program by
  Eric Jon Sundstrom, Paul Horn, Yuezhi Mao, Dmitri Zuev, Alec White,
  David Stuck, Shaama M.S., Shane Yost, Joonho Lee, David Small,
  Daniel Levine, Susi Lehtola, Hugh Burton, Evgeny Epifanovsky
 -----------------------------------------------------------------------
 Exchange:     0.2000 Hartree-Fock + 0.0800 Slater + 0.7200 B88
 Correlation:  0.1900 VWN1RPA + 0.8100 LYP
 Using SG-1 standard quadrature grid
 using 12 threads for integral computing
 -------------------------------------------------------
 OpenMP Integral computing Module                
 Release: version 1.0, May 2013, Q-Chem Inc. Pittsburgh 
 -------------------------------------------------------
 -------------------------------------------------------
 OpenMP BLAS3 based DFT computing Module                
 Release: version 1.0, May 2013, Q-Chem Inc. Pittsburgh 
 -------------------------------------------------------
 A unrestricted SCF calculation will be
 performed using DIIS
 SCF converges when DIIS error is below 1.0e-06
 Alpha HF Exchange    Energy =  -2.79675154832565
 Beta HF Exchange     Energy =  -2.79675154832565
 DFT Correlation      Energy =  -1.44001475588896
 DFT Exchange         Energy = -21.85737686145647
 One-Electron (alpha) Energy = -273.13386242185226
 One-Electron (beta)  Energy = -273.13386242185226
 Total Coulomb        Energy = 229.52079273045172
 ---------------------------------------
  Cycle       Energy         DIIS error
 ---------------------------------------
    1    -218.5645190398      3.05e-02  
 Alpha HF Exchange    Energy =  -2.84260877797056
 Beta HF Exchange     Energy =  -2.84260877797056
 DFT Correlation      Energy =  -1.46974330772707
 DFT Exchange         Energy = -22.57153424599149
 One-Electron (alpha) Energy = -276.76359795160738
 One-Electron (beta)  Energy = -276.76359795160732
 Total Coulomb        Energy = 237.92147263530970
    2    -218.2589105901      4.96e-03  
 Alpha HF Exchange    Energy =  -2.75524299697291
 Beta HF Exchange     Energy =  -2.75524299697291
 DFT Correlation      Energy =  -1.44155871541487
 DFT Exchange         Energy = -21.88964035280088
 One-Electron (alpha) Energy = -272.98984660855501
 One-Electron (beta)  Energy = -272.98984660855513
 Total Coulomb        Energy = 229.55896286927896
    3    -218.1891076225      7.03e-03  
 Alpha HF Exchange    Energy =  -2.80354442652961
 Beta HF Exchange     Energy =  -2.80354442652961
 DFT Correlation      Energy =  -1.45459440594875
 DFT Exchange         Energy = -22.25628260910144
 One-Electron (alpha) Energy = -274.85889909478681
 One-Electron (beta)  Energy = -274.85889909478675
 Total Coulomb        Energy = 233.61111730620405
    4    -218.3513389640      1.57e-03  
 Alpha HF Exchange    Energy =  -2.80205948145912
 Beta HF Exchange     Energy =  -2.80205948145912
 DFT Correlation      Energy =  -1.45633135402487
 DFT Exchange         Energy = -22.25335514876523
 One-Electron (alpha) Energy = -275.03841042306078
 One-Electron (beta)  Energy = -275.03841042306067
 Total Coulomb        Energy = 233.95657982303700
    5    -218.3607387013      2.16e-04  
 Alpha HF Exchange    Energy =  -2.80246690113262
 Beta HF Exchange     Energy =  -2.80246690113262
 DFT Correlation      Energy =  -1.45619809078782
 DFT Exchange         Energy = -22.25568151145576
 One-Electron (alpha) Energy = -275.02373520524446
 One-Electron (beta)  Energy = -275.02373520524441
 Total Coulomb        Energy = 233.93007185230971
    6    -218.3609041752      3.00e-05  
 Alpha HF Exchange    Energy =  -2.80247988108156
 Beta HF Exchange     Energy =  -2.80247988108156
 DFT Correlation      Energy =  -1.45619642025524
 DFT Exchange         Energy = -22.25568057251911
 One-Electron (alpha) Energy = -275.02345955553807
 One-Electron (beta)  Energy = -275.02345955553795
 Total Coulomb        Energy = 233.92954027544113
    7    -218.3609078031      6.36e-06  
 Alpha HF Exchange    Energy =  -2.80250786387304
 Beta HF Exchange     Energy =  -2.80250786387304
 DFT Correlation      Energy =  -1.45620718709787
 DFT Exchange         Energy = -22.25591517212585
 One-Electron (alpha) Energy = -275.02553606249933
 One-Electron (beta)  Energy = -275.02553606249910
 Total Coulomb        Energy = 233.93399446410822
    8    -218.3609079604      1.91e-06  
 Alpha HF Exchange    Energy =  -2.80250541476698
 Beta HF Exchange     Energy =  -2.80250541476698
 DFT Correlation      Energy =  -1.45620547012529
 DFT Exchange         Energy = -22.25588640522446
 One-Electron (alpha) Energy = -275.02512399023175
 One-Electron (beta)  Energy = -275.02512399023175
 Total Coulomb        Energy = 233.93313492242538
    9    -218.3609079754      3.89e-07  Convergence criterion met
 ---------------------------------------
 SCF time:   CPU 19.52s  wall 2.00s 
<S^2> =          0.000000000
 Alpha HF Exchange    Energy =  -2.80250541476698
 Beta HF Exchange     Energy =  -2.80250541476698
 DFT Correlation      Energy =  -1.45620547012529
 DFT Exchange         Energy = -22.25588640522446
 One-Electron (alpha) Energy = -275.02512399023175
 One-Electron (beta)  Energy = -275.02512399023175
 Total Coulomb        Energy = 233.93313492242538
 Nuclear repulsion Energy = 127.07330778747237
 SCF   energy in the final basis set =     -218.3609079754
 Total energy in the final basis set =     -218.3609079754
 
 --------------------------------------------------------------
 
                    Orbital Energies (a.u.)
 --------------------------------------------------------------
 
 Alpha MOs
 -- Occupied --
-24.611 -10.272 -10.192 -10.192  -1.062  -0.800  -0.708  -0.590
 -0.477  -0.451  -0.431  -0.404  -0.371  -0.371  -0.351  -0.304
 -0.304
 -- Virtual --
  0.018   0.091   0.127   0.142   0.160   0.161   0.175   0.181
  0.225   0.265   0.484   0.500   0.531   0.560   0.583   0.636
  0.682   0.690   0.726   0.810   0.853   0.866   0.875   0.875
  0.913   0.938   0.960   1.151   1.228   1.238   1.303   1.416
  1.419   1.440   1.530   1.635   1.708   1.732   1.809   1.850
  1.862   1.924   1.956   2.000   2.026   2.029   2.038   2.053
  2.091   2.100   2.130   2.195   2.195   2.288   2.369   2.375
  2.492   2.570   2.642   2.686   2.691   2.724   2.771   2.860
  2.875   2.910   2.985   3.167   3.210   3.330   3.412   3.459
  3.465   3.504   3.898   4.325   4.491   4.612
 
 Beta MOs
 -- Occupied --
-24.611 -10.272 -10.192 -10.192  -1.062  -0.800  -0.708  -0.590
 -0.477  -0.451  -0.431  -0.404  -0.371  -0.371  -0.351  -0.304
 -0.304
 -- Virtual --
  0.018   0.091   0.127   0.142   0.160   0.161   0.175   0.181
  0.225   0.265   0.484   0.500   0.531   0.560   0.583   0.636
  0.682   0.690   0.726   0.810   0.853   0.866   0.875   0.875
  0.913   0.938   0.960   1.151   1.228   1.238   1.303   1.416
  1.419   1.440   1.530   1.635   1.708   1.732   1.809   1.850
  1.862   1.924   1.956   2.000   2.026   2.029   2.038   2.053
  2.091   2.100   2.130   2.195   2.195   2.288   2.369   2.375
  2.492   2.570   2.642   2.686   2.691   2.724   2.771   2.860
  2.875   2.910   2.985   3.167   3.210   3.330   3.412   3.459
  3.465   3.504   3.898   4.325   4.491   4.612
 --------------------------------------------------------------
 
          Ground-State Mulliken Net Atomic Charges

     Atom                 Charge (a.u.)    Spin (a.u.)
  --------------------------------------------------------
      1 F                    -0.395659       0.000000
      2 C                     0.177219      -0.000000
      3 C                    -0.324821       0.000000
      4 C                    -0.324819       0.000000
      5 H                     0.119565      -0.000000
      6 H                     0.135934      -0.000000
      7 H                     0.108730      -0.000000
      8 H                     0.129594      -0.000000
      9 H                     0.135931      -0.000000
     10 H                     0.108731      -0.000000
     11 H                     0.129596       0.000000
  --------------------------------------------------------
  Sum of atomic charges =     0.000000
  Sum of spin   charges =     0.000000

 -----------------------------------------------------------------
                    Cartesian Multipole Moments
 -----------------------------------------------------------------
    Charge (ESU x 10^10)
                 0.0000
    Dipole Moment (Debye)
         X       0.0020      Y      -2.8222      Z      -0.7531
       Tot       2.9209
    Quadrupole Moments (Debye-Ang)
        XX     -23.4313     XY       0.0033     YY     -28.2491
        XZ       0.0003     YZ      -0.4867     ZZ     -23.8660
    Octopole Moments (Debye-Ang^2)
       XXX      -0.0120    XXY       4.2896    XYY       0.0008
       YYY       5.7296    XXZ      -0.5294    XYZ       0.0003
       YYZ      -1.0658    XZZ      -0.0035    YZZ       3.6777
       ZZZ      -0.1246
    Hexadecapole Moments (Debye-Ang^3)
      XXXX    -191.4103   XXXY      -0.0131   XXYY     -57.1395
      XYYY      -0.0150   YYYY    -149.2025   XXXZ       0.0014
      XXYZ      -0.3221   XYYZ      -0.0015   YYYZ       1.9967
      XXZZ     -41.6813   XYZZ      -0.0053   YYZZ     -33.6529
      XZZZ       0.0021   YZZZ      -1.3846   ZZZZ     -48.3250
 -----------------------------------------------------------------
 Calculating analytic gradient of the SCF energy
 Gradient of SCF Energy
            1           2           3           4           5           6
    1  -0.0000486   0.0000485   0.0000242  -0.0000242  -0.0000002   0.0000005
    2   0.0683021  -0.0683616   0.0000887   0.0000888  -0.0000085  -0.0000184
    3   0.0247542  -0.0247800   0.0000456   0.0000455  -0.0000042  -0.0000266
            7           8           9          10          11
    1  -0.0000144   0.0000078  -0.0000006   0.0000148  -0.0000078
    2  -0.0000098  -0.0000270  -0.0000179  -0.0000094  -0.0000270
    3  -0.0000041   0.0000002  -0.0000265  -0.0000044   0.0000002
 Max gradient component =       6.836E-02
 RMS gradient           =       1.789E-02
 Gradient time:  CPU 7.34 s  wall 0.77 s
 Geometry Optimization Parameters
   NAtoms,    NIC,     NZ,  NCons,   NDum,   NFix, NCnnct, MaxDiis
       11      68       0       1       0       0       0       0

 Cartesian Hessian Update
 Hessian Updated using BFGS Update


** CONSTRAINED OPTIMIZATION IN DELOCALIZED INTERNAL COORDINATES **
   Searching for a Minimum

   Optimization Cycle:   6

                       Coordinates (Angstroms)
     ATOM                X               Y               Z
      1  F        -0.0010130777    1.4833468070    0.1743104963
      2  C         0.0001210059   -0.1145155803   -0.4060632608
      3  C        -1.2853785904   -0.6793517813    0.1178760192
      4  C         1.2864270660   -0.6775440826    0.1178431465
      5  H        -0.0000202665    0.0619307794   -1.4816735248
      6  H        -2.1329012555   -0.0762856980   -0.2129163629
      7  H        -1.4218689244   -1.7023752421   -0.2553110565
      8  H        -1.2744958225   -0.7093148878    1.2101926148
      9  H         2.1331012089   -0.0733238362   -0.2130160201
     10  H         1.4242965965   -1.7003931339   -0.2553051196
     11  H         1.2756340596   -0.7074723441    1.2101620679
   Point Group: c1    Number of degrees of freedom:    27


   Energy is   -218.360907975

              Constraints and their Current Values
                                        Value     Constraint
   Distance(Angs):        1   2             1.700000     1.700000
 Hessian Updated using BFGS Update

 24 Hessian modes will be used to form the next step
  Hessian Eigenvalues:
     0.030355    0.044173    0.045000    0.065601    0.083522    0.084043
     0.084539    0.123699    0.156443    0.160000    0.160000    0.161123
     0.181666    0.181751    0.228206    0.309863    0.318848    0.340706
     0.342233    0.344318    0.344347    0.345651    0.345754    0.347908

 Minimum Search - Taking Simple RFO Step
 Searching for Lamda that Minimizes Along All modes
 Value Taken    Lamda =   0.00000000
 Step Taken.  Stepsize is  0.001488

                             Maximum     Tolerance    Cnvgd?
         Gradient           0.000061      0.000300     YES
         Displacement       0.000787      0.001200     YES
         Energy change     -0.000001      0.000001     YES


                       Distance Matrix (Angstroms)
             F (  1)   C (  2)   C (  3)   C (  4)   H (  5)   H (  6)
   C (  2)  1.700000
   C (  3)  2.515958  1.498687
   C (  4)  2.515977  1.498687  2.571806
   H (  5)  2.182363  1.089987  2.181789  2.181794
   H (  6)  2.669709  2.142090  1.091516  3.487509  2.485564
   H (  7)  3.514574  2.136839  1.097486  2.919656  2.576508  1.775255
   H (  8)  2.739083  2.142596  1.092782  2.784342  3.076565  1.778433
   H (  9)  2.669773  2.142094  3.487515  1.091516  2.485557  4.266003
   H ( 10)  3.514581  2.136823  2.919611  1.097482  2.576518  3.910649
   H ( 11)  2.739070  2.142596  2.784361  1.092782  3.076565  3.747221
             H (  7)   H (  8)   H (  9)   H ( 10)
   H (  8)  1.776398
   H (  9)  3.910679  3.747229
   H ( 10)  2.846166  3.226980  1.775260
   H ( 11)  3.227068  2.550131  1.778435  1.776397
 
 Final energy is   -218.360907975449     


 ******************************
 **  OPTIMIZATION CONVERGED  **
 ******************************

                       Coordinates (Angstroms)
     ATOM                X               Y               Z
      1  F        -0.0010130777    1.4833468070    0.1743104963
      2  C         0.0001210059   -0.1145155803   -0.4060632608
      3  C        -1.2853785904   -0.6793517813    0.1178760192
      4  C         1.2864270660   -0.6775440826    0.1178431465
      5  H        -0.0000202665    0.0619307794   -1.4816735248
      6  H        -2.1329012555   -0.0762856980   -0.2129163629
      7  H        -1.4218689244   -1.7023752421   -0.2553110565
      8  H        -1.2744958225   -0.7093148878    1.2101926148
      9  H         2.1331012089   -0.0733238362   -0.2130160201
     10  H         1.4242965965   -1.7003931339   -0.2553051196
     11  H         1.2756340596   -0.7074723441    1.2101620679

Z-matrix Print:
$molecule
0 1
C 
H  1 1.089987
C  1 1.498687 2 113.946728
H  3 1.091516 1 110.599425 2 -51.598400 0
H  3 1.092782 1 110.563297 2 -172.445860 0
H  3 1.097486 1 109.822947 2 67.982717 0
C  1 1.498687 2 113.947069 3 139.712910 0
H  7 1.091516 1 110.599730 2 51.595257 0
H  7 1.092782 1 110.563217 2 172.442984 0
H  7 1.097482 1 109.821867 2 -67.986146 0
F  1 1.700000 2 100.645969 3 -110.142854 0
$end

PES scan, value:    1.7000 energy: -218.3609079754
------- Summary of potential scan: ------ 
    1.7000      -218.3609079754
----------------------------------------- 
Archival summary:
1\1\hpc0244\JobtypUnspecified\ProcedureUnspecified\6-31G**\137\knomura\WedMar1313:54:002019WedMar1313:54:002019\0\\#,JobtypUnspecified,ProcedureUnspecified,6-31G**,\\0,1\C\H,1,1.08999\C,1,1.49869,2,113.947\H,3,1.09152,1,110.599,2,-51.5984,0\H,3,1.09278,1,110.563,2,-172.446,0\H,3,1.09749,1,109.823,2,67.9827,0\C,1,1.49869,2,113.947,3,139.713,0\H,7,1.09152,1,110.6,2,51.5953,0\H,7,1.09278,1,110.563,2,172.443,0\H,7,1.09748,1,109.822,2,-67.9861,0\F,1,1.7,2,100.646,3,-110.143,0\\\@

 Total job time:  19.34s(wall), 193.41s(cpu) 
 Wed Mar 13 13:54:00 2019

        *************************************************************
        *                                                           *
        *  Thank you very much for using Q-Chem.  Have a nice day.  *
        *                                                           *
        *************************************************************


