
Running Job 1 of 1 scan_ch4.xyz.data/inputs/bond_singlet_0.7.in
qchem scan_ch4.xyz.data/inputs/bond_singlet_0.7.in_30699.0 /staging/scratch/2851581/qchem30699/ 1
/usr/usc/qchem/5.1.1/exe/qcprog.exe_s scan_ch4.xyz.data/inputs/bond_singlet_0.7.in_30699.0 /staging/scratch/2851581/qchem30699/
Check license passed

                  Welcome to Q-Chem
     A Quantum Leap Into The Future Of Chemistry


 Q-Chem 5.1, Q-Chem, Inc., Pleasanton, CA (2018)

 Yihan Shao,  Zhengting Gan,  E. Epifanovsky,  A. T. B. Gilbert,  M. Wormit,  
 J. Kussmann,  A. W. Lange,  A. Behn,  Jia Deng,  Xintian Feng,  D. Ghosh,  
 M. Goldey,  P. R. Horn,  L. D. Jacobson,  I. Kaliman,  T. Kus,  A. Landau,  
 Jie Liu,  E. I. Proynov,  R. M. Richard,  R. P. Steele,  E. J. Sundstrom,  
 H. L. Woodcock III,  P. M. Zimmerman,  D. Zuev,  B. Albrecht,  E. Alguire,  
 S. A. Baeppler,  D. Barton,  Z. Benda,  Y. A. Bernard,  E. J. Berquist,  
 K. B. Bravaya,  H. Burton,  D. Casanova,  Chun-Min Chang,  Yunqing Chen,  
 A. Chien,  K. D. Closser,  M. P. Coons,  S. Coriani,  S. Dasgupta,  
 A. L. Dempwolff,  M. Diedenhofen,  Hainam Do,  R. G. Edgar,  Po-Tung Fang,  
 S. Faraji,  S. Fatehi,  Qingguo Feng,  K. D. Fenk,  J. Fosso-Tande,  
 Qinghui Ge,  A. Ghysels,  G. Gidofalvi,  J. Gomes,  J. Gonthier,  A. Gunina,  
 D. Hait,  M. W. D. Hanson-Heine,  P. H. P. Harbach,  A. W. Hauser,  
 J. E. Herr,  E. G. Hohenstein,  Z. C. Holden,  Kerwin Hui,  B. C. Huynh,  
 T.-C. Jagau,  Hyunjun Ji,  B. Kaduk,  K. Khistyaev,  Jaehoon Kim,  
 P. Klunzinger,  K. Koh,  D. Kosenkov,  L. Koulias,  T. Kowalczyk,  
 C. M. Krauter,  A. Kunitsa,  Ka Un Lao,  A. Laurent,  K. V. Lawler,  
 Joonho Lee,  D. Lefrancois,  S. Lehtola,  D. S. Levine,  Yi-Pei Li,  
 You-Sheng Lin,  Fenglai Liu,  E. Livshits,  A. Luenser,  P. Manohar,  
 E. Mansoor,  S. F. Manzer,  Shan-Ping Mao,  Yuezhi Mao,  N. Mardirossian,  
 A. V. Marenich,  T. Markovich,  L. A. Martinez-Martinez,  S. A. Maurer,  
 N. J. Mayhall,  S. C. McKenzie,  J.-M. Mewes,  A. F. Morrison,  
 J. W. Mullinax,  K. Nanda,  T. S. Nguyen-Beck,  R. Olivares-Amaya,  
 J. A. Parkhill,  T. M. Perrine,  F. Plasser,  P. Pokhilko,  S. Prager,  
 A. Prociuk,  E. Ramos,  D. R. Rehn,  F. Rob,  M. Schneider,  N. Sergueev,  
 S. M. Sharada,  S. Sharma,  D. W. Small,  T. Stauch,  T. Stein,  
 Yu-Chuan Su,  A. J. W. Thom,  A. Tkatchenko,  T. Tsuchimochi,  N. M. Tubman,  
 L. Vogt,  M. L. Vidal,  O. Vydrov,  M. A. Watson,  J. Wenzel,  
 M. de Wergifosse,  T. A. Wesolowski,  A. White,  J. Witte,  A. Yamada,  
 Jun Yang,  K. Yao,  S. Yeganeh,  S. R. Yost,  Zhi-Qiang You,  A. Zech,  
 Igor Ying Zhang,  Xing Zhang,  Yan Zhao,  Ying Zhu,  B. R. Brooks,  
 G. K. L. Chan,  C. J. Cramer,  M. S. Gordon,  W. J. Hehre,  A. Klamt,  
 M. W. Schmidt,  C. D. Sherrill,  D. G. Truhlar,  A. Aspuru-Guzik,  R. Baer,  
 A. T. Bell,  N. A. Besley,  Jeng-Da Chai,  A. E. DePrince, III,  
 R. A. DiStasio Jr.,  A. Dreuw,  B. D. Dunietz,  T. R. Furlani,  
 Chao-Ping Hsu,  Yousung Jung,  Jing Kong,  D. S. Lambrecht,  WanZhen Liang,  
 C. Ochsenfeld,  V. A. Rassolov,  L. V. Slipchenko,  J. E. Subotnik,  
 T. Van Voorhis,  J. M. Herbert,  A. I. Krylov,  P. M. W. Gill,  M. Head-Gordon

 Contributors to earlier versions of Q-Chem not listed above: 
 R. D. Adamson,  B. Austin,  J. Baker,  G. J. O. Beran,  K. Brandhorst,  
 S. T. Brown,  E. F. C. Byrd,  A. K. Chakraborty,  C.-L. Cheng,  
 Siu Hung Chien,  D. M. Chipman,  D. L. Crittenden,  H. Dachsel,  
 R. J. Doerksen,  A. D. Dutoi,  L. Fusti-Molnar,  W. A. Goddard III,  
 A. Golubeva-Zadorozhnaya,  S. R. Gwaltney,  G. Hawkins,  A. Heyden,  
 S. Hirata,  G. Kedziora,  F. J. Keil,  C. Kelley,  Jihan Kim,  R. A. King,  
 R. Z. Khaliullin,  P. P. Korambath,  W. Kurlancheek,  A. M. Lee,  M. S. Lee,  
 S. V. Levchenko,  Ching Yeh Lin,  D. Liotard,  R. C. Lochan,  I. Lotan,  
 P. E. Maslen,  N. Nair,  D. P. O'Neill,  D. Neuhauser,  E. Neuscamman,  
 C. M. Oana,  R. Olson,  B. Peters,  R. Peverati,  P. A. Pieniazek,  
 Y. M. Rhee,  J. Ritchie,  M. A. Rohrdanz,  E. Rosta,  N. J. Russ,  
 H. F. Schaefer III,  N. E. Schultz,  N. Shenvi,  A. C. Simmonett,  A. Sodt,  
 D. Stuck,  K. S. Thanthiriwatte,  V. Vanovschi,  Tao Wang,  A. Warshel,  
 C. F. Williams,  Q. Wu,  X. Xu,  W. Zhang

 Please cite Q-Chem as follows:
 Y. Shao et al., Mol. Phys. 113, 184-215 (2015)
 DOI: 10.1080/00268976.2014.952696

 Q-Chem 5.1.1 for Intel X86 EM64T Linux

 Parts of Q-Chem use Armadillo 8.300.2 (Tropical Shenanigans).
 http://arma.sourceforge.net/

 Q-Chem begins on Mon Mar 11 16:17:05 2019  

Host: 
0

     Scratch files written to /staging/scratch/2851581/qchem30699//
 Aug318 |scratch|qcdevops|jenkins|workspace|build_RNUM 6013   
Processing $rem in /usr/usc/qchem/5.1.1/config/preferences.
 MEM_TOTAL  2000 
Input Ideriv = 2
Curr. Ideriv = -1
Max.  Ideriv = 2

Checking the input file for inconsistencies... 	...done.

--------------------------------------------------------------
User input:
--------------------------------------------------------------

$comment
potential surface scanner
$end

$rem
JOBTYPE  PES_SCAN
UNRESTRICTED TRUE
SYM_IGNORE  TRUE
GEOM_OPT_MAX_CYCLES 400
SCF_MAX_CYCLES 400
METHOD   B3LYP
BASIS   6-31G**
PDB_PRINT 2
SCF_CONVERGENCE 6
THRESH 14
SCF_PRINT 1
$end
$molecule
0 1
H 0.528800 0.161000 0.935900
C 0.000000 0.000000 0.000000
H 0.205100 0.824000 -0.678600
H 0.334500 -0.931400 -0.449600
H -1.068500 -0.053700 0.192100
$end
$scan
stre 1 2 0.700000 0.701000 0.100000
$end
--------------------------------------------------------------
 ----------------------------------------------------------------
             Standard Nuclear Orientation (Angstroms)
    I     Atom           X                Y                Z
 ----------------------------------------------------------------
    1      H       0.5288000000     0.1610000000     0.9359000000
    2      C       0.0000000000     0.0000000000     0.0000000000
    3      H       0.2051000000     0.8240000000    -0.6786000000
    4      H       0.3345000000    -0.9314000000    -0.4496000000
    5      H      -1.0685000000    -0.0537000000     0.1921000000
 ----------------------------------------------------------------
 Nuclear Repulsion Energy =    13.4728429734 hartrees
 There are        5 alpha and        5 beta electrons
 Requested basis set is 6-31G(d,p)
 There are 16 shells and 35 basis functions

 Total QAlloc Memory Limit   2000 MB
 Mega-Array Size       188 MB
 MEM_STATIC part       192 MB
A total of 1 constraints
  
            1
    1   1.0100000
    2   1.0100000
    3   2.0100000
    4   0.7000000
    5   0.7010000
    6   0.1000000
    7   0.0000000
    8   0.0000000
    9   0.0000000
   10   0.0000000

                       Distance Matrix (Angstroms)
             H (  1)   C (  2)   H (  3)   H (  4)
   C (  2)  1.086950
   H (  3)  1.775095  1.086987
   H (  4)  1.775021  1.086985  1.774997
   H (  5)  1.775022  1.086958  1.774974  1.774978
 
 A cutoff of  1.0D-14 yielded    136 shell pairs
 There are       669 function pairs
 
 -------------------------------------------------------
 OpenMP Integral Computing Module                       
 Release: version 1.0, May 2013, Q-Chem Inc. Pittsburgh 
 -------------------------------------------------------
 Integral Job Info:
 Integral job number is                      11
 Integral operator is                         1
 short-range coefficients                     0
 long-range coefficients              100000000
 Omega coefficients                           0
 if combine SR and LR in K                    0
 Integral screening is                        0
 Integral computing path is                   2
 max size of driver memory is            800000
 size of driver memory is                593474
 size of scratch memory is              2361544
 max col of scratch BK array               1296
 max len of scratch array in speh3          155
 max len of scratch index in speh4           18
 max int batch size is                      520
 min int batch size is                       52
 fixed nKL is                                52
 max L of basis functions is                  2
 order of int derivative is                   0
 number of shells is                         16
 number of basis is                          35
 number of cartesian basis is                35
 number of contracted shell pairs           136
 number of primitive shell pairs            504
 maxK2 (contraction) of shell pair           36
 max number of K2 of shell pair               1
 max number of CS2 of shell pair             16
 max number of PS2 of shell pair             56
 mem total for path MDJ                  507880
 -------------------------------------------------------
 Smallest overlap matrix eigenvalue = 1.76E-02

 Scale SEOQF with 1.000000e+00/1.000000e+00/1.000000e+00

 Standard Electronic Orientation quadrupole field applied
 Guess from superposition of atomic densities
 Warning:  Energy on first SCF cycle will be non-variational
 SAD guess density has 10.000000 electrons

 -----------------------------------------------------------------------
  General SCF calculation program by
  Eric Jon Sundstrom, Paul Horn, Yuezhi Mao, Dmitri Zuev, Alec White,
  David Stuck, Shaama M.S., Shane Yost, Joonho Lee, David Small,
  Daniel Levine, Susi Lehtola, Hugh Burton, Evgeny Epifanovsky
 -----------------------------------------------------------------------
 Exchange:     0.2000 Hartree-Fock + 0.0800 Slater + 0.7200 B88
 Correlation:  0.1900 VWN1RPA + 0.8100 LYP
 Using SG-1 standard quadrature grid
 using 12 threads for integral computing
 -------------------------------------------------------
 OpenMP Integral computing Module                
 Release: version 1.0, May 2013, Q-Chem Inc. Pittsburgh 
 -------------------------------------------------------
 -------------------------------------------------------
 OpenMP BLAS3 based DFT computing Module                
 Release: version 1.0, May 2013, Q-Chem Inc. Pittsburgh 
 -------------------------------------------------------
 A unrestricted SCF calculation will be
 performed using DIIS
 SCF converges when DIIS error is below 1.0e-06
 Alpha HF Exchange    Energy =  -0.64928891387895
 Beta HF Exchange     Energy =  -0.64928891387895
 DFT Correlation      Energy =  -0.37874791047618
 DFT Exchange         Energy =  -5.02050135514382
 One-Electron (alpha) Energy = -39.22878149685975
 One-Electron (beta)  Energy = -39.22878149685975
 Total Coulomb        Energy =  31.23343733514701
 ---------------------------------------
  Cycle       Energy         DIIS error
 ---------------------------------------
    1     -40.4491097785      4.81e-02  
 Alpha HF Exchange    Energy =  -0.67427762707709
 Beta HF Exchange     Energy =  -0.67427762707709
 DFT Correlation      Energy =  -0.39538284894534
 DFT Exchange         Energy =  -5.33667510041762
 One-Electron (alpha) Energy = -40.59729388731360
 One-Electron (beta)  Energy = -40.59729388731354
 Total Coulomb        Energy =  34.33566455820154
    2     -40.4666934465      9.43e-03  
 Alpha HF Exchange    Energy =  -0.64505836617863
 Beta HF Exchange     Energy =  -0.64505836617863
 DFT Correlation      Energy =  -0.38026731501009
 DFT Exchange         Energy =  -5.09347816696622
 One-Electron (alpha) Energy = -39.29328333521538
 One-Electron (beta)  Energy = -39.29328333521533
 Total Coulomb        Energy =  31.41077290818730
    3     -40.4668130031      9.39e-03  
 Alpha HF Exchange    Energy =  -0.65888983500023
 Beta HF Exchange     Energy =  -0.65888983500023
 DFT Correlation      Energy =  -0.38783868723980
 DFT Exchange         Energy =  -5.20940371229376
 One-Electron (alpha) Energy = -39.95942985601279
 One-Electron (beta)  Energy = -39.95942985601278
 Total Coulomb        Energy =  32.83709765965011
    4     -40.5239411485      4.36e-05  
 Alpha HF Exchange    Energy =  -0.65884977728921
 Beta HF Exchange     Energy =  -0.65884977728921
 DFT Correlation      Energy =  -0.38782168317475
 DFT Exchange         Energy =  -5.20911296411026
 One-Electron (alpha) Energy = -39.95819565393341
 One-Electron (beta)  Energy = -39.95819565393342
 Total Coulomb        Energy =  32.83424043315500
    5     -40.5239421031      1.24e-05  
 Alpha HF Exchange    Energy =  -0.65886958287155
 Beta HF Exchange     Energy =  -0.65886958287155
 DFT Correlation      Energy =  -0.38783102589159
 DFT Exchange         Energy =  -5.20927760663273
 One-Electron (alpha) Energy = -39.95901337338068
 One-Electron (beta)  Energy = -39.95901337338069
 Total Coulomb        Energy =  32.83608937269400
    6     -40.5239421989      2.32e-07  Convergence criterion met
 ---------------------------------------
 SCF time:   CPU 13.36s  wall 2.00s 
<S^2> =         -0.000000000
 Alpha HF Exchange    Energy =  -0.65886958287155
 Beta HF Exchange     Energy =  -0.65886958287155
 DFT Correlation      Energy =  -0.38783102589159
 DFT Exchange         Energy =  -5.20927760663273
 One-Electron (alpha) Energy = -39.95901337338068
 One-Electron (beta)  Energy = -39.95901337338069
 Total Coulomb        Energy =  32.83608937269400
 Nuclear repulsion Energy =  13.47284297344092
 SCF   energy in the final basis set =      -40.5239421989
 Total energy in the final basis set =      -40.5239421989
 
 --------------------------------------------------------------
 
                    Orbital Energies (a.u.)
 --------------------------------------------------------------
 
 Alpha MOs
 -- Occupied --
-10.165  -0.692  -0.389  -0.389  -0.389
 -- Virtual --
  0.119   0.178   0.178   0.178   0.528   0.528   0.528   0.877
  0.877   0.877   0.929   1.102   1.363   1.363   2.050   2.050
  2.050   2.059   2.059   2.059   2.637   2.637   2.637   2.923
  2.923   3.131   3.430   3.430   3.430   4.424
 
 Beta MOs
 -- Occupied --
-10.165  -0.692  -0.389  -0.389  -0.389
 -- Virtual --
  0.119   0.178   0.178   0.178   0.528   0.528   0.528   0.877
  0.877   0.877   0.929   1.102   1.363   1.363   2.050   2.050
  2.050   2.059   2.059   2.059   2.637   2.637   2.637   2.923
  2.923   3.131   3.430   3.430   3.430   4.424
 --------------------------------------------------------------
 
          Ground-State Mulliken Net Atomic Charges

     Atom                 Charge (a.u.)    Spin (a.u.)
  --------------------------------------------------------
      1 H                     0.117931       0.000000
      2 C                    -0.471727      -0.000000
      3 H                     0.117934       0.000000
      4 H                     0.117928      -0.000000
      5 H                     0.117934      -0.000000
  --------------------------------------------------------
  Sum of atomic charges =    -0.000000
  Sum of spin   charges =    -0.000000

 -----------------------------------------------------------------
                    Cartesian Multipole Moments
 -----------------------------------------------------------------
    Charge (ESU x 10^10)
                -0.0000
    Dipole Moment (Debye)
         X      -0.0000      Y      -0.0001      Z      -0.0000
       Tot       0.0001
    Quadrupole Moments (Debye-Ang)
        XX      -8.2326     XY      -0.0000     YY      -8.2326
        XZ       0.0001     YZ      -0.0001     ZZ      -8.2323
    Octopole Moments (Debye-Ang^2)
       XXX      -0.6698    XXY      -0.0560    XYY       0.2874
       YYY      -0.1595    XXZ       0.2629    XYZ       0.0758
       YYZ      -0.5392    XZZ       0.3827    YZZ       0.2157
       ZZZ       0.2772
    Hexadecapole Moments (Debye-Ang^3)
      XXXX     -14.8909   XXXY       0.0665   XXYY      -5.3187
      XYYY      -0.1651   YYYY     -15.0873   XXXZ      -0.1279
      XXYZ       0.0579   XYYZ      -0.2294   YYYZ      -0.0134
      XXZZ      -5.1107   XYZZ       0.0987   YYZZ      -4.9147
      XZZZ       0.3574   YZZZ      -0.0444   ZZZZ     -15.2951
 -----------------------------------------------------------------
 Calculating analytic gradient of the SCF energy
 Gradient of SCF Energy
            1           2           3           4           5
    1  -0.0016356   0.0000093  -0.0006521  -0.0010223   0.0033007
    2  -0.0004913  -0.0000030  -0.0025299   0.0028643   0.0001598
    3  -0.0028895   0.0000213   0.0020747   0.0013960  -0.0006026
 Max gradient component =       3.301E-03
 RMS gradient           =       1.730E-03
 Gradient time:  CPU 4.69 s  wall 0.66 s
 Geometry Optimization Parameters
   NAtoms,    NIC,     NZ,  NCons,   NDum,   NFix, NCnnct, MaxDiis
        5      20       0       1       0       0       0       0


** CONSTRAINED OPTIMIZATION IN DELOCALIZED INTERNAL COORDINATES **
   Searching for a Minimum

   Optimization Cycle:   1

                       Coordinates (Angstroms)
     ATOM                X               Y               Z
      1  H         0.5288000000    0.1610000000    0.9359000000
      2  C         0.0000000000    0.0000000000    0.0000000000
      3  H         0.2051000000    0.8240000000   -0.6786000000
      4  H         0.3345000000   -0.9314000000   -0.4496000000
      5  H        -1.0685000000   -0.0537000000    0.1921000000
   Point Group: c1    Number of degrees of freedom:     9


   Energy is    -40.523942199

              Constraints and their Current Values
                                        Value     Constraint
   Distance(Angs):        1   2             1.086950     0.700000

 Attempting to Generate Delocalized Internal Coordinates
**WARNING** Constraint Gradient Reduced for constraint   1

   Using Lagrange Multiplier Algorithm


 10 Hessian modes will be used to form the next step
  Hessian Eigenvalues:
    -0.839504    0.160000    0.160000    0.160000    0.160000    0.160000
     0.351632    0.351634    0.351665    1.191180

 Minimum Search - Taking P-RFO Step
 Searching for Lamda that Maximizes Along the Constraint modes Only
 Value Taken    Lamda =   0.05981162
 Searching for Lamda that Minimizes Along All other modes
 Value Taken    Lamda =  -0.02975534
 Step Taken.  Stepsize is  0.285609

                             Maximum     Tolerance    Cnvgd?
         Gradient            0.300000       0.000300      NO
         Displacement        0.285204       0.001200      NO
         Energy change     *********       0.000001      NO


 New Cartesian Coordinates Obtained by Inverse Iteration

 Displacement from previous Coordinates is:  0.253585
 ----------------------------------------------------------------
             Standard Nuclear Orientation (Angstroms)
    I     Atom           X                Y                Z
 ----------------------------------------------------------------
    1      H       0.4705027973     0.1432770596     0.8327224181
    2      C       0.0151182686     0.0046068088     0.0267817552
    3      H       0.2211607622     0.8321087755    -0.6546956159
    4      H       0.3510732267    -0.9307551852    -0.4247532865
    5      H      -1.0579550548    -0.0493374587     0.2197447290
 ----------------------------------------------------------------
 Nuclear Repulsion Energy =    13.9658614849 hartrees
 There are        5 alpha and        5 beta electrons

                       Distance Matrix (Angstroms)
             H (  1)   C (  2)   H (  3)   H (  4)
   C (  2)  0.936026
   H (  3)  1.658033  1.091616
   H (  4)  1.658027  1.091628  1.782538
   H (  5)  1.658019  1.091619  1.782619  1.782592
 
 Applying Cartesian multipole field
    Component          Value
    ---------          -----
     (2,0,0)        1.00000E-10
     (0,2,0)        2.00000E-10
     (0,0,2)       -3.00000E-10
 Nucleus-field energy     =     0.0000000002 hartrees
 Requested basis set is 6-31G(d,p)
 There are 16 shells and 35 basis functions
 A cutoff of  1.0D-14 yielded    136 shell pairs
 There are       669 function pairs
 Smallest overlap matrix eigenvalue = 1.49E-02
 Guess from superposition of atomic densities
 Warning:  Energy on first SCF cycle will be non-variational
 SAD guess density has 10.000000 electrons

 -----------------------------------------------------------------------
  General SCF calculation program by
  Eric Jon Sundstrom, Paul Horn, Yuezhi Mao, Dmitri Zuev, Alec White,
  David Stuck, Shaama M.S., Shane Yost, Joonho Lee, David Small,
  Daniel Levine, Susi Lehtola, Hugh Burton, Evgeny Epifanovsky
 -----------------------------------------------------------------------
 Exchange:     0.2000 Hartree-Fock + 0.0800 Slater + 0.7200 B88
 Correlation:  0.1900 VWN1RPA + 0.8100 LYP
 Using SG-1 standard quadrature grid
 using 12 threads for integral computing
 -------------------------------------------------------
 OpenMP Integral computing Module                
 Release: version 1.0, May 2013, Q-Chem Inc. Pittsburgh 
 -------------------------------------------------------
 -------------------------------------------------------
 OpenMP BLAS3 based DFT computing Module                
 Release: version 1.0, May 2013, Q-Chem Inc. Pittsburgh 
 -------------------------------------------------------
 A unrestricted SCF calculation will be
 performed using DIIS
 SCF converges when DIIS error is below 1.0e-06
 Alpha HF Exchange    Energy =  -0.65849121308325
 Beta HF Exchange     Energy =  -0.65849121308325
 DFT Correlation      Energy =  -0.38047328125917
 DFT Exchange         Energy =  -5.04043944364779
 One-Electron (alpha) Energy = -39.61583567511300
 One-Electron (beta)  Energy = -39.61583567511300
 Total Coulomb        Energy =  31.50762505278959
 ---------------------------------------
  Cycle       Energy         DIIS error
 ---------------------------------------
    1     -40.4960799634      5.25e-02  
 Alpha HF Exchange    Energy =  -0.68208950301731
 Beta HF Exchange     Energy =  -0.68208950301731
 DFT Correlation      Energy =  -0.39853660452808
 DFT Exchange         Energy =  -5.39500024520976
 One-Electron (alpha) Energy = -41.10120122272414
 One-Electron (beta)  Energy = -41.10120122272411
 Total Coulomb        Energy =  34.96078638464802
    2     -40.4334704315      1.05e-02  
 Alpha HF Exchange    Energy =  -0.64948643496648
 Beta HF Exchange     Energy =  -0.64948643496648
 DFT Correlation      Energy =  -0.38227879407363
 DFT Exchange         Energy =  -5.12575980594564
 One-Electron (alpha) Energy = -39.68452933129675
 One-Electron (beta)  Energy = -39.68452933129676
 Total Coulomb        Energy =  31.77163630393428
    3     -40.4385723435      1.00e-02  
 Alpha HF Exchange    Energy =  -0.66471649724165
 Beta HF Exchange     Energy =  -0.66471649724165
 DFT Correlation      Energy =  -0.39031838442900
 DFT Exchange         Energy =  -5.25238573126163
 One-Electron (alpha) Energy = -40.39951357017848
 One-Electron (beta)  Energy = -40.39951357017848
 Total Coulomb        Energy =  33.30206545398470
    4     -40.5032373115      7.70e-05  
 Alpha HF Exchange    Energy =  -0.66463058388023
 Beta HF Exchange     Energy =  -0.66463058388023
 DFT Correlation      Energy =  -0.39028105502933
 DFT Exchange         Energy =  -5.25171571643402
 One-Electron (alpha) Energy = -40.39653192144694
 One-Electron (beta)  Energy = -40.39653192144699
 Total Coulomb        Energy =  33.29521959893195
    5     -40.5032406981      2.69e-05  
 Alpha HF Exchange    Energy =  -0.66465141516811
 Beta HF Exchange     Energy =  -0.66465141516811
 DFT Correlation      Energy =  -0.39029083657031
 DFT Exchange         Energy =  -5.25189028522691
 One-Electron (alpha) Energy = -40.39739655695918
 One-Electron (beta)  Energy = -40.39739655695918
 Total Coulomb        Energy =  33.29717447210660
    6     -40.5032411089      4.56e-06  
 Alpha HF Exchange    Energy =  -0.66465681206785
 Beta HF Exchange     Energy =  -0.66465681206785
 DFT Correlation      Energy =  -0.39029331891144
 DFT Exchange         Energy =  -5.25193432007400
 One-Electron (alpha) Energy = -40.39761630369122
 One-Electron (beta)  Energy = -40.39761630369124
 Total Coulomb        Energy =  33.29767126295273
    7     -40.5032411225      1.27e-07  Convergence criterion met
 ---------------------------------------
 SCF time:   CPU 15.59s  wall 1.00s 
<S^2> =         -0.000000000
 Alpha HF Exchange    Energy =  -0.66465681206785
 Beta HF Exchange     Energy =  -0.66465681206785
 DFT Correlation      Energy =  -0.39029331891144
 DFT Exchange         Energy =  -5.25193432007400
 One-Electron (alpha) Energy = -40.39761630369122
 One-Electron (beta)  Energy = -40.39761630369124
 Total Coulomb        Energy =  33.29767126295273
 Nuclear repulsion Energy =  13.96586148509483
 SCF   energy in the final basis set =      -40.5032411225
 Total energy in the final basis set =      -40.5032411225
 
 --------------------------------------------------------------
 
                    Orbital Energies (a.u.)
 --------------------------------------------------------------
 
 Alpha MOs
 -- Occupied --
-10.151  -0.706  -0.411  -0.387  -0.387
 -- Virtual --
  0.124   0.177   0.177   0.213   0.492   0.533   0.533   0.874
  0.874   0.905   1.036   1.114   1.364   1.364   2.049   2.049
  2.050   2.077   2.077   2.224   2.652   2.688   2.689   3.033
  3.033   3.188   3.423   3.423   3.861   4.420
 
 Beta MOs
 -- Occupied --
-10.151  -0.706  -0.411  -0.387  -0.387
 -- Virtual --
  0.124   0.177   0.177   0.213   0.492   0.533   0.533   0.874
  0.874   0.905   1.036   1.114   1.364   1.364   2.049   2.049
  2.050   2.077   2.077   2.224   2.652   2.688   2.689   3.033
  3.033   3.188   3.423   3.423   3.861   4.420
 --------------------------------------------------------------
 
          Ground-State Mulliken Net Atomic Charges

     Atom                 Charge (a.u.)    Spin (a.u.)
  --------------------------------------------------------
      1 H                     0.134178       0.000000
      2 C                    -0.469582      -0.000000
      3 H                     0.111802      -0.000000
      4 H                     0.111803       0.000000
      5 H                     0.111799       0.000000
  --------------------------------------------------------
  Sum of atomic charges =    -0.000000
  Sum of spin   charges =     0.000000

 -----------------------------------------------------------------
                    Cartesian Multipole Moments
 -----------------------------------------------------------------
    Charge (ESU x 10^10)
                 0.0000
    Dipole Moment (Debye)
         X       0.0389      Y       0.0118      Z       0.0688
       Tot       0.0800
    Quadrupole Moments (Debye-Ang)
        XX      -8.1213     XY      -0.0063     YY      -8.1026
        XZ      -0.0369     YZ      -0.0112     ZZ      -8.1656
    Octopole Moments (Debye-Ang^2)
       XXX      -0.6217    XXY      -0.0600    XYY       0.3098
       YYY      -0.1332    XXZ       0.2349    XYZ       0.0519
       YYZ      -0.4914    XZZ       0.2730    YZZ       0.1815
       ZZZ       0.1872
    Hexadecapole Moments (Debye-Ang^3)
      XXXX     -14.3507   XXXY       0.1365   XXYY      -5.1967
      XYYY      -0.0780   YYYY     -14.9931   XXXZ       0.3026
      XXYZ       0.0898   XYYZ      -0.0673   YYYZ       0.1282
      XXZZ      -4.8034   XYZZ       0.0982   YYZZ      -4.6279
      XZZZ       0.6758   YZZZ       0.0593   ZZZZ     -13.8221
 -----------------------------------------------------------------
 Calculating analytic gradient of the SCF energy
 Gradient of SCF Energy
            1           2           3           4           5
    1  -0.0801630   0.0768096   0.0011871   0.0012334   0.0009329
    2  -0.0243949   0.0233850   0.0005176   0.0001596   0.0003328
    3  -0.1418870   0.1359548   0.0018912   0.0019582   0.0020829
 Max gradient component =       1.419E-01
 RMS gradient           =       5.893E-02
 Gradient time:  CPU 4.62 s  wall 0.62 s
 Geometry Optimization Parameters
   NAtoms,    NIC,     NZ,  NCons,   NDum,   NFix, NCnnct, MaxDiis
        5      20       0       1       0       0       0       0

 Cartesian Hessian Update
 Hessian Updated using BFGS Update


** CONSTRAINED OPTIMIZATION IN DELOCALIZED INTERNAL COORDINATES **
   Searching for a Minimum

   Optimization Cycle:   2

                       Coordinates (Angstroms)
     ATOM                X               Y               Z
      1  H         0.4705027973    0.1432770596    0.8327224181
      2  C         0.0151182686    0.0046068088    0.0267817552
      3  H         0.2211607622    0.8321087755   -0.6546956159
      4  H         0.3510732267   -0.9307551852   -0.4247532865
      5  H        -1.0579550548   -0.0493374587    0.2197447290
   Point Group: c1    Number of degrees of freedom:     9


   Energy is    -40.503241122

              Constraints and their Current Values
                                        Value     Constraint
   Distance(Angs):        1   2             0.936026     0.700000
 Hessian Updated using BFGS Update
**WARNING** Constraint Gradient Reduced for constraint   1

   Using Lagrange Multiplier Algorithm


  7 Hessian modes will be used to form the next step
  Hessian Eigenvalues:
    -0.756396    0.160000    0.160634    0.351152    0.351633    0.351655
     1.322549

 Minimum Search - Taking P-RFO Step
 Searching for Lamda that Maximizes Along the Constraint modes Only
 Value Taken    Lamda =   0.09229822
 Searching for Lamda that Minimizes Along All other modes
 Value Taken    Lamda =  -0.01278636
 Step Taken.  Stepsize is  0.282942

                             Maximum     Tolerance    Cnvgd?
         Gradient            0.300000       0.000300      NO
         Displacement        0.274978       0.001200      NO
         Energy change      0.020701       0.000001      NO


 New Cartesian Coordinates Obtained by Inverse Iteration

 Displacement from previous Coordinates is:  0.217432
 ----------------------------------------------------------------
             Standard Nuclear Orientation (Angstroms)
    I     Atom           X                Y                Z
 ----------------------------------------------------------------
    1      H       0.4219944873     0.1284984854     0.7469166554
    2      C       0.0374379524     0.0114112881     0.0662409971
    3      H       0.2265690242     0.8271628265    -0.6360772922
    4      H       0.3553559303    -0.9204884620    -0.4081023845
    5      H      -1.0414573942    -0.0466841381     0.2308220243
 ----------------------------------------------------------------
 Nuclear Repulsion Energy =    14.6466603344 hartrees
 There are        5 alpha and        5 beta electrons

                       Distance Matrix (Angstroms)
             H (  1)   C (  2)   H (  3)   H (  4)
   C (  2)  0.790514
   H (  3)  1.561728  1.092919
   H (  4)  1.561692  1.092937  1.767157
   H (  5)  1.561645  1.092921  1.767205  1.767158
 
 Applying Cartesian multipole field
    Component          Value
    ---------          -----
     (2,0,0)        1.00000E-10
     (0,2,0)        2.00000E-10
     (0,0,2)       -3.00000E-10
 Nucleus-field energy     =     0.0000000003 hartrees
 Requested basis set is 6-31G(d,p)
 There are 16 shells and 35 basis functions
 A cutoff of  1.0D-14 yielded    136 shell pairs
 There are       669 function pairs
 Smallest overlap matrix eigenvalue = 1.10E-02
 Guess from superposition of atomic densities
 Warning:  Energy on first SCF cycle will be non-variational
 SAD guess density has 10.000000 electrons

 -----------------------------------------------------------------------
  General SCF calculation program by
  Eric Jon Sundstrom, Paul Horn, Yuezhi Mao, Dmitri Zuev, Alec White,
  David Stuck, Shaama M.S., Shane Yost, Joonho Lee, David Small,
  Daniel Levine, Susi Lehtola, Hugh Burton, Evgeny Epifanovsky
 -----------------------------------------------------------------------
 Exchange:     0.2000 Hartree-Fock + 0.0800 Slater + 0.7200 B88
 Correlation:  0.1900 VWN1RPA + 0.8100 LYP
 Using SG-1 standard quadrature grid
 using 12 threads for integral computing
 -------------------------------------------------------
 OpenMP Integral computing Module                
 Release: version 1.0, May 2013, Q-Chem Inc. Pittsburgh 
 -------------------------------------------------------
 -------------------------------------------------------
 OpenMP BLAS3 based DFT computing Module                
 Release: version 1.0, May 2013, Q-Chem Inc. Pittsburgh 
 -------------------------------------------------------
 A unrestricted SCF calculation will be
 performed using DIIS
 SCF converges when DIIS error is below 1.0e-06
 Alpha HF Exchange    Energy =  -0.66928449774678
 Beta HF Exchange     Energy =  -0.66928449774678
 DFT Correlation      Energy =  -0.38228070856884
 DFT Exchange         Energy =  -5.06423363944228
 One-Electron (alpha) Energy = -40.08881418304946
 One-Electron (beta)  Energy = -40.08881418304946
 Total Coulomb        Energy =  31.81253552243609
 ---------------------------------------
  Cycle       Energy         DIIS error
 ---------------------------------------
    1     -40.5035158525      5.89e-02  
 Alpha HF Exchange    Energy =  -0.69245268635295
 Beta HF Exchange     Energy =  -0.69245268635295
 DFT Correlation      Energy =  -0.40250673264146
 DFT Exchange         Energy =  -5.47480419961910
 One-Electron (alpha) Energy = -41.75388122752835
 One-Electron (beta)  Energy = -41.75388122752836
 Total Coulomb        Energy =  35.80107585707938
    2     -40.3222425682      1.22e-02  
 Alpha HF Exchange    Energy =  -0.65439569899709
 Beta HF Exchange     Energy =  -0.65439569899709
 DFT Correlation      Energy =  -0.38411990349943
 DFT Exchange         Energy =  -5.16286189154599
 One-Electron (alpha) Energy = -40.12883676736281
 One-Electron (beta)  Energy = -40.12883676736277
 Total Coulomb        Energy =  32.13297716767278
    3     -40.3338092254      1.13e-02  
 Alpha HF Exchange    Energy =  -0.67205397693582
 Beta HF Exchange     Energy =  -0.67205397693582
 DFT Correlation      Energy =  -0.39317279660372
 DFT Exchange         Energy =  -5.30861387078797
 One-Electron (alpha) Energy = -40.94767266862949
 One-Electron (beta)  Energy = -40.94767266862943
 Total Coulomb        Energy =  33.87845397880328
    4     -40.4161256450      1.49e-04  
 Alpha HF Exchange    Energy =  -0.67183665930636
 Beta HF Exchange     Energy =  -0.67183665930636
 DFT Correlation      Energy =  -0.39307324294418
 DFT Exchange         Energy =  -5.30686491176541
 One-Electron (alpha) Energy = -40.93933617260073
 One-Electron (beta)  Energy = -40.93933617260075
 Total Coulomb        Energy =  33.85948368318669
    5     -40.4161398006      4.72e-05  
 Alpha HF Exchange    Energy =  -0.67186811850488
 Beta HF Exchange     Energy =  -0.67186811850488
 DFT Correlation      Energy =  -0.39308749668180
 DFT Exchange         Energy =  -5.30712736121728
 One-Electron (alpha) Energy = -40.94060094176530
 One-Electron (beta)  Energy = -40.94060094176528
 Total Coulomb        Energy =  33.86235164216449
    6     -40.4161410016      6.37e-06  
 Alpha HF Exchange    Energy =  -0.67187711934878
 Beta HF Exchange     Energy =  -0.67187711934878
 DFT Correlation      Energy =  -0.39309166935370
 DFT Exchange         Energy =  -5.30720012379195
 One-Electron (alpha) Energy = -40.94097386084262
 One-Electron (beta)  Energy = -40.94097386084262
 Total Coulomb        Energy =  33.86319239005302
    7     -40.4161410288      1.74e-07  Convergence criterion met
 ---------------------------------------
 SCF time:   CPU 15.63s  wall 1.00s 
<S^2> =         -0.000000000
 Alpha HF Exchange    Energy =  -0.67187711934878
 Beta HF Exchange     Energy =  -0.67187711934878
 DFT Correlation      Energy =  -0.39309166935370
 DFT Exchange         Energy =  -5.30720012379195
 One-Electron (alpha) Energy = -40.94097386084262
 One-Electron (beta)  Energy = -40.94097386084262
 Total Coulomb        Energy =  33.86319239005302
 Nuclear repulsion Energy =  14.64666033470316
 SCF   energy in the final basis set =      -40.4161410288
 Total energy in the final basis set =      -40.4161410288
 
 --------------------------------------------------------------
 
                    Orbital Energies (a.u.)
 --------------------------------------------------------------
 
 Alpha MOs
 -- Occupied --
-10.140  -0.726  -0.438  -0.384  -0.384
 -- Virtual --
  0.126   0.175   0.175   0.243   0.460   0.535   0.535   0.868
  0.868   0.918   1.124   1.206   1.375   1.375   2.058   2.058
  2.058   2.109   2.109   2.353   2.707   2.707   2.721   3.192
  3.192   3.193   3.432   3.432   4.408   4.872
 
 Beta MOs
 -- Occupied --
-10.140  -0.726  -0.438  -0.384  -0.384
 -- Virtual --
  0.126   0.175   0.175   0.243   0.460   0.535   0.535   0.868
  0.868   0.918   1.124   1.206   1.375   1.375   2.058   2.058
  2.058   2.109   2.109   2.353   2.707   2.707   2.721   3.192
  3.192   3.193   3.432   3.432   4.408   4.872
 --------------------------------------------------------------
 
          Ground-State Mulliken Net Atomic Charges

     Atom                 Charge (a.u.)    Spin (a.u.)
  --------------------------------------------------------
      1 H                     0.115992       0.000000
      2 C                    -0.430990      -0.000000
      3 H                     0.105004       0.000000
      4 H                     0.104996      -0.000000
      5 H                     0.104998      -0.000000
  --------------------------------------------------------
  Sum of atomic charges =    -0.000000
  Sum of spin   charges =    -0.000000

 -----------------------------------------------------------------
                    Cartesian Multipole Moments
 -----------------------------------------------------------------
    Charge (ESU x 10^10)
                -0.0000
    Dipole Moment (Debye)
         X       0.0283      Y       0.0086      Z       0.0501
       Tot       0.0582
    Quadrupole Moments (Debye-Ang)
        XX      -8.0038     XY      -0.0032     YY      -7.9940
        XZ      -0.0192     YZ      -0.0059     ZZ      -8.0266
    Octopole Moments (Debye-Ang^2)
       XXX      -0.7411    XXY      -0.0749    XYY       0.2306
       YYY      -0.1708    XXZ       0.1008    XYZ       0.0410
       YYZ      -0.5463    XZZ       0.1594    YZZ       0.1389
       ZZZ      -0.1755
    Hexadecapole Moments (Debye-Ang^3)
      XXXX     -13.8122   XXXY       0.1894   XXYY      -5.0638
      XYYY      -0.0126   YYYY     -14.7947   XXXZ       0.6228
      XXYZ       0.1118   XYYZ       0.0545   YYYZ       0.2369
      XXZZ      -4.5436   XYZZ       0.0932   YYZZ      -4.3656
      XZZZ       0.8920   YZZZ       0.1291   ZZZZ     -12.6199
 -----------------------------------------------------------------
 Calculating analytic gradient of the SCF energy
 Gradient of SCF Energy
            1           2           3           4           5
    1  -0.2517220   0.2515262   0.0002518   0.0003212  -0.0003772
    2  -0.0766874   0.0766583   0.0004487  -0.0004386   0.0000190
    3  -0.4456857   0.4453680  -0.0000811   0.0000304   0.0003684
 Max gradient component =       4.457E-01
 RMS gradient           =       1.889E-01
 Gradient time:  CPU 4.59 s  wall 0.60 s
 Geometry Optimization Parameters
   NAtoms,    NIC,     NZ,  NCons,   NDum,   NFix, NCnnct, MaxDiis
        5      20       0       1       0       0       0       0

 Cartesian Hessian Update
 Hessian Updated using BFGS Update


** CONSTRAINED OPTIMIZATION IN DELOCALIZED INTERNAL COORDINATES **
   Searching for a Minimum

   Optimization Cycle:   3

                       Coordinates (Angstroms)
     ATOM                X               Y               Z
      1  H         0.4219944873    0.1284984854    0.7469166554
      2  C         0.0374379524    0.0114112881    0.0662409971
      3  H         0.2265690242    0.8271628265   -0.6360772922
      4  H         0.3553559303   -0.9204884620   -0.4081023845
      5  H        -1.0414573942   -0.0466841381    0.2308220243
   Point Group: c1    Number of degrees of freedom:     9


   Energy is    -40.416141029

              Constraints and their Current Values
                                        Value     Constraint
   Distance(Angs):        1   2             0.790514     0.700000
 Hessian Updated using BFGS Update

   Using Lagrange Multiplier Algorithm


  8 Hessian modes will be used to form the next step
  Hessian Eigenvalues:
    -0.545564    0.160000    0.160000    0.160237    0.351162    0.351633
     0.351655    1.833646

 Minimum Search - Taking P-RFO Step
 Searching for Lamda that Maximizes Along the Constraint modes Only
 Value Taken    Lamda =   0.09959727
 Searching for Lamda that Minimizes Along All other modes
 Value Taken    Lamda =  -0.00635378
 Step Taken.  Stepsize is  0.139193

                             Maximum     Tolerance    Cnvgd?
         Gradient            0.215838       0.000300      NO
         Displacement        0.372539       0.001200      NO
         Energy change      0.087100       0.000001      NO


 New Cartesian Coordinates Obtained by Inverse Iteration

 Displacement from previous Coordinates is:  0.112156
 ----------------------------------------------------------------
             Standard Nuclear Orientation (Angstroms)
    I     Atom           X                Y                Z
 ----------------------------------------------------------------
    1      H       0.3965575787     0.1208518624     0.7021734549
    2      C       0.0474619988     0.0143767378     0.0837564047
    3      H       0.2299329360     0.8247632914    -0.6253289885
    4      H       0.3581223575    -0.9149888764    -0.3984440249
    5      H      -1.0321748710    -0.0451030151     0.2376431538
 ----------------------------------------------------------------
 Nuclear Repulsion Energy =    15.0956628078 hartrees
 There are        5 alpha and        5 beta electrons

                       Distance Matrix (Angstroms)
             H (  1)   C (  2)   H (  3)   H (  4)
   C (  2)  0.718084
   H (  3)  1.511793  1.092165
   H (  4)  1.511887  1.092130  1.759161
   H (  5)  1.511491  1.092170  1.759064  1.759044
 
 Applying Cartesian multipole field
    Component          Value
    ---------          -----
     (2,0,0)        1.00000E-10
     (0,2,0)        2.00000E-10
     (0,0,2)       -3.00000E-10
 Nucleus-field energy     =     0.0000000004 hartrees
 Requested basis set is 6-31G(d,p)
 There are 16 shells and 35 basis functions
 A cutoff of  1.0D-14 yielded    136 shell pairs
 There are       669 function pairs
 Smallest overlap matrix eigenvalue = 8.75E-03
 Guess from superposition of atomic densities
 Warning:  Energy on first SCF cycle will be non-variational
 SAD guess density has 10.000000 electrons

 -----------------------------------------------------------------------
  General SCF calculation program by
  Eric Jon Sundstrom, Paul Horn, Yuezhi Mao, Dmitri Zuev, Alec White,
  David Stuck, Shaama M.S., Shane Yost, Joonho Lee, David Small,
  Daniel Levine, Susi Lehtola, Hugh Burton, Evgeny Epifanovsky
 -----------------------------------------------------------------------
 Exchange:     0.2000 Hartree-Fock + 0.0800 Slater + 0.7200 B88
 Correlation:  0.1900 VWN1RPA + 0.8100 LYP
 Using SG-1 standard quadrature grid
 using 12 threads for integral computing
 -------------------------------------------------------
 OpenMP Integral computing Module                
 Release: version 1.0, May 2013, Q-Chem Inc. Pittsburgh 
 -------------------------------------------------------
 -------------------------------------------------------
 OpenMP BLAS3 based DFT computing Module                
 Release: version 1.0, May 2013, Q-Chem Inc. Pittsburgh 
 -------------------------------------------------------
 A unrestricted SCF calculation will be
 performed using DIIS
 SCF converges when DIIS error is below 1.0e-06
 Alpha HF Exchange    Energy =  -0.67532073547823
 Beta HF Exchange     Energy =  -0.67532073547823
 DFT Correlation      Energy =  -0.38323637745487
 DFT Exchange         Energy =  -5.07764744888618
 One-Electron (alpha) Energy = -40.36769304431019
 One-Electron (beta)  Energy = -40.36769304431019
 Total Coulomb        Energy =  31.97920846109928
 ---------------------------------------
  Cycle       Energy         DIIS error
 ---------------------------------------
    1     -40.4720401167      6.29e-02  
 Alpha HF Exchange    Energy =  -0.69886979183883
 Beta HF Exchange     Energy =  -0.69886979183883
 DFT Correlation      Energy =  -0.40489960405170
 DFT Exchange         Energy =  -5.52520873014446
 One-Electron (alpha) Energy = -42.15477276310756
 One-Electron (beta)  Energy = -42.15477276310756
 Total Coulomb        Energy =  36.32936563026105
    2     -40.2123650057      1.35e-02  
 Alpha HF Exchange    Energy =  -0.65699610087493
 Beta HF Exchange     Energy =  -0.65699610087493
 DFT Correlation      Energy =  -0.38499856074929
 DFT Exchange         Energy =  -5.18318824668671
 One-Electron (alpha) Energy = -40.38005692960724
 One-Electron (beta)  Energy = -40.38005692960728
 Total Coulomb        Energy =  32.31806398528132
    3     -40.2285660750      1.22e-02  
 Alpha HF Exchange    Energy =  -0.67640345856558
 Beta HF Exchange     Energy =  -0.67640345856558
 DFT Correlation      Energy =  -0.39480149326764
 DFT Exchange         Energy =  -5.34284963914062
 One-Electron (alpha) Energy = -41.27666383441827
 One-Electron (beta)  Energy = -41.27666383441824
 Total Coulomb        Energy =  34.22305807571903
    4     -40.3250648345      2.10e-04  
 Alpha HF Exchange    Energy =  -0.67606911460446
 Beta HF Exchange     Energy =  -0.67606911460446
 DFT Correlation      Energy =  -0.39464694561531
 DFT Exchange         Energy =  -5.34014812764288
 One-Electron (alpha) Energy = -41.26353289772344
 One-Electron (beta)  Energy = -41.26353289772344
 Total Coulomb        Energy =  34.19324254391108
    5     -40.3250937458      6.13e-05  
 Alpha HF Exchange    Energy =  -0.67610908350072
 Beta HF Exchange     Energy =  -0.67610908350072
 DFT Correlation      Energy =  -0.39466474020538
 DFT Exchange         Energy =  -5.34047994810717
 One-Electron (alpha) Energy = -41.26511405551388
 One-Electron (beta)  Energy = -41.26511405551387
 Total Coulomb        Energy =  34.19683245119329
    6     -40.3250957070      7.67e-06  
 Alpha HF Exchange    Energy =  -0.67612042976125
 Beta HF Exchange     Energy =  -0.67612042976125
 DFT Correlation      Energy =  -0.39466999959606
 DFT Exchange         Energy =  -5.34057138647838
 One-Electron (alpha) Energy = -41.26558752865703
 One-Electron (beta)  Energy = -41.26558752865702
 Total Coulomb        Energy =  34.19789874807478
    7     -40.3250957467      2.11e-07  Convergence criterion met
 ---------------------------------------
 SCF time:   CPU 15.67s  wall 2.00s 
<S^2> =          0.000000000
 Alpha HF Exchange    Energy =  -0.67612042976125
 Beta HF Exchange     Energy =  -0.67612042976125
 DFT Correlation      Energy =  -0.39466999959606
 DFT Exchange         Energy =  -5.34057138647838
 One-Electron (alpha) Energy = -41.26558752865703
 One-Electron (beta)  Energy = -41.26558752865702
 Total Coulomb        Energy =  34.19789874807478
 Nuclear repulsion Energy =  15.09566280816660
 SCF   energy in the final basis set =      -40.3250957467
 Total energy in the final basis set =      -40.3250957467
 
 --------------------------------------------------------------
 
                    Orbital Energies (a.u.)
 --------------------------------------------------------------
 
 Alpha MOs
 -- Occupied --
-10.138  -0.738  -0.450  -0.384  -0.384
 -- Virtual --
  0.128   0.174   0.174   0.255   0.445   0.536   0.536   0.866
  0.866   0.924   1.134   1.302   1.381   1.381   2.061   2.067
  2.067   2.129   2.129   2.417   2.719   2.719   2.756   3.196
  3.292   3.293   3.439   3.439   4.403   5.711
 
 Beta MOs
 -- Occupied --
-10.138  -0.738  -0.450  -0.384  -0.384
 -- Virtual --
  0.128   0.174   0.174   0.255   0.445   0.536   0.536   0.866
  0.866   0.924   1.134   1.302   1.381   1.381   2.061   2.067
  2.067   2.129   2.129   2.417   2.719   2.719   2.756   3.196
  3.292   3.293   3.439   3.439   4.403   5.711
 --------------------------------------------------------------
 
          Ground-State Mulliken Net Atomic Charges

     Atom                 Charge (a.u.)    Spin (a.u.)
  --------------------------------------------------------
      1 H                     0.088727       0.000000
      2 C                    -0.394001      -0.000000
      3 H                     0.101764      -0.000000
      4 H                     0.101773      -0.000000
      5 H                     0.101736       0.000000
  --------------------------------------------------------
  Sum of atomic charges =     0.000000
  Sum of spin   charges =    -0.000000

 -----------------------------------------------------------------
                    Cartesian Multipole Moments
 -----------------------------------------------------------------
    Charge (ESU x 10^10)
                 0.0000
    Dipole Moment (Debye)
         X       0.0133      Y       0.0041      Z       0.0239
       Tot       0.0276
    Quadrupole Moments (Debye-Ang)
        XX      -7.9325     XY      -0.0037     YY      -7.9205
        XZ      -0.0215     YZ      -0.0063     ZZ      -7.9569
    Octopole Moments (Debye-Ang^2)
       XXX      -0.8070    XXY      -0.0824    XYY       0.1927
       YYY      -0.1902    XXZ       0.0359    XYZ       0.0362
       YYZ      -0.5777    XZZ       0.1049    YZZ       0.1194
       ZZZ      -0.3540
    Hexadecapole Moments (Debye-Ang^3)
      XXXX     -13.5369   XXXY       0.2092   XXYY      -4.9874
      XYYY       0.0134   YYYY     -14.6470   XXXZ       0.7466
      XXYZ       0.1202   XYYZ       0.1025   YYYZ       0.2786
      XXZZ      -4.4179   XYZZ       0.0913   YYZZ      -4.2423
      XZZZ       0.9760   YZZZ       0.1574   ZZZZ     -12.0819
 -----------------------------------------------------------------
 Calculating analytic gradient of the SCF energy
 Gradient of SCF Energy
            1           2           3           4           5
    1  -0.4057976   0.4069305  -0.0002480  -0.0002154  -0.0006694
    2  -0.1238178   0.1241586   0.0001951  -0.0004313  -0.0001046
    3  -0.7188430   0.7208181  -0.0007929  -0.0007264  -0.0004557
 Max gradient component =       7.208E-01
 RMS gradient           =       3.052E-01
 Gradient time:  CPU 4.59 s  wall 0.61 s
 Geometry Optimization Parameters
   NAtoms,    NIC,     NZ,  NCons,   NDum,   NFix, NCnnct, MaxDiis
        5      20       0       1       0       0       0       0

 Cartesian Hessian Update
 Hessian Updated using BFGS Update


** CONSTRAINED OPTIMIZATION IN DELOCALIZED INTERNAL COORDINATES **
   Searching for a Minimum

   Optimization Cycle:   4

                       Coordinates (Angstroms)
     ATOM                X               Y               Z
      1  H         0.3965575787    0.1208518624    0.7021734549
      2  C         0.0474619988    0.0143767378    0.0837564047
      3  H         0.2299329360    0.8247632914   -0.6253289885
      4  H         0.3581223575   -0.9149888764   -0.3984440249
      5  H        -1.0321748710   -0.0451030151    0.2376431538
   Point Group: c1    Number of degrees of freedom:     9


   Energy is    -40.325095747

              Constraints and their Current Values
                                        Value     Constraint
   Distance(Angs):        1   2             0.718084     0.700000
 Hessian Updated using BFGS Update

   Using Lagrange Multiplier Algorithm


  9 Hessian modes will be used to form the next step
  Hessian Eigenvalues:
    -0.371629    0.160000    0.160000    0.160000    0.160325    0.351124
     0.351633    0.351655    2.691360

 Minimum Search - Taking P-RFO Step
 Searching for Lamda that Maximizes Along the Constraint modes Only
 Value Taken    Lamda =   0.01975245
 Searching for Lamda that Minimizes Along All other modes
 Value Taken    Lamda =  -0.00711976
 Step Taken.  Stepsize is  0.030910

                             Maximum     Tolerance    Cnvgd?
         Gradient            0.160435       0.000300      NO
         Displacement        0.228511       0.001200      NO
         Energy change      0.091045       0.000001      NO


 New Cartesian Coordinates Obtained by Inverse Iteration

 Displacement from previous Coordinates is:  0.030708
 ----------------------------------------------------------------
             Standard Nuclear Orientation (Angstroms)
    I     Atom           X                Y                Z
 ----------------------------------------------------------------
    1      H       0.3896094198     0.1187991227     0.6897515596
    2      C       0.0482089715     0.0145559507     0.0851273680
    3      H       0.2319542750     0.8252111254    -0.6215231998
    4      H       0.3601112708    -0.9142022670    -0.3947670689
    5      H      -1.0299839372    -0.0444639319     0.2412113411
 ----------------------------------------------------------------
 Nuclear Repulsion Energy =    15.2152944311 hartrees
 There are        5 alpha and        5 beta electrons

                       Distance Matrix (Angstroms)
             H (  1)   C (  2)   H (  3)   H (  4)
   C (  2)  0.702133
   H (  3)  1.497770  1.090999
   H (  4)  1.498046  1.090951  1.758807
   H (  5)  1.497694  1.091030  1.758731  1.758772
 
 Applying Cartesian multipole field
    Component          Value
    ---------          -----
     (2,0,0)        1.00000E-10
     (0,2,0)        2.00000E-10
     (0,0,2)       -3.00000E-10
 Nucleus-field energy     =     0.0000000004 hartrees
 Requested basis set is 6-31G(d,p)
 There are 16 shells and 35 basis functions
 A cutoff of  1.0D-14 yielded    136 shell pairs
 There are       669 function pairs
 Smallest overlap matrix eigenvalue = 8.22E-03
 Guess from superposition of atomic densities
 Warning:  Energy on first SCF cycle will be non-variational
 SAD guess density has 10.000000 electrons

 -----------------------------------------------------------------------
  General SCF calculation program by
  Eric Jon Sundstrom, Paul Horn, Yuezhi Mao, Dmitri Zuev, Alec White,
  David Stuck, Shaama M.S., Shane Yost, Joonho Lee, David Small,
  Daniel Levine, Susi Lehtola, Hugh Burton, Evgeny Epifanovsky
 -----------------------------------------------------------------------
 Exchange:     0.2000 Hartree-Fock + 0.0800 Slater + 0.7200 B88
 Correlation:  0.1900 VWN1RPA + 0.8100 LYP
 Using SG-1 standard quadrature grid
 using 12 threads for integral computing
 -------------------------------------------------------
 OpenMP Integral computing Module                
 Release: version 1.0, May 2013, Q-Chem Inc. Pittsburgh 
 -------------------------------------------------------
 -------------------------------------------------------
 OpenMP BLAS3 based DFT computing Module                
 Release: version 1.0, May 2013, Q-Chem Inc. Pittsburgh 
 -------------------------------------------------------
 A unrestricted SCF calculation will be
 performed using DIIS
 SCF converges when DIIS error is below 1.0e-06
 Alpha HF Exchange    Energy =  -0.67687825412055
 Beta HF Exchange     Energy =  -0.67687825412055
 DFT Correlation      Energy =  -0.38348326782970
 DFT Exchange         Energy =  -5.08107505638295
 One-Electron (alpha) Energy = -40.43997644289787
 One-Electron (beta)  Energy = -40.43997644289787
 Total Coulomb        Energy =  32.02193884440779
 ---------------------------------------
  Cycle       Energy         DIIS error
 ---------------------------------------
    1     -40.4610344424      6.39e-02  
 Alpha HF Exchange    Energy =  -0.70053915030499
 Beta HF Exchange     Energy =  -0.70053915030499
 DFT Correlation      Energy =  -0.40551703324693
 DFT Exchange         Energy =  -5.53830930345897
 One-Electron (alpha) Energy = -42.25898642090334
 One-Electron (beta)  Energy = -42.25898642090334
 Total Coulomb        Energy =  36.46673815700910
    2     -40.1808448906      1.38e-02  
 Alpha HF Exchange    Energy =  -0.65765701011171
 Beta HF Exchange     Energy =  -0.65765701011171
 DFT Correlation      Energy =  -0.38524019261431
 DFT Exchange         Energy =  -5.18838829709590
 One-Electron (alpha) Energy = -40.44651565236776
 One-Electron (beta)  Energy = -40.44651565236777
 Total Coulomb        Energy =  32.36815686253389
    3     -40.1985225207      1.25e-02  
 Alpha HF Exchange    Energy =  -0.67752491669645
 Beta HF Exchange     Energy =  -0.67752491669645
 DFT Correlation      Energy =  -0.39522651576585
 DFT Exchange         Energy =  -5.35168596110296
 One-Electron (alpha) Energy = -41.36249001450503
 One-Electron (beta)  Energy = -41.36249001450504
 Total Coulomb        Energy =  34.31307076662727
    4     -40.2985771412      2.27e-04  
 Alpha HF Exchange    Energy =  -0.67715905938749
 Beta HF Exchange     Energy =  -0.67715905938749
 DFT Correlation      Energy =  -0.39505739761304
 DFT Exchange         Energy =  -5.34872843073700
 One-Electron (alpha) Energy = -41.34807357131634
 One-Electron (beta)  Energy = -41.34807357131631
 Total Coulomb        Energy =  34.28034543967964
    5     -40.2986112186      6.53e-05  
 Alpha HF Exchange    Energy =  -0.67720086640952
 Beta HF Exchange     Energy =  -0.67720086640952
 DFT Correlation      Energy =  -0.39507604332370
 DFT Exchange         Energy =  -5.34907547159994
 One-Electron (alpha) Energy = -41.34973161767532
 One-Electron (beta)  Energy = -41.34973161767535
 Total Coulomb        Energy =  34.28410862107358
    6     -40.2986134305      7.97e-06  
 Alpha HF Exchange    Energy =  -0.67721287741260
 Beta HF Exchange     Energy =  -0.67721287741260
 DFT Correlation      Energy =  -0.39508158095049
 DFT Exchange         Energy =  -5.34917219242912
 One-Electron (alpha) Energy = -41.35023121255922
 One-Electron (beta)  Energy = -41.35023121255924
 Total Coulomb        Energy =  34.28523404845274
    7     -40.2986134734      2.19e-07  Convergence criterion met
 ---------------------------------------
 SCF time:   CPU 15.70s  wall 2.00s 
<S^2> =         -0.000000000
 Alpha HF Exchange    Energy =  -0.67721287741260
 Beta HF Exchange     Energy =  -0.67721287741260
 DFT Correlation      Energy =  -0.39508158095049
 DFT Exchange         Energy =  -5.34917219242912
 One-Electron (alpha) Energy = -41.35023121255922
 One-Electron (beta)  Energy = -41.35023121255924
 Total Coulomb        Energy =  34.28523404845274
 Nuclear repulsion Energy =  15.21529443147538
 SCF   energy in the final basis set =      -40.2986134734
 Total energy in the final basis set =      -40.2986134734
 
 --------------------------------------------------------------
 
                    Orbital Energies (a.u.)
 --------------------------------------------------------------
 
 Alpha MOs
 -- Occupied --
-10.138  -0.741  -0.452  -0.384  -0.384
 -- Virtual --
  0.128   0.175   0.175   0.257   0.441   0.536   0.536   0.866
  0.866   0.926   1.136   1.325   1.383   1.383   2.061   2.069
  2.069   2.136   2.136   2.434   2.725   2.726   2.758   3.200
  3.320   3.320   3.439   3.439   4.402   5.932
 
 Beta MOs
 -- Occupied --
-10.138  -0.741  -0.452  -0.384  -0.384
 -- Virtual --
  0.128   0.175   0.175   0.257   0.441   0.536   0.536   0.866
  0.866   0.926   1.136   1.325   1.383   1.383   2.061   2.069
  2.069   2.136   2.136   2.434   2.725   2.726   2.758   3.200
  3.320   3.320   3.439   3.439   4.402   5.932
 --------------------------------------------------------------
 
          Ground-State Mulliken Net Atomic Charges

     Atom                 Charge (a.u.)    Spin (a.u.)
  --------------------------------------------------------
      1 H                     0.081485       0.000000
      2 C                    -0.384726      -0.000000
      3 H                     0.101076       0.000000
      4 H                     0.101105       0.000000
      5 H                     0.101060       0.000000
  --------------------------------------------------------
  Sum of atomic charges =    -0.000000
  Sum of spin   charges =    -0.000000

 -----------------------------------------------------------------
                    Cartesian Multipole Moments
 -----------------------------------------------------------------
    Charge (ESU x 10^10)
                -0.0000
    Dipole Moment (Debye)
         X       0.0125      Y       0.0039      Z       0.0223
       Tot       0.0258
    Quadrupole Moments (Debye-Ang)
        XX      -7.9101     XY      -0.0052     YY      -7.8935
        XZ      -0.0308     YZ      -0.0088     ZZ      -7.9462
    Octopole Moments (Debye-Ang^2)
       XXX      -0.8025    XXY      -0.0825    XYY       0.1959
       YYY      -0.1870    XXZ       0.0341    XYZ       0.0341
       YYZ      -0.5736    XZZ       0.0953    YZZ       0.1167
       ZZZ      -0.3611
    Hexadecapole Moments (Debye-Ang^3)
      XXXX     -13.4626   XXXY       0.2126   XXYY      -4.9635
      XYYY       0.0189   YYYY     -14.5949   XXXZ       0.7716
      XXYZ       0.1222   XYYZ       0.1124   YYYZ       0.2860
      XXZZ      -4.3820   XYZZ       0.0919   YYZZ      -4.2125
      XZZZ       0.9970   YZZZ       0.1654   ZZZZ     -11.9461
 -----------------------------------------------------------------
 Calculating analytic gradient of the SCF energy
 Gradient of SCF Energy
            1           2           3           4           5
    1  -0.4494599   0.4498553  -0.0001158  -0.0001364  -0.0001432
    2  -0.1372429   0.1373437  -0.0000192  -0.0000560  -0.0000256
    3  -0.7960053   0.7966417  -0.0002094  -0.0002422  -0.0001847
 Max gradient component =       7.966E-01
 RMS gradient           =       3.377E-01
 Gradient time:  CPU 4.54 s  wall 0.60 s
 Geometry Optimization Parameters
   NAtoms,    NIC,     NZ,  NCons,   NDum,   NFix, NCnnct, MaxDiis
        5      20       0       1       0       0       0       0

 Cartesian Hessian Update
 Hessian Updated using BFGS Update


** CONSTRAINED OPTIMIZATION IN DELOCALIZED INTERNAL COORDINATES **
   Searching for a Minimum

   Optimization Cycle:   5

                       Coordinates (Angstroms)
     ATOM                X               Y               Z
      1  H         0.3896094198    0.1187991227    0.6897515596
      2  C         0.0482089715    0.0145559507    0.0851273680
      3  H         0.2319542750    0.8252111254   -0.6215231998
      4  H         0.3601112708   -0.9142022670   -0.3947670689
      5  H        -1.0299839372   -0.0444639319    0.2412113411
   Point Group: c1    Number of degrees of freedom:     9


   Energy is    -40.298613473

              Constraints and their Current Values
                                        Value     Constraint
   Distance(Angs):        1   2             0.702133     0.700000
 Hessian Updated using BFGS Update

   Using Lagrange Multiplier Algorithm


 10 Hessian modes will be used to form the next step
  Hessian Eigenvalues:
    -0.304742    0.159793    0.160000    0.160000    0.160000    0.160001
     0.350848    0.351633    0.351655    3.281857

 Minimum Search - Taking P-RFO Step
 Searching for Lamda that Maximizes Along the Constraint modes Only
 Value Taken    Lamda =   0.00033763
 Searching for Lamda that Minimizes Along All other modes
 Value Taken    Lamda =  -0.00011765
 Step Taken.  Stepsize is  0.005381

                             Maximum     Tolerance    Cnvgd?
         Gradient            0.021594       0.000300      NO
         Displacement        0.033545       0.001200      NO
         Energy change      0.026482       0.000001      NO


 New Cartesian Coordinates Obtained by Inverse Iteration

 Displacement from previous Coordinates is:  0.006095
 ----------------------------------------------------------------
             Standard Nuclear Orientation (Angstroms)
    I     Atom           X                Y                Z
 ----------------------------------------------------------------
    1      H       0.3883678520     0.1183884340     0.6875129836
    2      C       0.0479660183     0.0144943624     0.0847357254
    3      H       0.2325765073     0.8256601985    -0.6207804714
    4      H       0.3607827374    -0.9143297323    -0.3939181881
    5      H      -1.0297931150    -0.0443132627     0.2422499505
 ----------------------------------------------------------------
 Nuclear Repulsion Energy =    15.2322402149 hartrees
 There are        5 alpha and        5 beta electrons

                       Distance Matrix (Angstroms)
             H (  1)   C (  2)   H (  3)   H (  4)
   C (  2)  0.700006
   H (  3)  1.495372  1.090791
   H (  4)  1.495581  1.090724  1.759394
   H (  5)  1.495296  1.090795  1.759333  1.759358
 
 Applying Cartesian multipole field
    Component          Value
    ---------          -----
     (2,0,0)        1.00000E-10
     (0,2,0)        2.00000E-10
     (0,0,2)       -3.00000E-10
 Nucleus-field energy     =     0.0000000004 hartrees
 Requested basis set is 6-31G(d,p)
 There are 16 shells and 35 basis functions
 A cutoff of  1.0D-14 yielded    136 shell pairs
 There are       669 function pairs
 Smallest overlap matrix eigenvalue = 8.15E-03
 Guess from superposition of atomic densities
 Warning:  Energy on first SCF cycle will be non-variational
 SAD guess density has 10.000000 electrons

 -----------------------------------------------------------------------
  General SCF calculation program by
  Eric Jon Sundstrom, Paul Horn, Yuezhi Mao, Dmitri Zuev, Alec White,
  David Stuck, Shaama M.S., Shane Yost, Joonho Lee, David Small,
  Daniel Levine, Susi Lehtola, Hugh Burton, Evgeny Epifanovsky
 -----------------------------------------------------------------------
 Exchange:     0.2000 Hartree-Fock + 0.0800 Slater + 0.7200 B88
 Correlation:  0.1900 VWN1RPA + 0.8100 LYP
 Using SG-1 standard quadrature grid
 using 12 threads for integral computing
 -------------------------------------------------------
 OpenMP Integral computing Module                
 Release: version 1.0, May 2013, Q-Chem Inc. Pittsburgh 
 -------------------------------------------------------
 -------------------------------------------------------
 OpenMP BLAS3 based DFT computing Module                
 Release: version 1.0, May 2013, Q-Chem Inc. Pittsburgh 
 -------------------------------------------------------
 A unrestricted SCF calculation will be
 performed using DIIS
 SCF converges when DIIS error is below 1.0e-06
 Alpha HF Exchange    Energy =  -0.67710246165171
 Beta HF Exchange     Energy =  -0.67710246165171
 DFT Correlation      Energy =  -0.38351843448398
 DFT Exchange         Energy =  -5.08156363975349
 One-Electron (alpha) Energy = -40.45021919407987
 One-Electron (beta)  Energy = -40.45021919407987
 Total Coulomb        Energy =  32.02799749826716
 ---------------------------------------
  Cycle       Energy         DIIS error
 ---------------------------------------
    1     -40.4594876721      6.41e-02  
 Alpha HF Exchange    Energy =  -0.70077783336876
 Beta HF Exchange     Energy =  -0.70077783336876
 DFT Correlation      Energy =  -0.40560473621398
 DFT Exchange         Energy =  -5.54017277231283
 One-Electron (alpha) Energy = -42.27378348706658
 One-Electron (beta)  Energy = -42.27378348706662
 Total Coulomb        Energy =  36.48626086597809
    2     -40.1763990681      1.38e-02  
 Alpha HF Exchange    Energy =  -0.65775094616557
 Beta HF Exchange     Energy =  -0.65775094616557
 DFT Correlation      Energy =  -0.38527690773704
 DFT Exchange         Energy =  -5.18912686213213
 One-Electron (alpha) Energy = -40.45615771219303
 One-Electron (beta)  Energy = -40.45615771219304
 Total Coulomb        Energy =  32.37565713006014
    3     -40.1943237412      1.25e-02  
 Alpha HF Exchange    Energy =  -0.67768460521373
 Beta HF Exchange     Energy =  -0.67768460521373
 DFT Correlation      Energy =  -0.39528758084965
 DFT Exchange         Energy =  -5.35293876982199
 One-Electron (alpha) Energy = -41.37472128650482
 One-Electron (beta)  Energy = -41.37472128650482
 Total Coulomb        Energy =  34.32596275073405
    4     -40.2948351681      2.31e-04  
 Alpha HF Exchange    Energy =  -0.67731428257747
 Beta HF Exchange     Energy =  -0.67731428257747
 DFT Correlation      Energy =  -0.39511636725602
 DFT Exchange         Energy =  -5.34994472863307
 One-Electron (alpha) Energy = -41.36011902482004
 One-Electron (beta)  Energy = -41.36011902482004
 Total Coulomb        Energy =  34.29281735258095
    5     -40.2948701428      6.60e-05  
 Alpha HF Exchange    Energy =  -0.67735623003838
 Beta HF Exchange     Energy =  -0.67735623003838
 DFT Correlation      Energy =  -0.39513511033461
 DFT Exchange         Energy =  -5.35029304974247
 One-Electron (alpha) Energy = -41.36178602794719
 One-Electron (beta)  Energy = -41.36178602794721
 Total Coulomb        Energy =  34.29660005939256
    6     -40.2948724014      8.00e-06  
 Alpha HF Exchange    Energy =  -0.67736835537374
 Beta HF Exchange     Energy =  -0.67736835537374
 DFT Correlation      Energy =  -0.39514069104318
 DFT Exchange         Energy =  -5.35039067822464
 One-Electron (alpha) Energy = -41.36228966784649
 One-Electron (beta)  Energy = -41.36228966784652
 Total Coulomb        Energy =  34.29773475583333
    7     -40.2948724446      2.19e-07  Convergence criterion met
 ---------------------------------------
 SCF time:   CPU 15.62s  wall 1.00s 
<S^2> =         -0.000000000
 Alpha HF Exchange    Energy =  -0.67736835537374
 Beta HF Exchange     Energy =  -0.67736835537374
 DFT Correlation      Energy =  -0.39514069104318
 DFT Exchange         Energy =  -5.35039067822464
 One-Electron (alpha) Energy = -41.36228966784649
 One-Electron (beta)  Energy = -41.36228966784652
 Total Coulomb        Energy =  34.29773475583333
 Nuclear repulsion Energy =  15.23224021529974
 SCF   energy in the final basis set =      -40.2948724446
 Total energy in the final basis set =      -40.2948724446
 
 --------------------------------------------------------------
 
                    Orbital Energies (a.u.)
 --------------------------------------------------------------
 
 Alpha MOs
 -- Occupied --
-10.138  -0.741  -0.452  -0.384  -0.384
 -- Virtual --
  0.128   0.175   0.175   0.257   0.441   0.536   0.536   0.866
  0.866   0.926   1.136   1.328   1.383   1.383   2.061   2.069
  2.069   2.137   2.137   2.437   2.727   2.727   2.757   3.201
  3.324   3.324   3.438   3.438   4.402   5.963
 
 Beta MOs
 -- Occupied --
-10.138  -0.741  -0.452  -0.384  -0.384
 -- Virtual --
  0.128   0.175   0.175   0.257   0.441   0.536   0.536   0.866
  0.866   0.926   1.136   1.328   1.383   1.383   2.061   2.069
  2.069   2.137   2.137   2.437   2.727   2.727   2.757   3.201
  3.324   3.324   3.438   3.438   4.402   5.963
 --------------------------------------------------------------
 
          Ground-State Mulliken Net Atomic Charges

     Atom                 Charge (a.u.)    Spin (a.u.)
  --------------------------------------------------------
      1 H                     0.080613      -0.000000
      2 C                    -0.383520       0.000000
      3 H                     0.100963       0.000000
      4 H                     0.100991      -0.000000
      5 H                     0.100954      -0.000000
  --------------------------------------------------------
  Sum of atomic charges =    -0.000000
  Sum of spin   charges =     0.000000

 -----------------------------------------------------------------
                    Cartesian Multipole Moments
 -----------------------------------------------------------------
    Charge (ESU x 10^10)
                -0.0000
    Dipole Moment (Debye)
         X       0.0133      Y       0.0041      Z       0.0236
       Tot       0.0274
    Quadrupole Moments (Debye-Ang)
        XX      -7.9061     XY      -0.0058     YY      -7.8880
        XZ      -0.0340     YZ      -0.0099     ZZ      -7.9462
    Octopole Moments (Debye-Ang^2)
       XXX      -0.7971    XXY      -0.0823    XYY       0.1994
       YYY      -0.1850    XXZ       0.0372    XYZ       0.0335
       YYZ      -0.5704    XZZ       0.0947    YZZ       0.1167
       ZZZ      -0.3537
    Hexadecapole Moments (Debye-Ang^3)
      XXXX     -13.4520   XXXY       0.2131   XXYY      -4.9598
      XYYY       0.0198   YYYY     -14.5876   XXXZ       0.7755
      XXYZ       0.1226   XYYZ       0.1139   YYYZ       0.2870
      XXZZ      -4.3759   XYZZ       0.0923   YYZZ      -4.2086
      XZZZ       1.0015   YZZZ       0.1671   ZZZZ     -11.9243
 -----------------------------------------------------------------
 Calculating analytic gradient of the SCF energy
 Gradient of SCF Energy
            1           2           3           4           5
    1  -0.4556311   0.4557048  -0.0000190  -0.0000415  -0.0000133
    2  -0.1390780   0.1390745  -0.0000025   0.0000004   0.0000057
    3  -0.8068473   0.8069377  -0.0000247  -0.0000492  -0.0000165
 Max gradient component =       8.069E-01
 RMS gradient           =       3.422E-01
 Gradient time:  CPU 4.74 s  wall 0.66 s
 Geometry Optimization Parameters
   NAtoms,    NIC,     NZ,  NCons,   NDum,   NFix, NCnnct, MaxDiis
        5      20       0       1       0       0       0       0

 Cartesian Hessian Update
 Hessian Updated using BFGS Update


** CONSTRAINED OPTIMIZATION IN DELOCALIZED INTERNAL COORDINATES **
   Searching for a Minimum

   Optimization Cycle:   6

                       Coordinates (Angstroms)
     ATOM                X               Y               Z
      1  H         0.3883678520    0.1183884340    0.6875129836
      2  C         0.0479660183    0.0144943624    0.0847357254
      3  H         0.2325765073    0.8256601985   -0.6207804714
      4  H         0.3607827374   -0.9143297323   -0.3939181881
      5  H        -1.0297931150   -0.0443132627    0.2422499505
   Point Group: c1    Number of degrees of freedom:     9


   Energy is    -40.294872445

              Constraints and their Current Values
                                        Value     Constraint
   Distance(Angs):        1   2             0.700006     0.700000
 Hessian Updated using BFGS Update

   Using Lagrange Multiplier Algorithm


 10 Hessian modes will be used to form the next step
  Hessian Eigenvalues:
    -0.290137    0.157744    0.160000    0.160000    0.160000    0.160000
     0.350678    0.351634    0.351654    3.448373

 Minimum Search - Taking P-RFO Step
 Searching for Lamda that Maximizes Along the Constraint modes Only
 Value Taken    Lamda =   0.00000013
 Searching for Lamda that Minimizes Along All other modes
 Value Taken    Lamda =  -0.00000016
 Step Taken.  Stepsize is  0.000570

                             Maximum     Tolerance    Cnvgd?
         Gradient            0.000658       0.000300      NO
         Displacement        0.000678       0.001200     YES
         Energy change      0.003741       0.000001      NO


 New Cartesian Coordinates Obtained by Inverse Iteration

 Displacement from previous Coordinates is:  0.000546
 ----------------------------------------------------------------
             Standard Nuclear Orientation (Angstroms)
    I     Atom           X                Y                Z
 ----------------------------------------------------------------
    1      H       0.3883004398     0.1183628505     0.6873876138
    2      C       0.0478945523     0.0144778334     0.0846175623
    3      H       0.2326496323     0.8257359388    -0.6207264179
    4      H       0.3608679310    -0.9143780505    -0.3938456680
    5      H      -1.0298125554    -0.0442985721     0.2423669099
 ----------------------------------------------------------------
 Nuclear Repulsion Energy =    15.2324306360 hartrees
 There are        5 alpha and        5 beta electrons

                       Distance Matrix (Angstroms)
             H (  1)   C (  2)   H (  3)   H (  4)
   C (  2)  0.700000
   H (  3)  1.495248  1.090772
   H (  4)  1.495450  1.090712  1.759520
   H (  5)  1.495174  1.090776  1.759460  1.759488
 
 Applying Cartesian multipole field
    Component          Value
    ---------          -----
     (2,0,0)        1.00000E-10
     (0,2,0)        2.00000E-10
     (0,0,2)       -3.00000E-10
 Nucleus-field energy     =     0.0000000004 hartrees
 Requested basis set is 6-31G(d,p)
 There are 16 shells and 35 basis functions
 A cutoff of  1.0D-14 yielded    136 shell pairs
 There are       669 function pairs
 Smallest overlap matrix eigenvalue = 8.14E-03
 Guess from superposition of atomic densities
 Warning:  Energy on first SCF cycle will be non-variational
 SAD guess density has 10.000000 electrons

 -----------------------------------------------------------------------
  General SCF calculation program by
  Eric Jon Sundstrom, Paul Horn, Yuezhi Mao, Dmitri Zuev, Alec White,
  David Stuck, Shaama M.S., Shane Yost, Joonho Lee, David Small,
  Daniel Levine, Susi Lehtola, Hugh Burton, Evgeny Epifanovsky
 -----------------------------------------------------------------------
 Exchange:     0.2000 Hartree-Fock + 0.0800 Slater + 0.7200 B88
 Correlation:  0.1900 VWN1RPA + 0.8100 LYP
 Using SG-1 standard quadrature grid
 using 12 threads for integral computing
 -------------------------------------------------------
 OpenMP Integral computing Module                
 Release: version 1.0, May 2013, Q-Chem Inc. Pittsburgh 
 -------------------------------------------------------
 -------------------------------------------------------
 OpenMP BLAS3 based DFT computing Module                
 Release: version 1.0, May 2013, Q-Chem Inc. Pittsburgh 
 -------------------------------------------------------
 A unrestricted SCF calculation will be
 performed using DIIS
 SCF converges when DIIS error is below 1.0e-06
 Alpha HF Exchange    Energy =  -0.67710659131625
 Beta HF Exchange     Energy =  -0.67710659131625
 DFT Correlation      Energy =  -0.38351904316208
 DFT Exchange         Energy =  -5.08157171667887
 One-Electron (alpha) Energy = -40.45036360958690
 One-Electron (beta)  Energy = -40.45036360958690
 Total Coulomb        Energy =  32.02809490768473
 ---------------------------------------
  Cycle       Energy         DIIS error
 ---------------------------------------
    1     -40.4595056176      6.41e-02  
 Alpha HF Exchange    Energy =  -0.70078138495236
 Beta HF Exchange     Energy =  -0.70078138495236
 DFT Correlation      Energy =  -0.40560597302195
 DFT Exchange         Energy =  -5.54019795901725
 One-Electron (alpha) Energy = -42.27398539725664
 One-Electron (beta)  Energy = -42.27398539725667
 Total Coulomb        Energy =  36.48652197715298
    2     -40.1763848829      1.38e-02  
 Alpha HF Exchange    Energy =  -0.65775261050113
 Beta HF Exchange     Energy =  -0.65775261050113
 DFT Correlation      Energy =  -0.38527806153341
 DFT Exchange         Energy =  -5.18913929248331
 One-Electron (alpha) Energy = -40.45634613338801
 One-Electron (beta)  Energy = -40.45634613338797
 Total Coulomb        Energy =  32.37586455099468
    3     -40.1943196544      1.25e-02  
 Alpha HF Exchange    Energy =  -0.67768701874816
 Beta HF Exchange     Energy =  -0.67768701874816
 DFT Correlation      Energy =  -0.39528864145065
 DFT Exchange         Energy =  -5.35295599249612
 One-Electron (alpha) Energy = -41.37490271992817
 One-Electron (beta)  Energy = -41.37490271992814
 Total Coulomb        Energy =  34.32616818969892
    4     -40.2948252852      2.31e-04  
 Alpha HF Exchange    Energy =  -0.67731666431907
 Beta HF Exchange     Energy =  -0.67731666431907
 DFT Correlation      Energy =  -0.39511740648744
 DFT Exchange         Energy =  -5.34996163946283
 One-Electron (alpha) Energy = -41.36029843418914
 One-Electron (beta)  Energy = -41.36029843418918
 Total Coulomb        Energy =  34.29301831286537
    5     -40.2948602937      6.60e-05  
 Alpha HF Exchange    Energy =  -0.67735858936057
 Beta HF Exchange     Energy =  -0.67735858936057
 DFT Correlation      Energy =  -0.39513614578916
 DFT Exchange         Energy =  -5.35030979961672
 One-Electron (alpha) Energy = -41.36196512953967
 One-Electron (beta)  Energy = -41.36196512953966
 Total Coulomb        Energy =  34.29680019204856
    6     -40.2948625547      8.00e-06  
 Alpha HF Exchange    Energy =  -0.67737072004356
 Beta HF Exchange     Energy =  -0.67737072004356
 DFT Correlation      Energy =  -0.39514172777406
 DFT Exchange         Energy =  -5.35040747043825
 One-Electron (alpha) Energy = -41.36246888726061
 One-Electron (beta)  Energy = -41.36246888726066
 Total Coulomb        Energy =  34.29793517845707
    7     -40.2948625980      2.19e-07  Convergence criterion met
 ---------------------------------------
 SCF time:   CPU 15.51s  wall 2.00s 
<S^2> =         -0.000000000
 Alpha HF Exchange    Energy =  -0.67737072004356
 Beta HF Exchange     Energy =  -0.67737072004356
 DFT Correlation      Energy =  -0.39514172777406
 DFT Exchange         Energy =  -5.35040747043825
 One-Electron (alpha) Energy = -41.36246888726061
 One-Electron (beta)  Energy = -41.36246888726066
 Total Coulomb        Energy =  34.29793517845707
 Nuclear repulsion Energy =  15.23243063640841
 SCF   energy in the final basis set =      -40.2948625980
 Total energy in the final basis set =      -40.2948625980
 
 --------------------------------------------------------------
 
                    Orbital Energies (a.u.)
 --------------------------------------------------------------
 
 Alpha MOs
 -- Occupied --
-10.138  -0.741  -0.452  -0.384  -0.384
 -- Virtual --
  0.128   0.175   0.175   0.257   0.441   0.536   0.536   0.866
  0.866   0.926   1.136   1.328   1.383   1.383   2.061   2.069
  2.069   2.137   2.137   2.437   2.727   2.727   2.757   3.202
  3.324   3.324   3.438   3.438   4.402   5.963
 
 Beta MOs
 -- Occupied --
-10.138  -0.741  -0.452  -0.384  -0.384
 -- Virtual --
  0.128   0.175   0.175   0.257   0.441   0.536   0.536   0.866
  0.866   0.926   1.136   1.328   1.383   1.383   2.061   2.069
  2.069   2.137   2.137   2.437   2.727   2.727   2.757   3.202
  3.324   3.324   3.438   3.438   4.402   5.963
 --------------------------------------------------------------
 
          Ground-State Mulliken Net Atomic Charges

     Atom                 Charge (a.u.)    Spin (a.u.)
  --------------------------------------------------------
      1 H                     0.080638       0.000000
      2 C                    -0.383531      -0.000000
      3 H                     0.100959      -0.000000
      4 H                     0.100984       0.000000
      5 H                     0.100950       0.000000
  --------------------------------------------------------
  Sum of atomic charges =    -0.000000
  Sum of spin   charges =    -0.000000

 -----------------------------------------------------------------
                    Cartesian Multipole Moments
 -----------------------------------------------------------------
    Charge (ESU x 10^10)
                -0.0000
    Dipole Moment (Debye)
         X       0.0134      Y       0.0042      Z       0.0240
       Tot       0.0278
    Quadrupole Moments (Debye-Ang)
        XX      -7.9058     XY      -0.0059     YY      -7.8876
        XZ      -0.0344     YZ      -0.0100     ZZ      -7.9465
    Octopole Moments (Debye-Ang^2)
       XXX      -0.7961    XXY      -0.0823    XYY       0.2000
       YYY      -0.1847    XXZ       0.0378    XYZ       0.0334
       YYZ      -0.5698    XZZ       0.0948    YZZ       0.1168
       ZZZ      -0.3519
    Hexadecapole Moments (Debye-Ang^3)
      XXXX     -13.4518   XXXY       0.2131   XXYY      -4.9597
      XYYY       0.0198   YYYY     -14.5875   XXXZ       0.7756
      XXYZ       0.1226   XYYZ       0.1140   YYYZ       0.2869
      XXZZ      -4.3756   XYZZ       0.0923   YYZZ      -4.2086
      XZZZ       1.0018   YZZZ       0.1672   ZZZZ     -11.9234
 -----------------------------------------------------------------
 Calculating analytic gradient of the SCF energy
 Gradient of SCF Energy
            1           2           3           4           5
    1  -0.4556556   0.4556815  -0.0000031  -0.0000235   0.0000007
    2  -0.1390743   0.1390605   0.0000032   0.0000005   0.0000101
    3  -0.8068750   0.8068867   0.0000011  -0.0000235   0.0000107
 Max gradient component =       8.069E-01
 RMS gradient           =       3.422E-01
 Gradient time:  CPU 4.68 s  wall 0.66 s
 Geometry Optimization Parameters
   NAtoms,    NIC,     NZ,  NCons,   NDum,   NFix, NCnnct, MaxDiis
        5      20       0       1       0       0       0       0

 Cartesian Hessian Update
 Hessian Updated using BFGS Update


** CONSTRAINED OPTIMIZATION IN DELOCALIZED INTERNAL COORDINATES **
   Searching for a Minimum

   Optimization Cycle:   7

                       Coordinates (Angstroms)
     ATOM                X               Y               Z
      1  H         0.3883004398    0.1183628505    0.6873876138
      2  C         0.0478945523    0.0144778334    0.0846175623
      3  H         0.2326496323    0.8257359388   -0.6207264179
      4  H         0.3608679310   -0.9143780505   -0.3938456680
      5  H        -1.0298125554   -0.0442985721    0.2423669099
   Point Group: c1    Number of degrees of freedom:     9


   Energy is    -40.294862598

              Constraints and their Current Values
                                        Value     Constraint
   Distance(Angs):        1   2             0.700000     0.700000
 Hessian Updated using BFGS Update

  7 Hessian modes will be used to form the next step
  Hessian Eigenvalues:
     0.128369    0.160000    0.160000    0.160008    0.350162    0.351609
     0.351649

 Minimum Search - Taking Simple RFO Step
 Searching for Lamda that Minimizes Along All modes
 Value Taken    Lamda =   0.00000000
 Step Taken.  Stepsize is  0.000130

                             Maximum     Tolerance    Cnvgd?
         Gradient           0.000014      0.000300     YES
         Displacement       0.000116      0.001200     YES
         Energy change      0.000010      0.000001      NO


                       Distance Matrix (Angstroms)
             H (  1)   C (  2)   H (  3)   H (  4)
   C (  2)  0.700000
   H (  3)  1.495248  1.090772
   H (  4)  1.495450  1.090712  1.759520
   H (  5)  1.495174  1.090776  1.759460  1.759488
 
 Final energy is   -40.2948625979552     


 ******************************
 **  OPTIMIZATION CONVERGED  **
 ******************************

                       Coordinates (Angstroms)
     ATOM                X               Y               Z
      1  H         0.3883004398    0.1183628505    0.6873876138
      2  C         0.0478945523    0.0144778334    0.0846175623
      3  H         0.2326496323    0.8257359388   -0.6207264179
      4  H         0.3608679310   -0.9143780505   -0.3938456680
      5  H        -1.0298125554   -0.0442985721    0.2423669099

Z-matrix Print:
$molecule
0 1
C 
H  1 0.700000
H  1 1.090712 2 111.382003
H  1 1.090772 2 111.351062 3 -120.016677 0
H  1 1.090776 2 111.341828 3 120.006417 0
$end

PES scan, value:    0.7000 energy:  -40.2948625980
------- Summary of potential scan: ------ 
    0.7000       -40.2948625980
----------------------------------------- 
Archival summary:
1\1\hpc0243\JobtypUnspecified\ProcedureUnspecified\6-31G**\14\knomura\MonMar1116:17:242019MonMar1116:17:242019\0\\#,JobtypUnspecified,ProcedureUnspecified,6-31G**,\\0,1\C\H,1,0.7\H,1,1.09071,2,111.382\H,1,1.09077,2,111.351,3,-120.017,0\H,1,1.09078,2,111.342,3,120.006,0\\\@

 Total job time:  18.78s(wall), 173.63s(cpu) 
 Mon Mar 11 16:17:24 2019

        *************************************************************
        *                                                           *
        *  Thank you very much for using Q-Chem.  Have a nice day.  *
        *                                                           *
        *************************************************************


