
Running Job 1 of 1 scan_ch4.xyz.data/inputs/bond_triplet_2.7.in
qchem scan_ch4.xyz.data/inputs/bond_triplet_2.7.in_31965.0 /staging/scratch/2851581/qchem31965/ 1
/usr/usc/qchem/5.1.1/exe/qcprog.exe_s scan_ch4.xyz.data/inputs/bond_triplet_2.7.in_31965.0 /staging/scratch/2851581/qchem31965/
Check license passed

                  Welcome to Q-Chem
     A Quantum Leap Into The Future Of Chemistry


 Q-Chem 5.1, Q-Chem, Inc., Pleasanton, CA (2018)

 Yihan Shao,  Zhengting Gan,  E. Epifanovsky,  A. T. B. Gilbert,  M. Wormit,  
 J. Kussmann,  A. W. Lange,  A. Behn,  Jia Deng,  Xintian Feng,  D. Ghosh,  
 M. Goldey,  P. R. Horn,  L. D. Jacobson,  I. Kaliman,  T. Kus,  A. Landau,  
 Jie Liu,  E. I. Proynov,  R. M. Richard,  R. P. Steele,  E. J. Sundstrom,  
 H. L. Woodcock III,  P. M. Zimmerman,  D. Zuev,  B. Albrecht,  E. Alguire,  
 S. A. Baeppler,  D. Barton,  Z. Benda,  Y. A. Bernard,  E. J. Berquist,  
 K. B. Bravaya,  H. Burton,  D. Casanova,  Chun-Min Chang,  Yunqing Chen,  
 A. Chien,  K. D. Closser,  M. P. Coons,  S. Coriani,  S. Dasgupta,  
 A. L. Dempwolff,  M. Diedenhofen,  Hainam Do,  R. G. Edgar,  Po-Tung Fang,  
 S. Faraji,  S. Fatehi,  Qingguo Feng,  K. D. Fenk,  J. Fosso-Tande,  
 Qinghui Ge,  A. Ghysels,  G. Gidofalvi,  J. Gomes,  J. Gonthier,  A. Gunina,  
 D. Hait,  M. W. D. Hanson-Heine,  P. H. P. Harbach,  A. W. Hauser,  
 J. E. Herr,  E. G. Hohenstein,  Z. C. Holden,  Kerwin Hui,  B. C. Huynh,  
 T.-C. Jagau,  Hyunjun Ji,  B. Kaduk,  K. Khistyaev,  Jaehoon Kim,  
 P. Klunzinger,  K. Koh,  D. Kosenkov,  L. Koulias,  T. Kowalczyk,  
 C. M. Krauter,  A. Kunitsa,  Ka Un Lao,  A. Laurent,  K. V. Lawler,  
 Joonho Lee,  D. Lefrancois,  S. Lehtola,  D. S. Levine,  Yi-Pei Li,  
 You-Sheng Lin,  Fenglai Liu,  E. Livshits,  A. Luenser,  P. Manohar,  
 E. Mansoor,  S. F. Manzer,  Shan-Ping Mao,  Yuezhi Mao,  N. Mardirossian,  
 A. V. Marenich,  T. Markovich,  L. A. Martinez-Martinez,  S. A. Maurer,  
 N. J. Mayhall,  S. C. McKenzie,  J.-M. Mewes,  A. F. Morrison,  
 J. W. Mullinax,  K. Nanda,  T. S. Nguyen-Beck,  R. Olivares-Amaya,  
 J. A. Parkhill,  T. M. Perrine,  F. Plasser,  P. Pokhilko,  S. Prager,  
 A. Prociuk,  E. Ramos,  D. R. Rehn,  F. Rob,  M. Schneider,  N. Sergueev,  
 S. M. Sharada,  S. Sharma,  D. W. Small,  T. Stauch,  T. Stein,  
 Yu-Chuan Su,  A. J. W. Thom,  A. Tkatchenko,  T. Tsuchimochi,  N. M. Tubman,  
 L. Vogt,  M. L. Vidal,  O. Vydrov,  M. A. Watson,  J. Wenzel,  
 M. de Wergifosse,  T. A. Wesolowski,  A. White,  J. Witte,  A. Yamada,  
 Jun Yang,  K. Yao,  S. Yeganeh,  S. R. Yost,  Zhi-Qiang You,  A. Zech,  
 Igor Ying Zhang,  Xing Zhang,  Yan Zhao,  Ying Zhu,  B. R. Brooks,  
 G. K. L. Chan,  C. J. Cramer,  M. S. Gordon,  W. J. Hehre,  A. Klamt,  
 M. W. Schmidt,  C. D. Sherrill,  D. G. Truhlar,  A. Aspuru-Guzik,  R. Baer,  
 A. T. Bell,  N. A. Besley,  Jeng-Da Chai,  A. E. DePrince, III,  
 R. A. DiStasio Jr.,  A. Dreuw,  B. D. Dunietz,  T. R. Furlani,  
 Chao-Ping Hsu,  Yousung Jung,  Jing Kong,  D. S. Lambrecht,  WanZhen Liang,  
 C. Ochsenfeld,  V. A. Rassolov,  L. V. Slipchenko,  J. E. Subotnik,  
 T. Van Voorhis,  J. M. Herbert,  A. I. Krylov,  P. M. W. Gill,  M. Head-Gordon

 Contributors to earlier versions of Q-Chem not listed above: 
 R. D. Adamson,  B. Austin,  J. Baker,  G. J. O. Beran,  K. Brandhorst,  
 S. T. Brown,  E. F. C. Byrd,  A. K. Chakraborty,  C.-L. Cheng,  
 Siu Hung Chien,  D. M. Chipman,  D. L. Crittenden,  H. Dachsel,  
 R. J. Doerksen,  A. D. Dutoi,  L. Fusti-Molnar,  W. A. Goddard III,  
 A. Golubeva-Zadorozhnaya,  S. R. Gwaltney,  G. Hawkins,  A. Heyden,  
 S. Hirata,  G. Kedziora,  F. J. Keil,  C. Kelley,  Jihan Kim,  R. A. King,  
 R. Z. Khaliullin,  P. P. Korambath,  W. Kurlancheek,  A. M. Lee,  M. S. Lee,  
 S. V. Levchenko,  Ching Yeh Lin,  D. Liotard,  R. C. Lochan,  I. Lotan,  
 P. E. Maslen,  N. Nair,  D. P. O'Neill,  D. Neuhauser,  E. Neuscamman,  
 C. M. Oana,  R. Olson,  B. Peters,  R. Peverati,  P. A. Pieniazek,  
 Y. M. Rhee,  J. Ritchie,  M. A. Rohrdanz,  E. Rosta,  N. J. Russ,  
 H. F. Schaefer III,  N. E. Schultz,  N. Shenvi,  A. C. Simmonett,  A. Sodt,  
 D. Stuck,  K. S. Thanthiriwatte,  V. Vanovschi,  Tao Wang,  A. Warshel,  
 C. F. Williams,  Q. Wu,  X. Xu,  W. Zhang

 Please cite Q-Chem as follows:
 Y. Shao et al., Mol. Phys. 113, 184-215 (2015)
 DOI: 10.1080/00268976.2014.952696

 Q-Chem 5.1.1 for Intel X86 EM64T Linux

 Parts of Q-Chem use Armadillo 8.300.2 (Tropical Shenanigans).
 http://arma.sourceforge.net/

 Q-Chem begins on Mon Mar 11 16:26:53 2019  

Host: 
0

     Scratch files written to /staging/scratch/2851581/qchem31965//
 Aug318 |scratch|qcdevops|jenkins|workspace|build_RNUM 6013   
Processing $rem in /usr/usc/qchem/5.1.1/config/preferences.
 MEM_TOTAL  2000 
Input Ideriv = 2
Curr. Ideriv = -1
Max.  Ideriv = 2

Checking the input file for inconsistencies... 	...done.

--------------------------------------------------------------
User input:
--------------------------------------------------------------

$comment
potential surface scanner
$end

$rem
JOBTYPE  PES_SCAN
UNRESTRICTED TRUE
SYM_IGNORE  TRUE
GEOM_OPT_MAX_CYCLES 400
SCF_MAX_CYCLES 400
METHOD   B3LYP
BASIS   6-31G**
PDB_PRINT 2
SCF_CONVERGENCE 6
THRESH 14
SCF_PRINT 1
$end
$molecule
0 3
H 1.075144 0.339517 1.916148
C -0.279057 -0.087899 -0.497036
H 0.142856 0.844233 -0.849109
H 0.260618 -1.014508 -0.641700
H -1.199664 -0.081442 0.071495
$end
$scan
stre 1 2 2.700000 2.701000 0.100000
$end
--------------------------------------------------------------
 ----------------------------------------------------------------
             Standard Nuclear Orientation (Angstroms)
    I     Atom           X                Y                Z
 ----------------------------------------------------------------
    1      H       1.0751440000     0.3395170000     1.9161480000
    2      C      -0.2790570000    -0.0878990000    -0.4970360000
    3      H       0.1428560000     0.8442330000    -0.8491090000
    4      H       0.2606180000    -1.0145080000    -0.6417000000
    5      H      -1.1996640000    -0.0814420000     0.0714950000
 ----------------------------------------------------------------
 Nuclear Repulsion Energy =    11.3178698520 hartrees
 There are        6 alpha and        4 beta electrons
 Requested basis set is 6-31G(d,p)
 There are 16 shells and 35 basis functions

 Total QAlloc Memory Limit   2000 MB
 Mega-Array Size       188 MB
 MEM_STATIC part       192 MB
A total of 1 constraints
  
            1
    1   1.0100000
    2   1.0100000
    3   2.0100000
    4   2.7000000
    5   2.7010000
    6   0.1000000
    7   0.0000000
    8   0.0000000
    9   0.0000000
   10   0.0000000

                       Distance Matrix (Angstroms)
             H (  1)   C (  2)   H (  3)   H (  4)
   C (  2)  2.800000
   H (  3)  2.961511  1.082052
   H (  4)  3.006563  1.082026  1.873981
   H (  5)  2.958835  1.082029  1.872631  1.873948
 
 A cutoff of  1.0D-14 yielded    136 shell pairs
 There are       669 function pairs
 
 -------------------------------------------------------
 OpenMP Integral Computing Module                       
 Release: version 1.0, May 2013, Q-Chem Inc. Pittsburgh 
 -------------------------------------------------------
 Integral Job Info:
 Integral job number is                      11
 Integral operator is                         1
 short-range coefficients                     0
 long-range coefficients              100000000
 Omega coefficients                           0
 if combine SR and LR in K                    0
 Integral screening is                        0
 Integral computing path is                   2
 max size of driver memory is            800000
 size of driver memory is                593474
 size of scratch memory is              2361544
 max col of scratch BK array               1296
 max len of scratch array in speh3          155
 max len of scratch index in speh4           18
 max int batch size is                      520
 min int batch size is                       52
 fixed nKL is                                52
 max L of basis functions is                  2
 order of int derivative is                   0
 number of shells is                         16
 number of basis is                          35
 number of cartesian basis is                35
 number of contracted shell pairs           136
 number of primitive shell pairs            471
 maxK2 (contraction) of shell pair           36
 max number of K2 of shell pair               1
 max number of CS2 of shell pair             16
 max number of PS2 of shell pair             48
 mem total for path MDJ                  507868
 -------------------------------------------------------
 Smallest overlap matrix eigenvalue = 2.72E-02

 Scale SEOQF with 1.000000e+00/1.000000e+00/1.000000e-01

 Standard Electronic Orientation quadrupole field applied
 Nucleus-field energy     =     0.0000000018 hartrees
 Guess from superposition of atomic densities
 Warning:  Energy on first SCF cycle will be non-variational
 SAD guess density has 10.000000 electrons

 -----------------------------------------------------------------------
  General SCF calculation program by
  Eric Jon Sundstrom, Paul Horn, Yuezhi Mao, Dmitri Zuev, Alec White,
  David Stuck, Shaama M.S., Shane Yost, Joonho Lee, David Small,
  Daniel Levine, Susi Lehtola, Hugh Burton, Evgeny Epifanovsky
 -----------------------------------------------------------------------
 Exchange:     0.2000 Hartree-Fock + 0.0800 Slater + 0.7200 B88
 Correlation:  0.1900 VWN1RPA + 0.8100 LYP
 Using SG-1 standard quadrature grid
 using 12 threads for integral computing
 -------------------------------------------------------
 OpenMP Integral computing Module                
 Release: version 1.0, May 2013, Q-Chem Inc. Pittsburgh 
 -------------------------------------------------------
 -------------------------------------------------------
 OpenMP BLAS3 based DFT computing Module                
 Release: version 1.0, May 2013, Q-Chem Inc. Pittsburgh 
 -------------------------------------------------------
 A unrestricted SCF calculation will be
 performed using DIIS
 SCF converges when DIIS error is below 1.0e-06
 Alpha HF Exchange    Energy =  -0.61682683806710
 Beta HF Exchange     Energy =  -0.61682683806710
 DFT Correlation      Energy =  -0.36629362756460
 DFT Exchange         Energy =  -4.95268668508555
 One-Electron (alpha) Energy = -37.18855980221775
 One-Electron (beta)  Energy = -37.18855980221775
 Total Coulomb        Energy =  29.41537511256340
 ---------------------------------------
  Cycle       Energy         DIIS error
 ---------------------------------------
    1     -40.1965086268      3.84e-02  
 Alpha HF Exchange    Energy =  -0.73729715183169
 Beta HF Exchange     Energy =  -0.58764716470683
 DFT Correlation      Energy =  -0.35654126497789
 DFT Exchange         Energy =  -5.23644241477110
 One-Electron (alpha) Energy = -41.65687900625696
 One-Electron (beta)  Energy = -34.61461625444431
 Total Coulomb        Energy =  31.56130824048511
    2     -40.3102451627      6.38e-03  
 Alpha HF Exchange    Energy =  -0.71761968014999
 Beta HF Exchange     Energy =  -0.57229426961605
 DFT Correlation      Energy =  -0.34666060640196
 DFT Exchange         Energy =  -5.09196363236310
 One-Electron (alpha) Energy = -40.84351150513078
 One-Electron (beta)  Energy = -33.91779180054078
 Total Coulomb        Energy =  29.85247517699569
    3     -40.3194964634      5.49e-03  
 Alpha HF Exchange    Energy =  -0.72909684151206
 Beta HF Exchange     Energy =  -0.57882839426143
 DFT Correlation      Energy =  -0.35097210414484
 DFT Exchange         Energy =  -5.16574215199054
 One-Electron (alpha) Energy = -41.28039682508685
 One-Electron (beta)  Energy = -34.21498355772428
 Total Coulomb        Energy =  30.66245372660747
    4     -40.3396962943      2.09e-04  
 Alpha HF Exchange    Energy =  -0.72937933605077
 Beta HF Exchange     Energy =  -0.57854849005205
 DFT Correlation      Energy =  -0.35077921587617
 DFT Exchange         Energy =  -5.16561959087831
 One-Electron (alpha) Energy = -41.29116847135079
 One-Electron (beta)  Energy = -34.19291912098258
 Total Coulomb        Energy =  30.65079061852517
    5     -40.3397537528      5.17e-05  
 Alpha HF Exchange    Energy =  -0.72949904844583
 Beta HF Exchange     Energy =  -0.57843030510034
 DFT Correlation      Energy =  -0.35073046509768
 DFT Exchange         Energy =  -5.16559028770566
 One-Electron (alpha) Energy = -41.29741308582388
 One-Electron (beta)  Energy = -34.18516170438757
 Total Coulomb        Energy =  30.64919623083557
    6     -40.3397588119      8.37e-06  
 Alpha HF Exchange    Energy =  -0.72952973558446
 Beta HF Exchange     Energy =  -0.57841769748370
 DFT Correlation      Energy =  -0.35072683494498
 DFT Exchange         Energy =  -5.16565913713029
 One-Electron (alpha) Energy = -41.29876757355132
 One-Electron (beta)  Energy = -34.18412429960977
 Total Coulomb        Energy =  30.64959648152570
    7     -40.3397589430      8.31e-07  Convergence criterion met
 ---------------------------------------
 SCF time:   CPU 11.96s  wall 1.00s 
<S^2> =          2.003693558
 Alpha HF Exchange    Energy =  -0.72952973558446
 Beta HF Exchange     Energy =  -0.57841769748370
 DFT Correlation      Energy =  -0.35072683494498
 DFT Exchange         Energy =  -5.16565913713029
 One-Electron (alpha) Energy = -41.29876757355132
 One-Electron (beta)  Energy = -34.18412429960977
 Total Coulomb        Energy =  30.64959648152570
 Nuclear repulsion Energy =  11.31786985382766
 SCF   energy in the final basis set =      -40.3397589430
 Total energy in the final basis set =      -40.3397589430
 
 --------------------------------------------------------------
 
                    Orbital Energies (a.u.)
 --------------------------------------------------------------
 
 Alpha MOs
 -- Occupied --
-10.190  -0.681  -0.415  -0.415  -0.316  -0.217
 -- Virtual --
  0.115   0.182   0.182   0.539   0.539   0.540   0.642   0.826
  0.890   0.890   0.950   1.436   1.436   1.912   1.913   1.935
  1.959   1.959   2.003   2.007   2.298   2.557   2.558   2.719
  2.721   3.249   3.457   3.458   4.286
 
 Beta MOs
 -- Occupied --
-10.176  -0.640  -0.405  -0.405
 -- Virtual --
 -0.072   0.001   0.132   0.187   0.188   0.546   0.546   0.626
  0.705   0.893   0.894   0.967   1.043   1.483   1.483   1.918
  1.919   2.002   2.039   2.218   2.221   2.221   2.321   2.586
  2.587   2.720   2.722   3.256   3.465   3.466   4.323
 --------------------------------------------------------------
 
          Ground-State Mulliken Net Atomic Charges

     Atom                 Charge (a.u.)    Spin (a.u.)
  --------------------------------------------------------
      1 H                     0.000472       0.999028
      2 C                    -0.366927       1.145105
      3 H                     0.122113      -0.048048
      4 H                     0.122242      -0.048035
      5 H                     0.122101      -0.048050
  --------------------------------------------------------
  Sum of atomic charges =     0.000000
  Sum of spin   charges =     2.000000

 -----------------------------------------------------------------
                    Cartesian Multipole Moments
 -----------------------------------------------------------------
    Charge (ESU x 10^10)
                 0.0000
    Dipole Moment (Debye)
         X       0.0311      Y       0.0075      Z       0.0528
       Tot       0.0617
    Quadrupole Moments (Debye-Ang)
        XX      -8.7366     XY      -0.1182     YY      -8.3212
        XZ      -0.7629     YZ      -0.1988     ZZ      -9.6081
    Octopole Moments (Debye-Ang^2)
       XXX       1.5305    XXY       0.1726    XYY       1.2803
       YYY       0.5481    XXZ       1.8165    XYZ       0.0747
       YYZ       0.6835    XZZ       1.2241    YZZ       0.4857
       ZZZ       4.6146
    Hexadecapole Moments (Debye-Ang^3)
      XXXX     -26.3856   XXXY      -1.7497   XXYY      -7.5764
      XYYY      -1.9887   YYYY     -16.5761   XXXZ     -10.3627
      XXYZ      -1.1073   XYYZ      -3.6123   YYYZ      -3.1576
      XXZZ     -13.6251   XYZZ      -0.6837   YYZZ     -11.0786
      XZZZ     -10.5695   YZZZ      -3.5857   ZZZZ     -53.0194
 -----------------------------------------------------------------
 Calculating analytic gradient of the SCF energy
 Gradient of SCF Energy
            1           2           3           4           5
    1  -0.0023366   0.0024578  -0.0001007   0.0000097  -0.0000303
    2  -0.0007537   0.0005699   0.0000646   0.0000045   0.0001148
    3  -0.0041879   0.0041464   0.0000272   0.0000447  -0.0000304
 Max gradient component =       4.188E-03
 RMS gradient           =       1.773E-03
 Gradient time:  CPU 4.63 s  wall 0.61 s
 Geometry Optimization Parameters
   NAtoms,    NIC,     NZ,  NCons,   NDum,   NFix, NCnnct, MaxDiis
        5      50       0       1       0       0       0       0


** CONSTRAINED OPTIMIZATION IN DELOCALIZED INTERNAL COORDINATES **
   Searching for a Minimum

   Optimization Cycle:   1

                       Coordinates (Angstroms)
     ATOM                X               Y               Z
      1  H         1.0751440000    0.3395170000    1.9161480000
      2  C        -0.2790570000   -0.0878990000   -0.4970360000
      3  H         0.1428560000    0.8442330000   -0.8491090000
      4  H         0.2606180000   -1.0145080000   -0.6417000000
      5  H        -1.1996640000   -0.0814420000    0.0714950000
   Point Group: c1    Number of degrees of freedom:     9


   Energy is    -40.339758943

              Constraints and their Current Values
                                        Value     Constraint
   Distance(Angs):        1   2             2.800000     2.700000

 Attempting to Generate Delocalized Internal Coordinates

   Using Lagrange Multiplier Algorithm


 10 Hessian modes will be used to form the next step
  Hessian Eigenvalues:
    -0.992831    0.051518    0.054316    0.054451    0.078296    0.078300
     0.302975    0.304533    0.315161    1.007221

 Minimum Search - Taking P-RFO Step
 Searching for Lamda that Maximizes Along the Constraint modes Only
 Value Taken    Lamda =   0.01869738
 Searching for Lamda that Minimizes Along All other modes
 Value Taken    Lamda =  -0.01643296
 Step Taken.  Stepsize is  0.185707

                             Maximum     Tolerance    Cnvgd?
         Gradient            0.188973       0.000300      NO
         Displacement        0.185702       0.001200      NO
         Energy change     *********       0.000001      NO


 New Cartesian Coordinates Obtained by Inverse Iteration

 Displacement from previous Coordinates is:  0.143753
 ----------------------------------------------------------------
             Standard Nuclear Orientation (Angstroms)
    I     Atom           X                Y                Z
 ----------------------------------------------------------------
    1      H       1.0456032821     0.3301426526     1.8634645384
    2      C      -0.2613625572    -0.0818092767    -0.4649438544
    3      H       0.1514739252     0.8561649891    -0.8466384839
    4      H       0.2707943138    -1.0243459025    -0.6367406398
    5      H      -1.2066119639    -0.0802514625     0.0846564397
 ----------------------------------------------------------------
 Nuclear Repulsion Energy =    11.2614864195 hartrees
 There are        6 alpha and        4 beta electrons

                       Distance Matrix (Angstroms)
             H (  1)   C (  2)   H (  3)   H (  4)
   C (  2)  2.701731
   H (  3)  2.901866  1.093581
   H (  4)  2.947201  1.095938  1.895947
   H (  5)  2.899147  1.093416  1.894356  1.895905
 
 Applying Cartesian multipole field
    Component          Value
    ---------          -----
     (2,0,0)        1.00000E-10
     (0,2,0)        2.00000E-10
     (0,0,2)       -3.00000E-11
 Nucleus-field energy     =     0.0000000018 hartrees
 Requested basis set is 6-31G(d,p)
 There are 16 shells and 35 basis functions
 A cutoff of  1.0D-14 yielded    136 shell pairs
 There are       669 function pairs
 Smallest overlap matrix eigenvalue = 2.80E-02
 Guess from superposition of atomic densities
 Warning:  Energy on first SCF cycle will be non-variational
 SAD guess density has 10.000000 electrons

 -----------------------------------------------------------------------
  General SCF calculation program by
  Eric Jon Sundstrom, Paul Horn, Yuezhi Mao, Dmitri Zuev, Alec White,
  David Stuck, Shaama M.S., Shane Yost, Joonho Lee, David Small,
  Daniel Levine, Susi Lehtola, Hugh Burton, Evgeny Epifanovsky
 -----------------------------------------------------------------------
 Exchange:     0.2000 Hartree-Fock + 0.0800 Slater + 0.7200 B88
 Correlation:  0.1900 VWN1RPA + 0.8100 LYP
 Using SG-1 standard quadrature grid
 using 12 threads for integral computing
 -------------------------------------------------------
 OpenMP Integral computing Module                
 Release: version 1.0, May 2013, Q-Chem Inc. Pittsburgh 
 -------------------------------------------------------
 -------------------------------------------------------
 OpenMP BLAS3 based DFT computing Module                
 Release: version 1.0, May 2013, Q-Chem Inc. Pittsburgh 
 -------------------------------------------------------
 A unrestricted SCF calculation will be
 performed using DIIS
 SCF converges when DIIS error is below 1.0e-06
 Alpha HF Exchange    Energy =  -0.61490000311759
 Beta HF Exchange     Energy =  -0.61490000311759
 DFT Correlation      Energy =  -0.36611621624199
 DFT Exchange         Energy =  -4.94828056831391
 One-Electron (alpha) Energy = -37.15136356128036
 One-Electron (beta)  Energy = -37.15136356128036
 Total Coulomb        Energy =  29.40134091215590
 ---------------------------------------
  Cycle       Energy         DIIS error
 ---------------------------------------
    1     -40.1840965798      3.74e-02  
 Alpha HF Exchange    Energy =  -0.73576252136368
 Beta HF Exchange     Energy =  -0.58595069719186
 DFT Correlation      Energy =  -0.35600793245965
 DFT Exchange         Energy =  -5.22480641780859
 One-Electron (alpha) Energy = -41.62393778951100
 One-Electron (beta)  Energy = -34.53449517161674
 Total Coulomb        Energy =  31.48953089695430
    2     -40.3099432116      6.24e-03  
 Alpha HF Exchange    Energy =  -0.71671282191019
 Beta HF Exchange     Energy =  -0.57097470572868
 DFT Correlation      Energy =  -0.34623978931465
 DFT Exchange         Energy =  -5.08416409377462
 One-Electron (alpha) Energy = -40.82767598237972
 One-Electron (beta)  Energy = -33.84373021827011
 Total Coulomb        Energy =  29.80954631465741
    3     -40.3184648753      5.43e-03  
 Alpha HF Exchange    Energy =  -0.72802287814989
 Beta HF Exchange     Energy =  -0.57736852564092
 DFT Correlation      Energy =  -0.35051504309085
 DFT Exchange         Energy =  -5.15677783649267
 One-Electron (alpha) Energy = -41.26126662431729
 One-Electron (beta)  Energy = -34.13859599092154
 Total Coulomb        Energy =  30.61273997262006
    4     -40.3383205046      2.16e-04  
 Alpha HF Exchange    Energy =  -0.72831609084936
 Beta HF Exchange     Energy =  -0.57707120246844
 DFT Correlation      Energy =  -0.35031051681205
 DFT Exchange         Energy =  -5.15661859974393
 One-Electron (alpha) Energy = -41.27249661231578
 One-Electron (beta)  Energy = -34.11523526233231
 Total Coulomb        Energy =  30.60017933547910
    5     -40.3383825277      5.36e-05  
 Alpha HF Exchange    Energy =  -0.72844497545495
 Beta HF Exchange     Energy =  -0.57694764198880
 DFT Correlation      Energy =  -0.35025932081082
 DFT Exchange         Energy =  -5.15660163569246
 One-Electron (alpha) Energy = -41.27917411945017
 One-Electron (beta)  Energy = -34.10706141426259
 Total Coulomb        Energy =  30.59861460254598
    6     -40.3383880837      9.50e-06  
 Alpha HF Exchange    Energy =  -0.72847661485466
 Beta HF Exchange     Energy =  -0.57693391277182
 DFT Correlation      Energy =  -0.35025492913456
 DFT Exchange         Energy =  -5.15666924137884
 One-Electron (alpha) Energy = -41.28058681884549
 One-Electron (beta)  Energy = -34.10592955471371
 Total Coulomb        Energy =  30.59897640810401
    7     -40.3383882422      1.96e-06  
 Alpha HF Exchange    Energy =  -0.72847895790867
 Beta HF Exchange     Energy =  -0.57693211122886
 DFT Correlation      Energy =  -0.35025459000838
 DFT Exchange         Energy =  -5.15667125664082
 One-Electron (alpha) Energy = -41.28070403792804
 One-Electron (beta)  Energy = -34.10582932598454
 Total Coulomb        Energy =  30.59899561247090
    8     -40.3383882458      3.17e-07  Convergence criterion met
 ---------------------------------------
 SCF time:   CPU 13.73s  wall 2.00s 
<S^2> =          2.003873756
 Alpha HF Exchange    Energy =  -0.72847895790867
 Beta HF Exchange     Energy =  -0.57693211122886
 DFT Correlation      Energy =  -0.35025459000838
 DFT Exchange         Energy =  -5.15667125664082
 One-Electron (alpha) Energy = -41.28070403792804
 One-Electron (beta)  Energy = -34.10582932598454
 Total Coulomb        Energy =  30.59899561247090
 Nuclear repulsion Energy =  11.26148642138832
 SCF   energy in the final basis set =      -40.3383882458
 Total energy in the final basis set =      -40.3383882458
 
 --------------------------------------------------------------
 
                    Orbital Energies (a.u.)
 --------------------------------------------------------------
 
 Alpha MOs
 -- Occupied --
-10.193  -0.678  -0.413  -0.412  -0.316  -0.215
 -- Virtual --
  0.110   0.178   0.179   0.542   0.543   0.544   0.641   0.830
  0.882   0.883   0.942   1.437   1.437   1.897   1.899   1.931
  1.962   1.962   2.003   2.005   2.294   2.544   2.547   2.691
  2.691   3.218   3.428   3.429   4.289
 
 Beta MOs
 -- Occupied --
-10.179  -0.636  -0.403  -0.402
 -- Virtual --
 -0.075   0.006   0.127   0.184   0.184   0.549   0.550   0.629
  0.706   0.885   0.886   0.961   1.044   1.484   1.485   1.904
  1.906   2.000   2.030   2.211   2.222   2.222   2.327   2.574
  2.576   2.691   2.691   3.225   3.436   3.437   4.327
 --------------------------------------------------------------
 
          Ground-State Mulliken Net Atomic Charges

     Atom                 Charge (a.u.)    Spin (a.u.)
  --------------------------------------------------------
      1 H                     0.000308       0.999061
      2 C                    -0.366083       1.147092
      3 H                     0.122021      -0.048679
      4 H                     0.121718      -0.048801
      5 H                     0.122037      -0.048673
  --------------------------------------------------------
  Sum of atomic charges =     0.000000
  Sum of spin   charges =     2.000000

 -----------------------------------------------------------------
                    Cartesian Multipole Moments
 -----------------------------------------------------------------
    Charge (ESU x 10^10)
                 0.0000
    Dipole Moment (Debye)
         X      -0.0031      Y      -0.0010      Z      -0.0055
       Tot       0.0064
    Quadrupole Moments (Debye-Ang)
        XX      -8.7479     XY      -0.1180     YY      -8.3307
        XZ      -0.7729     YZ      -0.2032     ZZ      -9.6316
    Octopole Moments (Debye-Ang^2)
       XXX       1.2464    XXY       0.1357    XYY       1.2301
       YYY       0.4743    XXZ       1.6477    XYZ       0.0584
       YYZ       0.5226    XZZ       1.0620    YZZ       0.4428
       ZZZ       4.0629
    Hexadecapole Moments (Debye-Ang^3)
      XXXX     -25.7384   XXXY      -1.6066   XXYY      -7.5188
      XYYY      -1.8596   YYYY     -16.7345   XXXZ      -9.6207
      XXYZ      -1.0325   XYYZ      -3.3732   YYYZ      -2.9157
      XXZZ     -13.1523   XYZZ      -0.6469   YYZZ     -10.6754
      XZZZ      -9.8590   YZZZ      -3.3796   ZZZZ     -50.6592
 -----------------------------------------------------------------
 Calculating analytic gradient of the SCF energy
 Gradient of SCF Energy
            1           2           3           4           5
    1  -0.0030657   0.0028853   0.0027784   0.0043989  -0.0069969
    2  -0.0009896   0.0024654   0.0067364  -0.0081616  -0.0000505
    3  -0.0054917   0.0068658  -0.0031482  -0.0017812   0.0035554
 Max gradient component =       8.162E-03
 RMS gradient           =       4.589E-03
 Gradient time:  CPU 4.56 s  wall 0.57 s
 Geometry Optimization Parameters
   NAtoms,    NIC,     NZ,  NCons,   NDum,   NFix, NCnnct, MaxDiis
        5      50       0       1       0       0       0       0

 Cartesian Hessian Update
 Hessian Updated using BFGS Update


** CONSTRAINED OPTIMIZATION IN DELOCALIZED INTERNAL COORDINATES **
   Searching for a Minimum

   Optimization Cycle:   2

                       Coordinates (Angstroms)
     ATOM                X               Y               Z
      1  H         1.0456032821    0.3301426526    1.8634645384
      2  C        -0.2613625572   -0.0818092767   -0.4649438544
      3  H         0.1514739252    0.8561649891   -0.8466384839
      4  H         0.2707943138   -1.0243459025   -0.6367406398
      5  H        -1.2066119639   -0.0802514625    0.0846564397
   Point Group: c1    Number of degrees of freedom:     9


   Energy is    -40.338388246

              Constraints and their Current Values
                                        Value     Constraint
   Distance(Angs):        1   2             2.701731     2.700000
 Hessian Updated using BFGS Update

   Using Lagrange Multiplier Algorithm


 10 Hessian modes will be used to form the next step
  Hessian Eigenvalues:
    -0.988190    0.051893    0.054316    0.054454    0.078292    0.078300
     0.303387    0.304536    0.494233    1.018484

 Minimum Search - Taking P-RFO Step
 Searching for Lamda that Maximizes Along the Constraint modes Only
 Value Taken    Lamda =   0.00001436
 Searching for Lamda that Minimizes Along All other modes
 Value Taken    Lamda =  -0.00035655
 Step Taken.  Stepsize is  0.028375

                             Maximum     Tolerance    Cnvgd?
         Gradient            0.012996       0.000300      NO
         Displacement        0.026197       0.001200      NO
         Energy change      0.001371       0.000001      NO


 New Cartesian Coordinates Obtained by Inverse Iteration

 Displacement from previous Coordinates is:  0.023603
 ----------------------------------------------------------------
             Standard Nuclear Orientation (Angstroms)
    I     Atom           X                Y                Z
 ----------------------------------------------------------------
    1      H       1.0448426489     0.3299917418     1.8622180250
    2      C      -0.2610731953    -0.0820191925    -0.4647613038
    3      H       0.1494300461     0.8501490374    -0.8440168081
    4      H       0.2671763106    -1.0176465301    -0.6353355945
    5      H      -1.2004788104    -0.0805740567     0.0816936814
 ----------------------------------------------------------------
 Nuclear Repulsion Energy =    11.3255902229 hartrees
 There are        6 alpha and        4 beta electrons

                       Distance Matrix (Angstroms)
             H (  1)   C (  2)   H (  3)   H (  4)
   C (  2)  2.700000
   H (  3)  2.897591  1.086869
   H (  4)  2.942561  1.087907  1.883102
   H (  5)  2.894875  1.086783  1.882934  1.883148
 
 Applying Cartesian multipole field
    Component          Value
    ---------          -----
     (2,0,0)        1.00000E-10
     (0,2,0)        2.00000E-10
     (0,0,2)       -3.00000E-11
 Nucleus-field energy     =     0.0000000018 hartrees
 Requested basis set is 6-31G(d,p)
 There are 16 shells and 35 basis functions
 A cutoff of  1.0D-14 yielded    136 shell pairs
 There are       669 function pairs
 Smallest overlap matrix eigenvalue = 2.75E-02
 Guess from superposition of atomic densities
 Warning:  Energy on first SCF cycle will be non-variational
 SAD guess density has 10.000000 electrons

 -----------------------------------------------------------------------
  General SCF calculation program by
  Eric Jon Sundstrom, Paul Horn, Yuezhi Mao, Dmitri Zuev, Alec White,
  David Stuck, Shaama M.S., Shane Yost, Joonho Lee, David Small,
  Daniel Levine, Susi Lehtola, Hugh Burton, Evgeny Epifanovsky
 -----------------------------------------------------------------------
 Exchange:     0.2000 Hartree-Fock + 0.0800 Slater + 0.7200 B88
 Correlation:  0.1900 VWN1RPA + 0.8100 LYP
 Using SG-1 standard quadrature grid
 using 12 threads for integral computing
 -------------------------------------------------------
 OpenMP Integral computing Module                
 Release: version 1.0, May 2013, Q-Chem Inc. Pittsburgh 
 -------------------------------------------------------
 -------------------------------------------------------
 OpenMP BLAS3 based DFT computing Module                
 Release: version 1.0, May 2013, Q-Chem Inc. Pittsburgh 
 -------------------------------------------------------
 A unrestricted SCF calculation will be
 performed using DIIS
 SCF converges when DIIS error is below 1.0e-06
 Alpha HF Exchange    Energy =  -0.61609356702267
 Beta HF Exchange     Energy =  -0.61609356702267
 DFT Correlation      Energy =  -0.36637904693031
 DFT Exchange         Energy =  -4.95097045164971
 One-Electron (alpha) Energy = -37.20445414802457
 One-Electron (beta)  Energy = -37.20445414802457
 Total Coulomb        Energy =  29.44090693449360
 ---------------------------------------
  Cycle       Energy         DIIS error
 ---------------------------------------
    1     -40.1919477695      3.80e-02  
 Alpha HF Exchange    Energy =  -0.73685955573772
 Beta HF Exchange     Energy =  -0.58691792409611
 DFT Correlation      Energy =  -0.35641861305943
 DFT Exchange         Energy =  -5.23230145481548
 One-Electron (alpha) Energy = -41.69403041400206
 One-Electron (beta)  Energy = -34.59423581374497
 Total Coulomb        Energy =  31.56568933959517
    2     -40.3094842112      6.33e-03  
 Alpha HF Exchange    Energy =  -0.71742505732012
 Beta HF Exchange     Energy =  -0.57169888156531
 DFT Correlation      Energy =  -0.34657383207326
 DFT Exchange         Energy =  -5.08924692846334
 One-Electron (alpha) Energy = -40.88680229238563
 One-Electron (beta)  Energy = -33.89840716960128
 Total Coulomb        Energy =  29.86611338160490
    3     -40.3184505551      5.47e-03  
 Alpha HF Exchange    Energy =  -0.72883595480937
 Beta HF Exchange     Energy =  -0.57818167313081
 DFT Correlation      Energy =  -0.35087022398462
 DFT Exchange         Energy =  -5.16257621554339
 One-Electron (alpha) Energy = -41.32302900049146
 One-Electron (beta)  Energy = -34.19511716794057
 Total Coulomb        Energy =  30.67447216741372
    4     -40.3385478438      2.12e-04  
 Alpha HF Exchange    Energy =  -0.72912461871559
 Beta HF Exchange     Energy =  -0.57789396575361
 DFT Correlation      Energy =  -0.35067153073367
 DFT Exchange         Energy =  -5.16244192472407
 One-Electron (alpha) Energy = -41.33407380535292
 One-Electron (beta)  Energy = -34.17240648132947
 Total Coulomb        Energy =  30.66241465095023
    5     -40.3386074510      5.26e-05  
 Alpha HF Exchange    Energy =  -0.72924853771222
 Beta HF Exchange     Energy =  -0.57777351112079
 DFT Correlation      Energy =  -0.35062188762469
 DFT Exchange         Energy =  -5.16241928603851
 One-Electron (alpha) Energy = -41.34051330611355
 One-Electron (beta)  Energy = -34.16447748969446
 Total Coulomb        Energy =  30.66085106688023
    6     -40.3386127267      9.30e-06  
 Alpha HF Exchange    Energy =  -0.72927916434746
 Beta HF Exchange     Energy =  -0.57776025605921
 DFT Correlation      Energy =  -0.35061773545207
 DFT Exchange         Energy =  -5.16248489147655
 One-Electron (alpha) Energy = -41.34187633227169
 One-Electron (beta)  Energy = -34.16338864536053
 Total Coulomb        Energy =  30.66120392446803
    7     -40.3386128758      1.94e-06  
 Alpha HF Exchange    Energy =  -0.72928148143904
 Beta HF Exchange     Energy =  -0.57775849203674
 DFT Correlation      Energy =  -0.35061741764613
 DFT Exchange         Energy =  -5.16248696390875
 One-Electron (alpha) Energy = -41.34199100066827
 One-Electron (beta)  Energy = -34.16329119881470
 Total Coulomb        Energy =  30.66122345049589
    8     -40.3386128793      3.09e-07  Convergence criterion met
 ---------------------------------------
 SCF time:   CPU 13.63s  wall 1.00s 
<S^2> =          2.003786509
 Alpha HF Exchange    Energy =  -0.72928148143904
 Beta HF Exchange     Energy =  -0.57775849203674
 DFT Correlation      Energy =  -0.35061741764613
 DFT Exchange         Energy =  -5.16248696390875
 One-Electron (alpha) Energy = -41.34199100066827
 One-Electron (beta)  Energy = -34.16329119881470
 Total Coulomb        Energy =  30.66122345049589
 Nuclear repulsion Energy =  11.32559022468728
 SCF   energy in the final basis set =      -40.3386128793
 Total energy in the final basis set =      -40.3386128793
 
 --------------------------------------------------------------
 
                    Orbital Energies (a.u.)
 --------------------------------------------------------------
 
 Alpha MOs
 -- Occupied --
-10.191  -0.680  -0.414  -0.414  -0.316  -0.215
 -- Virtual --
  0.113   0.181   0.181   0.541   0.541   0.545   0.641   0.831
  0.887   0.887   0.946   1.436   1.437   1.905   1.905   1.936
  1.962   1.962   2.006   2.006   2.298   2.554   2.555   2.706
  2.706   3.237   3.445   3.446   4.290
 
 Beta MOs
 -- Occupied --
-10.177  -0.638  -0.404  -0.404
 -- Virtual --
 -0.075   0.006   0.130   0.186   0.186   0.547   0.547   0.629
  0.707   0.890   0.891   0.966   1.044   1.483   1.484   1.912
  1.912   2.001   2.037   2.213   2.222   2.222   2.331   2.584
  2.585   2.706   2.706   3.243   3.453   3.454   4.327
 --------------------------------------------------------------
 
          Ground-State Mulliken Net Atomic Charges

     Atom                 Charge (a.u.)    Spin (a.u.)
  --------------------------------------------------------
      1 H                     0.000320       0.999060
      2 C                    -0.366886       1.145967
      3 H                     0.122230      -0.048324
      4 H                     0.122100      -0.048381
      5 H                     0.122235      -0.048322
  --------------------------------------------------------
  Sum of atomic charges =    -0.000000
  Sum of spin   charges =     2.000000

 -----------------------------------------------------------------
                    Cartesian Multipole Moments
 -----------------------------------------------------------------
    Charge (ESU x 10^10)
                -0.0000
    Dipole Moment (Debye)
         X      -0.0025      Y      -0.0014      Z      -0.0051
       Tot       0.0058
    Quadrupole Moments (Debye-Ang)
        XX      -8.7375     XY      -0.1159     YY      -8.3248
        XZ      -0.7662     YZ      -0.2015     ZZ      -9.6127
    Octopole Moments (Debye-Ang^2)
       XXX       1.2500    XXY       0.1362    XYY       1.2108
       YYY       0.4744    XXZ       1.6311    XYZ       0.0573
       YYZ       0.5295    XZZ       1.0534    YZZ       0.4370
       ZZZ       4.0320
    Hexadecapole Moments (Debye-Ang^3)
      XXXX     -25.6125   XXXY      -1.6126   XXYY      -7.4631
      XYYY      -1.8573   YYYY     -16.5936   XXXZ      -9.6172
      XXYZ      -1.0336   XYYZ      -3.3656   YYYZ      -2.9166
      XXZZ     -13.1029   XYZZ      -0.6496   YYZZ     -10.6357
      XZZZ      -9.8656   YZZZ      -3.3750   ZZZZ     -50.5160
 -----------------------------------------------------------------
 Calculating analytic gradient of the SCF energy
 Gradient of SCF Energy
            1           2           3           4           5
    1  -0.0030791   0.0033272   0.0010977   0.0017914  -0.0031373
    2  -0.0009951   0.0017961   0.0028381  -0.0035444  -0.0000946
    3  -0.0055170   0.0067556  -0.0015944  -0.0009494   0.0013052
 Max gradient component =       6.756E-03
 RMS gradient           =       3.065E-03
 Gradient time:  CPU 4.57 s  wall 0.59 s
 Geometry Optimization Parameters
   NAtoms,    NIC,     NZ,  NCons,   NDum,   NFix, NCnnct, MaxDiis
        5      50       0       1       0       0       0       0

 Cartesian Hessian Update
 Hessian Updated using BFGS Update


** CONSTRAINED OPTIMIZATION IN DELOCALIZED INTERNAL COORDINATES **
   Searching for a Minimum

   Optimization Cycle:   3

                       Coordinates (Angstroms)
     ATOM                X               Y               Z
      1  H         1.0448426489    0.3299917418    1.8622180250
      2  C        -0.2610731953   -0.0820191925   -0.4647613038
      3  H         0.1494300461    0.8501490374   -0.8440168081
      4  H         0.2671763106   -1.0176465301   -0.6353355945
      5  H        -1.2004788104   -0.0805740567    0.0816936814
   Point Group: c1    Number of degrees of freedom:     9


   Energy is    -40.338612879

              Constraints and their Current Values
                                        Value     Constraint
   Distance(Angs):        1   2             2.700000     2.700000
 Hessian Updated using BFGS Update

  8 Hessian modes will be used to form the next step
  Hessian Eigenvalues:
     0.050106    0.054316    0.054456    0.078298    0.078303    0.294999
     0.304377    0.304575

 Minimum Search - Taking Simple RFO Step
 Searching for Lamda that Minimizes Along All modes
 Value Taken    Lamda =  -0.00011760
 Step Taken.  Stepsize is  0.025148

                             Maximum     Tolerance    Cnvgd?
         Gradient           0.005527      0.000300      NO
         Displacement       0.018999      0.001200      NO
         Energy change     -0.000225      0.000001      NO


 New Cartesian Coordinates Obtained by Inverse Iteration

 Displacement from previous Coordinates is:  0.018393
 ----------------------------------------------------------------
             Standard Nuclear Orientation (Angstroms)
    I     Atom           X                Y                Z
 ----------------------------------------------------------------
    1      H       1.0441182573     0.3299561199     1.8611524890
    2      C      -0.2615205680    -0.0824755068    -0.4659077616
    3      H       0.1480954969     0.8456482114    -0.8414173893
    4      H       0.2646268479    -1.0125809501    -0.6339874574
    5      H      -1.1954230341    -0.0806468744     0.0799581193
 ----------------------------------------------------------------
 Nuclear Repulsion Energy =    11.3746321893 hartrees
 There are        6 alpha and        4 beta electrons

                       Distance Matrix (Angstroms)
             H (  1)   C (  2)   H (  3)   H (  4)
   C (  2)  2.700000
   H (  3)  2.893558  1.081761
   H (  4)  2.938662  1.081748  1.873399
   H (  5)  2.890812  1.081733  1.874032  1.873490
 
 Applying Cartesian multipole field
    Component          Value
    ---------          -----
     (2,0,0)        1.00000E-10
     (0,2,0)        2.00000E-10
     (0,0,2)       -3.00000E-11
 Nucleus-field energy     =     0.0000000018 hartrees
 Requested basis set is 6-31G(d,p)
 There are 16 shells and 35 basis functions
 A cutoff of  1.0D-14 yielded    136 shell pairs
 There are       669 function pairs
 Smallest overlap matrix eigenvalue = 2.71E-02
 Guess from superposition of atomic densities
 Warning:  Energy on first SCF cycle will be non-variational
 SAD guess density has 10.000000 electrons

 -----------------------------------------------------------------------
  General SCF calculation program by
  Eric Jon Sundstrom, Paul Horn, Yuezhi Mao, Dmitri Zuev, Alec White,
  David Stuck, Shaama M.S., Shane Yost, Joonho Lee, David Small,
  Daniel Levine, Susi Lehtola, Hugh Burton, Evgeny Epifanovsky
 -----------------------------------------------------------------------
 Exchange:     0.2000 Hartree-Fock + 0.0800 Slater + 0.7200 B88
 Correlation:  0.1900 VWN1RPA + 0.8100 LYP
 Using SG-1 standard quadrature grid
 using 12 threads for integral computing
 -------------------------------------------------------
 OpenMP Integral computing Module                
 Release: version 1.0, May 2013, Q-Chem Inc. Pittsburgh 
 -------------------------------------------------------
 -------------------------------------------------------
 OpenMP BLAS3 based DFT computing Module                
 Release: version 1.0, May 2013, Q-Chem Inc. Pittsburgh 
 -------------------------------------------------------
 A unrestricted SCF calculation will be
 performed using DIIS
 SCF converges when DIIS error is below 1.0e-06
 Alpha HF Exchange    Energy =  -0.61701203204066
 Beta HF Exchange     Energy =  -0.61701203204066
 DFT Correlation      Energy =  -0.36657793427170
 DFT Exchange         Energy =  -4.95303897784347
 One-Electron (alpha) Energy = -37.24485235109813
 One-Electron (beta)  Energy = -37.24485235109813
 Total Coulomb        Energy =  29.47080144411403
 ---------------------------------------
  Cycle       Energy         DIIS error
 ---------------------------------------
    1     -40.1979120432      3.84e-02  
 Alpha HF Exchange    Energy =  -0.73769966231591
 Beta HF Exchange     Energy =  -0.58766307203590
 DFT Correlation      Energy =  -0.35673315853573
 DFT Exchange         Energy =  -5.23806288782004
 One-Electron (alpha) Energy = -41.74721219526448
 One-Electron (beta)  Energy = -34.64007952534934
 Total Coulomb        Energy =  31.62381215023185
    2     -40.3090061600      6.40e-03  
 Alpha HF Exchange    Energy =  -0.71796798889661
 Beta HF Exchange     Energy =  -0.57225546709601
 DFT Correlation      Energy =  -0.34682944630489
 DFT Exchange         Energy =  -5.09314412158621
 One-Electron (alpha) Energy = -40.93151059503550
 One-Electron (beta)  Energy = -33.94036260254882
 Total Coulomb        Energy =  29.90911471460645
    3     -40.3183233157      5.51e-03  
 Alpha HF Exchange    Energy =  -0.72945743661876
 Beta HF Exchange     Energy =  -0.57880744656489
 DFT Correlation      Energy =  -0.35114218995813
 DFT Exchange         Energy =  -5.16703003388322
 One-Electron (alpha) Energy = -41.36977502497540
 One-Electron (beta)  Energy = -34.23849612521978
 Total Coulomb        Energy =  30.72146732648709
    4     -40.3386087396      2.10e-04  
 Alpha HF Exchange    Energy =  -0.72974267048703
 Beta HF Exchange     Energy =  -0.57852700449737
 DFT Correlation      Energy =  -0.35094795080007
 DFT Exchange         Energy =  -5.16691456267539
 One-Electron (alpha) Energy = -41.38067906397347
 One-Electron (beta)  Energy = -34.21628085769329
 Total Coulomb        Energy =  30.70979337492659
    5     -40.3386665441      5.19e-05  
 Alpha HF Exchange    Energy =  -0.72986292133272
 Beta HF Exchange     Energy =  -0.57840885101665
 DFT Correlation      Energy =  -0.35089943823424
 DFT Exchange         Energy =  -5.16688773436126
 One-Electron (alpha) Energy = -41.38694260352673
 One-Electron (beta)  Energy = -34.20853155146933
 Total Coulomb        Energy =  30.70822929396768
    6     -40.3386716149      9.07e-06  
 Alpha HF Exchange    Energy =  -0.72989287805305
 Beta HF Exchange     Energy =  -0.57839595694208
 DFT Correlation      Energy =  -0.35089548740639
 DFT Exchange         Energy =  -5.16695223042171
 One-Electron (alpha) Energy = -41.38827174591952
 One-Electron (beta)  Energy = -34.20747525487314
 Total Coulomb        Energy =  30.70857960647272
    7     -40.3386717560      1.86e-06  
 Alpha HF Exchange    Energy =  -0.72989504601013
 Beta HF Exchange     Energy =  -0.57839425096186
 DFT Correlation      Energy =  -0.35089518809572
 DFT Exchange         Energy =  -5.16695395493526
 One-Electron (alpha) Energy = -41.38837912814220
 One-Electron (beta)  Energy = -34.20738288635835
 Total Coulomb        Energy =  30.70859650417266
    8     -40.3386717592      3.05e-07  Convergence criterion met
 ---------------------------------------
 SCF time:   CPU 13.38s  wall 1.00s 
<S^2> =          2.003721305
 Alpha HF Exchange    Energy =  -0.72989504601013
 Beta HF Exchange     Energy =  -0.57839425096186
 DFT Correlation      Energy =  -0.35089518809572
 DFT Exchange         Energy =  -5.16695395493526
 One-Electron (alpha) Energy = -41.38837912814220
 One-Electron (beta)  Energy = -34.20738288635835
 Total Coulomb        Energy =  30.70859650417266
 Nuclear repulsion Energy =  11.37463219112222
 SCF   energy in the final basis set =      -40.3386717592
 Total energy in the final basis set =      -40.3386717592
 
 --------------------------------------------------------------
 
                    Orbital Energies (a.u.)
 --------------------------------------------------------------
 
 Alpha MOs
 -- Occupied --
-10.190  -0.681  -0.415  -0.415  -0.316  -0.215
 -- Virtual --
  0.115   0.182   0.182   0.539   0.539   0.545   0.642   0.831
  0.890   0.890   0.950   1.436   1.436   1.910   1.910   1.939
  1.963   1.963   2.007   2.009   2.302   2.561   2.561   2.717
  2.718   3.251   3.459   3.459   4.290
 
 Beta MOs
 -- Occupied --
-10.175  -0.640  -0.405  -0.405
 -- Virtual --
 -0.075   0.006   0.132   0.187   0.187   0.546   0.546   0.630
  0.707   0.894   0.894   0.970   1.044   1.483   1.483   1.917
  1.918   2.002   2.042   2.215   2.222   2.222   2.333   2.591
  2.591   2.718   2.718   3.258   3.467   3.467   4.327
 --------------------------------------------------------------
 
          Ground-State Mulliken Net Atomic Charges

     Atom                 Charge (a.u.)    Spin (a.u.)
  --------------------------------------------------------
      1 H                     0.000333       0.999054
      2 C                    -0.367420       1.145141
      3 H                     0.122357      -0.048062
      4 H                     0.122377      -0.048070
      5 H                     0.122353      -0.048063
  --------------------------------------------------------
  Sum of atomic charges =    -0.000000
  Sum of spin   charges =     2.000000

 -----------------------------------------------------------------
                    Cartesian Multipole Moments
 -----------------------------------------------------------------
    Charge (ESU x 10^10)
                 0.0000
    Dipole Moment (Debye)
         X       0.0002      Y      -0.0011      Z      -0.0009
       Tot       0.0014
    Quadrupole Moments (Debye-Ang)
        XX      -8.7306     XY      -0.1150     YY      -8.3198
        XZ      -0.7625     YZ      -0.2002     ZZ      -9.6010
    Octopole Moments (Debye-Ang^2)
       XXX       1.2671    XXY       0.1387    XYY       1.2007
       YYY       0.4791    XXZ       1.6278    XYZ       0.0570
       YYZ       0.5427    XZZ       1.0531    YZZ       0.4343
       ZZZ       4.0367
    Hexadecapole Moments (Debye-Ang^3)
      XXXX     -25.5282   XXXY      -1.6201   XXYY      -7.4219
      XYYY      -1.8577   YYYY     -16.4883   XXXZ      -9.6237
      XXYZ      -1.0360   XYYZ      -3.3627   YYYZ      -2.9224
      XXZZ     -13.0711   XYZZ      -0.6522   YYZZ     -10.6134
      XZZZ      -9.8779   YZZZ      -3.3750   ZZZZ     -50.4416
 -----------------------------------------------------------------
 Calculating analytic gradient of the SCF energy
 Gradient of SCF Energy
            1           2           3           4           5
    1  -0.0030757   0.0036750  -0.0002354  -0.0002752  -0.0000886
    2  -0.0009955   0.0011710  -0.0002132   0.0001376  -0.0000999
    3  -0.0055126   0.0065653  -0.0003399  -0.0002639  -0.0004490
 Max gradient component =       6.565E-03
 RMS gradient           =       2.574E-03
 Gradient time:  CPU 4.55 s  wall 0.55 s
 Geometry Optimization Parameters
   NAtoms,    NIC,     NZ,  NCons,   NDum,   NFix, NCnnct, MaxDiis
        5      50       0       1       0       0       0       0

 Cartesian Hessian Update
 Hessian Updated using BFGS Update


** CONSTRAINED OPTIMIZATION IN DELOCALIZED INTERNAL COORDINATES **
   Searching for a Minimum

   Optimization Cycle:   4

                       Coordinates (Angstroms)
     ATOM                X               Y               Z
      1  H         1.0441182573    0.3299561199    1.8611524890
      2  C        -0.2615205680   -0.0824755068   -0.4659077616
      3  H         0.1480954969    0.8456482114   -0.8414173893
      4  H         0.2646268479   -1.0125809501   -0.6339874574
      5  H        -1.1954230341   -0.0806468744    0.0799581193
   Point Group: c1    Number of degrees of freedom:     9


   Energy is    -40.338671759

              Constraints and their Current Values
                                        Value     Constraint
   Distance(Angs):        1   2             2.700000     2.700000
 Hessian Updated using BFGS Update

  8 Hessian modes will be used to form the next step
  Hessian Eigenvalues:
     0.044644    0.054316    0.054454    0.078268    0.078299    0.303179
     0.304534    0.333954

 Minimum Search - Taking Simple RFO Step
 Searching for Lamda that Minimizes Along All modes
 Value Taken    Lamda =  -0.00000375
 Step Taken.  Stepsize is  0.008607

                             Maximum     Tolerance    Cnvgd?
         Gradient           0.000411      0.000300      NO
         Displacement       0.008530      0.001200      NO
         Energy change     -0.000059      0.000001      NO


 New Cartesian Coordinates Obtained by Inverse Iteration

 Displacement from previous Coordinates is:  0.003344
 ----------------------------------------------------------------
             Standard Nuclear Orientation (Angstroms)
    I     Atom           X                Y                Z
 ----------------------------------------------------------------
    1      H       1.0435829104     0.3299261932     1.8603569034
    2      C      -0.2619546376    -0.0826572694    -0.4667332530
    3      H       0.1484076911     0.8457564287    -0.8407555011
    4      H       0.2648813714    -1.0126327685    -0.6336604554
    5      H      -1.1950203354    -0.0804915839     0.0805903061
 ----------------------------------------------------------------
 Nuclear Repulsion Energy =    11.3746820487 hartrees
 There are        6 alpha and        4 beta electrons

                       Distance Matrix (Angstroms)
             H (  1)   C (  2)   H (  3)   H (  4)
   C (  2)  2.700000
   H (  3)  2.891959  1.081777
   H (  4)  2.937510  1.081793  1.873517
   H (  5)  2.889179  1.081748  1.873930  1.873594
 
 Applying Cartesian multipole field
    Component          Value
    ---------          -----
     (2,0,0)        1.00000E-10
     (0,2,0)        2.00000E-10
     (0,0,2)       -3.00000E-11
 Nucleus-field energy     =     0.0000000018 hartrees
 Requested basis set is 6-31G(d,p)
 There are 16 shells and 35 basis functions
 A cutoff of  1.0D-14 yielded    136 shell pairs
 There are       669 function pairs
 Smallest overlap matrix eigenvalue = 2.71E-02
 Guess from superposition of atomic densities
 Warning:  Energy on first SCF cycle will be non-variational
 SAD guess density has 10.000000 electrons

 -----------------------------------------------------------------------
  General SCF calculation program by
  Eric Jon Sundstrom, Paul Horn, Yuezhi Mao, Dmitri Zuev, Alec White,
  David Stuck, Shaama M.S., Shane Yost, Joonho Lee, David Small,
  Daniel Levine, Susi Lehtola, Hugh Burton, Evgeny Epifanovsky
 -----------------------------------------------------------------------
 Exchange:     0.2000 Hartree-Fock + 0.0800 Slater + 0.7200 B88
 Correlation:  0.1900 VWN1RPA + 0.8100 LYP
 Using SG-1 standard quadrature grid
 using 12 threads for integral computing
 -------------------------------------------------------
 OpenMP Integral computing Module                
 Release: version 1.0, May 2013, Q-Chem Inc. Pittsburgh 
 -------------------------------------------------------
 -------------------------------------------------------
 OpenMP BLAS3 based DFT computing Module                
 Release: version 1.0, May 2013, Q-Chem Inc. Pittsburgh 
 -------------------------------------------------------
 A unrestricted SCF calculation will be
 performed using DIIS
 SCF converges when DIIS error is below 1.0e-06
 Alpha HF Exchange    Energy =  -0.61700856255940
 Beta HF Exchange     Energy =  -0.61700856255940
 DFT Correlation      Energy =  -0.36657878218746
 DFT Exchange         Energy =  -4.95302991025659
 One-Electron (alpha) Energy = -37.24494311732963
 One-Electron (beta)  Energy = -37.24494311732963
 Total Coulomb        Energy =  29.47094016945538
 ---------------------------------------
  Cycle       Energy         DIIS error
 ---------------------------------------
    1     -40.1978898323      3.84e-02  
 Alpha HF Exchange    Energy =  -0.73769451783742
 Beta HF Exchange     Energy =  -0.58765925696404
 DFT Correlation      Energy =  -0.35673310618774
 DFT Exchange         Energy =  -5.23802996392248
 One-Electron (alpha) Energy = -41.74730992932683
 One-Electron (beta)  Energy = -34.64000609537215
 Total Coulomb        Energy =  31.62373939680797
    2     -40.3090114223      6.40e-03  
 Alpha HF Exchange    Energy =  -0.71796518036984
 Beta HF Exchange     Energy =  -0.57225229495913
 DFT Correlation      Energy =  -0.34682980414566
 DFT Exchange         Energy =  -5.09312220633668
 One-Electron (alpha) Energy = -40.93164916879157
 One-Electron (beta)  Energy = -33.94032485385859
 Total Coulomb        Energy =  29.90913393973890
    3     -40.3183275183      5.51e-03  
 Alpha HF Exchange    Energy =  -0.72945427459982
 Beta HF Exchange     Energy =  -0.57880411505263
 DFT Correlation      Energy =  -0.35114238492884
 DFT Exchange         Energy =  -5.16700633327947
 One-Electron (alpha) Energy = -41.36990109637821
 One-Electron (beta)  Energy = -34.23844919973812
 Total Coulomb        Energy =  30.72146295980066
    4     -40.3386123937      2.10e-04  
 Alpha HF Exchange    Energy =  -0.72973953718711
 Beta HF Exchange     Energy =  -0.57852362368289
 DFT Correlation      Energy =  -0.35094815121433
 DFT Exchange         Energy =  -5.16689075219226
 One-Electron (alpha) Energy = -41.38080495391693
 One-Electron (beta)  Energy = -34.21623419206720
 Total Coulomb        Energy =  30.70978895279507
    5     -40.3386702070      5.19e-05  
 Alpha HF Exchange    Energy =  -0.72985982985938
 Beta HF Exchange     Energy =  -0.57840543092415
 DFT Correlation      Energy =  -0.35089961712725
 DFT Exchange         Energy =  -5.16686390951432
 One-Electron (alpha) Energy = -41.38707010802551
 One-Electron (beta)  Energy = -34.20848199344672
 Total Coulomb        Energy =  30.70822355931604
    6     -40.3386752791      9.02e-06  
 Alpha HF Exchange    Energy =  -0.72988985527505
 Beta HF Exchange     Energy =  -0.57839253944721
 DFT Correlation      Energy =  -0.35089568231334
 DFT Exchange         Energy =  -5.16692869821871
 One-Electron (alpha) Energy = -41.38840182753948
 One-Electron (beta)  Energy = -34.20742578585928
 Total Coulomb        Energy =  30.70857691856516
    7     -40.3386754196      1.80e-06  
 Alpha HF Exchange    Energy =  -0.72989193163325
 Beta HF Exchange     Energy =  -0.57839085352922
 DFT Correlation      Energy =  -0.35089538465312
 DFT Exchange         Energy =  -5.16693014261746
 One-Electron (alpha) Energy = -41.38850542940208
 One-Electron (beta)  Energy = -34.20733549169774
 Total Coulomb        Energy =  30.70859176043053
    8     -40.3386754226      3.07e-07  Convergence criterion met
 ---------------------------------------
 SCF time:   CPU 13.52s  wall 1.00s 
<S^2> =          2.003721588
 Alpha HF Exchange    Energy =  -0.72989193163325
 Beta HF Exchange     Energy =  -0.57839085352922
 DFT Correlation      Energy =  -0.35089538465312
 DFT Exchange         Energy =  -5.16693014261746
 One-Electron (alpha) Energy = -41.38850542940208
 One-Electron (beta)  Energy = -34.20733549169774
 Total Coulomb        Energy =  30.70859176043053
 Nuclear repulsion Energy =  11.37468205046914
 SCF   energy in the final basis set =      -40.3386754226
 Total energy in the final basis set =      -40.3386754226
 
 --------------------------------------------------------------
 
                    Orbital Energies (a.u.)
 --------------------------------------------------------------
 
 Alpha MOs
 -- Occupied --
-10.190  -0.681  -0.415  -0.415  -0.316  -0.215
 -- Virtual --
  0.115   0.182   0.182   0.539   0.539   0.545   0.642   0.831
  0.890   0.890   0.950   1.436   1.436   1.910   1.910   1.939
  1.963   1.963   2.007   2.009   2.302   2.561   2.561   2.717
  2.718   3.251   3.459   3.459   4.290
 
 Beta MOs
 -- Occupied --
-10.175  -0.640  -0.405  -0.405
 -- Virtual --
 -0.075   0.006   0.132   0.187   0.187   0.546   0.546   0.630
  0.707   0.894   0.894   0.970   1.044   1.483   1.483   1.917
  1.918   2.002   2.042   2.215   2.222   2.222   2.333   2.591
  2.591   2.718   2.718   3.258   3.467   3.467   4.327
 --------------------------------------------------------------
 
          Ground-State Mulliken Net Atomic Charges

     Atom                 Charge (a.u.)    Spin (a.u.)
  --------------------------------------------------------
      1 H                     0.000334       0.999051
      2 C                    -0.367410       1.145159
      3 H                     0.122351      -0.048067
      4 H                     0.122379      -0.048075
      5 H                     0.122346      -0.048067
  --------------------------------------------------------
  Sum of atomic charges =    -0.000000
  Sum of spin   charges =     2.000000

 -----------------------------------------------------------------
                    Cartesian Multipole Moments
 -----------------------------------------------------------------
    Charge (ESU x 10^10)
                -0.0000
    Dipole Moment (Debye)
         X       0.0019      Y      -0.0006      Z       0.0020
       Tot       0.0028
    Quadrupole Moments (Debye-Ang)
        XX      -8.7318     XY      -0.1155     YY      -8.3197
        XZ      -0.7640     YZ      -0.2002     ZZ      -9.6036
    Octopole Moments (Debye-Ang^2)
       XXX       1.2779    XXY       0.1402    XYY       1.2041
       YYY       0.4823    XXZ       1.6344    XYZ       0.0572
       YYZ       0.5486    XZZ       1.0570    YZZ       0.4353
       ZZZ       4.0564
    Hexadecapole Moments (Debye-Ang^3)
      XXXX     -25.5292   XXXY      -1.6212   XXYY      -7.4213
      XYYY      -1.8581   YYYY     -16.4899   XXXZ      -9.6235
      XXYZ      -1.0366   XYYZ      -3.3624   YYYZ      -2.9243
      XXZZ     -13.0702   XYZZ      -0.6523   YYZZ     -10.6156
      XZZZ      -9.8767   YZZZ      -3.3760   ZZZZ     -50.4441
 -----------------------------------------------------------------
 Calculating analytic gradient of the SCF energy
 Gradient of SCF Energy
            1           2           3           4           5
    1  -0.0030733   0.0036471  -0.0002354  -0.0002489  -0.0000894
    2  -0.0009953   0.0011610  -0.0001921   0.0001077  -0.0000813
    3  -0.0055090   0.0065132  -0.0003214  -0.0002530  -0.0004298
 Max gradient component =       6.513E-03
 RMS gradient           =       2.561E-03
 Gradient time:  CPU 4.58 s  wall 0.59 s
 Geometry Optimization Parameters
   NAtoms,    NIC,     NZ,  NCons,   NDum,   NFix, NCnnct, MaxDiis
        5      50       0       1       0       0       0       0

 Cartesian Hessian Update
 Hessian Updated using BFGS Update


** CONSTRAINED OPTIMIZATION IN DELOCALIZED INTERNAL COORDINATES **
   Searching for a Minimum

   Optimization Cycle:   5

                       Coordinates (Angstroms)
     ATOM                X               Y               Z
      1  H         1.0435829104    0.3299261932    1.8603569034
      2  C        -0.2619546376   -0.0826572694   -0.4667332530
      3  H         0.1484076911    0.8457564287   -0.8407555011
      4  H         0.2648813714   -1.0126327685   -0.6336604554
      5  H        -1.1950203354   -0.0804915839    0.0805903061
   Point Group: c1    Number of degrees of freedom:     9


   Energy is    -40.338675423

              Constraints and their Current Values
                                        Value     Constraint
   Distance(Angs):        1   2             2.700000     2.700000
 Hessian Updated using BFGS Update

  8 Hessian modes will be used to form the next step
  Hessian Eigenvalues:
     0.002323    0.054316    0.054454    0.078299    0.079167    0.301847
     0.304495    0.304881

 Minimum Search - Taking Simple RFO Step
 Searching for Lamda that Minimizes Along All modes
 Value Taken    Lamda =  -0.00007081
 Step Taken.  Stepsize is  0.171650

                             Maximum     Tolerance    Cnvgd?
         Gradient           0.000392      0.000300      NO
         Displacement       0.170186      0.001200      NO
         Energy change     -0.000004      0.000001      NO


 New Cartesian Coordinates Obtained by Inverse Iteration

 Displacement from previous Coordinates is:  0.066564
 ----------------------------------------------------------------
             Standard Nuclear Orientation (Angstroms)
    I     Atom           X                Y                Z
 ----------------------------------------------------------------
    1      H       1.0328081307     0.3295087938     1.8445641971
    2      C      -0.2706825158    -0.0861373403    -0.4831283137
    3      H       0.1550350360     0.8471565590    -0.8275332767
    4      H       0.2691979586    -1.0126229223    -0.6272888584
    5      H      -1.1864616095    -0.0780040902     0.0931842517
 ----------------------------------------------------------------
 Nuclear Repulsion Energy =    11.3783830276 hartrees
 There are        6 alpha and        4 beta electrons

                       Distance Matrix (Angstroms)
             H (  1)   C (  2)   H (  3)   H (  4)
   C (  2)  2.700000
   H (  3)  2.859816  1.082076
   H (  4)  2.914528  1.081956  1.874009
   H (  5)  2.856319  1.082060  1.871699  1.873910
 
 Applying Cartesian multipole field
    Component          Value
    ---------          -----
     (2,0,0)        1.00000E-10
     (0,2,0)        2.00000E-10
     (0,0,2)       -3.00000E-11
 Nucleus-field energy     =     0.0000000018 hartrees
 Requested basis set is 6-31G(d,p)
 There are 16 shells and 35 basis functions
 A cutoff of  1.0D-14 yielded    136 shell pairs
 There are       669 function pairs
 Smallest overlap matrix eigenvalue = 2.71E-02
 Guess from superposition of atomic densities
 Warning:  Energy on first SCF cycle will be non-variational
 SAD guess density has 10.000000 electrons

 -----------------------------------------------------------------------
  General SCF calculation program by
  Eric Jon Sundstrom, Paul Horn, Yuezhi Mao, Dmitri Zuev, Alec White,
  David Stuck, Shaama M.S., Shane Yost, Joonho Lee, David Small,
  Daniel Levine, Susi Lehtola, Hugh Burton, Evgeny Epifanovsky
 -----------------------------------------------------------------------
 Exchange:     0.2000 Hartree-Fock + 0.0800 Slater + 0.7200 B88
 Correlation:  0.1900 VWN1RPA + 0.8100 LYP
 Using SG-1 standard quadrature grid
 using 12 threads for integral computing
 -------------------------------------------------------
 OpenMP Integral computing Module                
 Release: version 1.0, May 2013, Q-Chem Inc. Pittsburgh 
 -------------------------------------------------------
 -------------------------------------------------------
 OpenMP BLAS3 based DFT computing Module                
 Release: version 1.0, May 2013, Q-Chem Inc. Pittsburgh 
 -------------------------------------------------------
 A unrestricted SCF calculation will be
 performed using DIIS
 SCF converges when DIIS error is below 1.0e-06
 Alpha HF Exchange    Energy =  -0.61699202675347
 Beta HF Exchange     Energy =  -0.61699202675347
 DFT Correlation      Energy =  -0.36660851304280
 DFT Exchange         Energy =  -4.95295747566272
 One-Electron (alpha) Energy = -37.24904962485399
 One-Electron (beta)  Energy = -37.24904962485399
 Total Coulomb        Energy =  29.47548190257958
 ---------------------------------------
  Cycle       Energy         DIIS error
 ---------------------------------------
    1     -40.1977843599      3.84e-02  
 Alpha HF Exchange    Energy =  -0.73763687719432
 Beta HF Exchange     Energy =  -0.58761479005974
 DFT Correlation      Energy =  -0.35673953234633
 DFT Exchange         Energy =  -5.23764789914877
 One-Electron (alpha) Energy = -41.75171771941466
 One-Electron (beta)  Energy = -34.64086337104825
 Total Coulomb        Energy =  31.62477630781588
    2     -40.3090608519      6.40e-03  
 Alpha HF Exchange    Energy =  -0.71795722019421
 Beta HF Exchange     Energy =  -0.57221433016620
 DFT Correlation      Energy =  -0.34684148278395
 DFT Exchange         Energy =  -5.09294121000690
 One-Electron (alpha) Energy = -40.93668555967304
 One-Electron (beta)  Energy = -33.94187369578346
 Total Coulomb        Energy =  29.91175951283516
    3     -40.3183709563      5.51e-03  
 Alpha HF Exchange    Energy =  -0.72943679951324
 Beta HF Exchange     Energy =  -0.57876647650617
 DFT Correlation      Energy =  -0.35115087715973
 DFT Exchange         Energy =  -5.16679599987185
 One-Electron (alpha) Energy = -41.37465162239759
 One-Electron (beta)  Energy = -34.23989995018774
 Total Coulomb        Energy =  30.72367043844170
    4     -40.3386482577      2.10e-04  
 Alpha HF Exchange    Energy =  -0.72972160960027
 Beta HF Exchange     Energy =  -0.57848603482021
 DFT Correlation      Energy =  -0.35095643850958
 DFT Exchange         Energy =  -5.16667815362149
 One-Electron (alpha) Energy = -41.38549136010825
 One-Electron (beta)  Energy = -34.21774149369421
 Total Coulomb        Energy =  30.71198582387802
    5     -40.3387062370      5.17e-05  
 Alpha HF Exchange    Energy =  -0.72984199842427
 Beta HF Exchange     Energy =  -0.57836774460053
 DFT Correlation      Energy =  -0.35090774340075
 DFT Exchange         Energy =  -5.16665102984160
 One-Electron (alpha) Energy = -41.39174616703611
 One-Electron (beta)  Energy = -34.20998680159897
 Total Coulomb        Energy =  30.71040714100637
    6     -40.3387113144      8.46e-06  
 Alpha HF Exchange    Energy =  -0.72987284753332
 Beta HF Exchange     Energy =  -0.57835491292564
 DFT Correlation      Energy =  -0.35090399380280
 DFT Exchange         Energy =  -5.16671952380681
 One-Electron (alpha) Energy = -41.39311318293900
 One-Electron (beta)  Energy = -34.20893124435329
 Total Coulomb        Energy =  30.71080122724814
    7     -40.3387114487      7.94e-07  Convergence criterion met
 ---------------------------------------
 SCF time:   CPU 11.89s  wall 1.00s 
<S^2> =          2.003704667
 Alpha HF Exchange    Energy =  -0.72987284753332
 Beta HF Exchange     Energy =  -0.57835491292564
 DFT Correlation      Energy =  -0.35090399380280
 DFT Exchange         Energy =  -5.16671952380681
 One-Electron (alpha) Energy = -41.39311318293900
 One-Electron (beta)  Energy = -34.20893124435329
 Total Coulomb        Energy =  30.71080122724814
 Nuclear repulsion Energy =  11.37838302945205
 SCF   energy in the final basis set =      -40.3387114487
 Total energy in the final basis set =      -40.3387114487
 
 --------------------------------------------------------------
 
                    Orbital Energies (a.u.)
 --------------------------------------------------------------
 
 Alpha MOs
 -- Occupied --
-10.190  -0.681  -0.415  -0.415  -0.317  -0.215
 -- Virtual --
  0.115   0.182   0.182   0.539   0.539   0.545   0.642   0.833
  0.890   0.890   0.949   1.435   1.436   1.910   1.912   1.931
  1.962   1.962   2.007   2.015   2.304   2.555   2.557   2.720
  2.722   3.250   3.456   3.458   4.289
 
 Beta MOs
 -- Occupied --
-10.175  -0.640  -0.405  -0.405
 -- Virtual --
 -0.075   0.005   0.132   0.187   0.187   0.546   0.546   0.630
  0.708   0.893   0.894   0.970   1.042   1.482   1.483   1.918
  1.919   2.002   2.036   2.220   2.221   2.221   2.334   2.584
  2.586   2.722   2.724   3.256   3.464   3.466   4.326
 --------------------------------------------------------------
 
          Ground-State Mulliken Net Atomic Charges

     Atom                 Charge (a.u.)    Spin (a.u.)
  --------------------------------------------------------
      1 H                     0.000351       0.998977
      2 C                    -0.366948       1.144853
      3 H                     0.122129      -0.047947
      4 H                     0.122359      -0.047933
      5 H                     0.122109      -0.047949
  --------------------------------------------------------
  Sum of atomic charges =     0.000000
  Sum of spin   charges =     2.000000

 -----------------------------------------------------------------
                    Cartesian Multipole Moments
 -----------------------------------------------------------------
    Charge (ESU x 10^10)
                 0.0000
    Dipole Moment (Debye)
         X       0.0358      Y       0.0081      Z       0.0602
       Tot       0.0705
    Quadrupole Moments (Debye-Ang)
        XX      -8.7567     XY      -0.1219     YY      -8.3203
        XZ      -0.7918     YZ      -0.2010     ZZ      -9.6542
    Octopole Moments (Debye-Ang^2)
       XXX       1.4968    XXY       0.1672    XYY       1.2711
       YYY       0.5444    XXZ       1.7636    XYZ       0.0602
       YYZ       0.6691    XZZ       1.1339    YZZ       0.4514
       ZZZ       4.4432
    Hexadecapole Moments (Debye-Ang^3)
      XXXX     -25.5521   XXXY      -1.6452   XXYY      -7.4067
      XYYY      -1.8680   YYYY     -16.5182   XXXZ      -9.6204
      XXYZ      -1.0503   XYYZ      -3.3552   YYYZ      -2.9646
      XXZZ     -13.0534   XYZZ      -0.6563   YYZZ     -10.6596
      XZZZ      -9.8563   YZZZ      -3.3952   ZZZZ     -50.5004
 -----------------------------------------------------------------
 Calculating analytic gradient of the SCF energy
 Gradient of SCF Energy
            1           2           3           4           5
    1  -0.0030265   0.0032519  -0.0001761  -0.0000126  -0.0000367
    2  -0.0009905   0.0006460   0.0001042   0.0000417   0.0001985
    3  -0.0054373   0.0053662   0.0000578   0.0000622  -0.0000488
 Max gradient component =       5.437E-03
 RMS gradient           =       2.303E-03
 Gradient time:  CPU 4.59 s  wall 0.60 s
 Geometry Optimization Parameters
   NAtoms,    NIC,     NZ,  NCons,   NDum,   NFix, NCnnct, MaxDiis
        5      50       0       1       0       0       0       0

 Cartesian Hessian Update
 Hessian Updated using BFGS Update


** CONSTRAINED OPTIMIZATION IN DELOCALIZED INTERNAL COORDINATES **
   Searching for a Minimum

   Optimization Cycle:   6

                       Coordinates (Angstroms)
     ATOM                X               Y               Z
      1  H         1.0328081307    0.3295087938    1.8445641971
      2  C        -0.2706825158   -0.0861373403   -0.4831283137
      3  H         0.1550350360    0.8471565590   -0.8275332767
      4  H         0.2691979586   -1.0126229223   -0.6272888584
      5  H        -1.1864616095   -0.0780040902    0.0931842517
   Point Group: c1    Number of degrees of freedom:     9


   Energy is    -40.338711449

              Constraints and their Current Values
                                        Value     Constraint
   Distance(Angs):        1   2             2.700000     2.700000
 Hessian Updated using BFGS Update

  8 Hessian modes will be used to form the next step
  Hessian Eigenvalues:
     0.002375    0.054317    0.054486    0.078299    0.079705    0.301622
     0.304497    0.304891

 Minimum Search - Taking Simple RFO Step
 Searching for Lamda that Minimizes Along All modes
 Value Taken    Lamda =   0.00000000
 Step Taken.  Stepsize is  0.002866

                             Maximum     Tolerance    Cnvgd?
         Gradient           0.000173      0.000300     YES
         Displacement       0.002026      0.001200      NO
         Energy change     -0.000036      0.000001      NO


 New Cartesian Coordinates Obtained by Inverse Iteration

 Displacement from previous Coordinates is:  0.001452
 ----------------------------------------------------------------
             Standard Nuclear Orientation (Angstroms)
    I     Atom           X                Y                Z
 ----------------------------------------------------------------
    1      H       1.0326268653     0.3296471448     1.8444754825
    2      C      -0.2708665910    -0.0859828471    -0.4832183372
    3      H       0.1554675350     0.8470726038    -0.8275008310
    4      H       0.2690468149    -1.0125314670    -0.6274708355
    5      H      -1.1863776241    -0.0783044344     0.0935125212
 ----------------------------------------------------------------
 Nuclear Repulsion Energy =    11.3782124378 hartrees
 There are        6 alpha and        4 beta electrons

                       Distance Matrix (Angstroms)
             H (  1)   C (  2)   H (  3)   H (  4)
   C (  2)  2.700000
   H (  3)  2.859475  1.082074
   H (  4)  2.914621  1.082039  1.873777
   H (  5)  2.855920  1.082053  1.872201  1.873728
 
 Applying Cartesian multipole field
    Component          Value
    ---------          -----
     (2,0,0)        1.00000E-10
     (0,2,0)        2.00000E-10
     (0,0,2)       -3.00000E-11
 Nucleus-field energy     =     0.0000000018 hartrees
 Requested basis set is 6-31G(d,p)
 There are 16 shells and 35 basis functions
 A cutoff of  1.0D-14 yielded    136 shell pairs
 There are       669 function pairs
 Smallest overlap matrix eigenvalue = 2.71E-02
 Guess from superposition of atomic densities
 Warning:  Energy on first SCF cycle will be non-variational
 SAD guess density has 10.000000 electrons

 -----------------------------------------------------------------------
  General SCF calculation program by
  Eric Jon Sundstrom, Paul Horn, Yuezhi Mao, Dmitri Zuev, Alec White,
  David Stuck, Shaama M.S., Shane Yost, Joonho Lee, David Small,
  Daniel Levine, Susi Lehtola, Hugh Burton, Evgeny Epifanovsky
 -----------------------------------------------------------------------
 Exchange:     0.2000 Hartree-Fock + 0.0800 Slater + 0.7200 B88
 Correlation:  0.1900 VWN1RPA + 0.8100 LYP
 Using SG-1 standard quadrature grid
 using 12 threads for integral computing
 -------------------------------------------------------
 OpenMP Integral computing Module                
 Release: version 1.0, May 2013, Q-Chem Inc. Pittsburgh 
 -------------------------------------------------------
 -------------------------------------------------------
 OpenMP BLAS3 based DFT computing Module                
 Release: version 1.0, May 2013, Q-Chem Inc. Pittsburgh 
 -------------------------------------------------------
 A unrestricted SCF calculation will be
 performed using DIIS
 SCF converges when DIIS error is below 1.0e-06
 Alpha HF Exchange    Energy =  -0.61698816005167
 Beta HF Exchange     Energy =  -0.61698816005167
 DFT Correlation      Energy =  -0.36660797045725
 DFT Exchange         Energy =  -4.95294845243776
 One-Electron (alpha) Energy = -37.24891829960526
 One-Electron (beta)  Energy = -37.24891829960526
 Total Coulomb        Energy =  29.47539748840923
 ---------------------------------------
  Cycle       Energy         DIIS error
 ---------------------------------------
    1     -40.1977594142      3.84e-02  
 Alpha HF Exchange    Energy =  -0.73763298006133
 Beta HF Exchange     Energy =  -0.58761130746052
 DFT Correlation      Energy =  -0.35673826267905
 DFT Exchange         Energy =  -5.23762092712355
 One-Electron (alpha) Energy = -41.75153213917780
 One-Electron (beta)  Energy = -34.64068136902922
 Total Coulomb        Energy =  31.62454085374159
    2     -40.3090636922      6.40e-03  
 Alpha HF Exchange    Energy =  -0.71795510080353
 Beta HF Exchange     Energy =  -0.57221170687182
 DFT Correlation      Energy =  -0.34684051237802
 DFT Exchange         Energy =  -5.09292420415176
 One-Electron (alpha) Energy = -40.93654230889453
 One-Electron (beta)  Energy = -33.94171510572776
 Total Coulomb        Energy =  29.91160422568488
    3     -40.3183722735      5.51e-03  
 Alpha HF Exchange    Energy =  -0.72943422333744
 Beta HF Exchange     Energy =  -0.57876357710127
 DFT Correlation      Energy =  -0.35114979699516
 DFT Exchange         Energy =  -5.16677628375271
 One-Electron (alpha) Energy = -41.37449632368000
 One-Electron (beta)  Energy = -34.23973476125463
 Total Coulomb        Energy =  30.72349386851606
    4     -40.3386486580      2.10e-04  
 Alpha HF Exchange    Energy =  -0.72971903597045
 Beta HF Exchange     Energy =  -0.57848311171217
 DFT Correlation      Energy =  -0.35095533388579
 DFT Exchange         Energy =  -5.16665833057268
 One-Electron (alpha) Energy = -41.38533563551441
 One-Electron (beta)  Energy = -34.21757496236850
 Total Coulomb        Energy =  30.71180732390417
    5     -40.3387066465      5.17e-05  
 Alpha HF Exchange    Energy =  -0.72983943605897
 Beta HF Exchange     Energy =  -0.57836481612829
 DFT Correlation      Energy =  -0.35090663417886
 DFT Exchange         Energy =  -5.16663122387572
 One-Electron (alpha) Energy = -41.39159081874223
 One-Electron (beta)  Energy = -34.20981987489831
 Total Coulomb        Energy =  30.71022863959420
    6     -40.3387117247      8.46e-06  
 Alpha HF Exchange    Energy =  -0.72987028976798
 Beta HF Exchange     Energy =  -0.57835198352005
 DFT Correlation      Energy =  -0.35090288450967
 DFT Exchange         Energy =  -5.16669973379621
 One-Electron (alpha) Energy = -41.39295810299872
 One-Electron (beta)  Energy = -34.20876419770575
 Total Coulomb        Energy =  30.71062289376984
    7     -40.3387118589      7.91e-07  Convergence criterion met
 ---------------------------------------
 SCF time:   CPU 11.91s  wall 1.00s 
<S^2> =          2.003704655
 Alpha HF Exchange    Energy =  -0.72987028976798
 Beta HF Exchange     Energy =  -0.57835198352005
 DFT Correlation      Energy =  -0.35090288450967
 DFT Exchange         Energy =  -5.16669973379621
 One-Electron (alpha) Energy = -41.39295810299872
 One-Electron (beta)  Energy = -34.20876419770575
 Total Coulomb        Energy =  30.71062289376984
 Nuclear repulsion Energy =  11.37821243963753
 SCF   energy in the final basis set =      -40.3387118589
 Total energy in the final basis set =      -40.3387118589
 
 --------------------------------------------------------------
 
                    Orbital Energies (a.u.)
 --------------------------------------------------------------
 
 Alpha MOs
 -- Occupied --
-10.190  -0.681  -0.415  -0.415  -0.317  -0.215
 -- Virtual --
  0.115   0.182   0.182   0.539   0.539   0.545   0.642   0.833
  0.890   0.890   0.949   1.435   1.436   1.910   1.911   1.931
  1.962   1.962   2.007   2.015   2.304   2.555   2.556   2.721
  2.722   3.250   3.457   3.458   4.289
 
 Beta MOs
 -- Occupied --
-10.175  -0.640  -0.405  -0.405
 -- Virtual --
 -0.075   0.005   0.132   0.187   0.187   0.546   0.546   0.630
  0.708   0.893   0.894   0.970   1.042   1.482   1.483   1.918
  1.919   2.002   2.036   2.220   2.221   2.221   2.334   2.584
  2.585   2.722   2.723   3.256   3.465   3.466   4.326
 --------------------------------------------------------------
 
          Ground-State Mulliken Net Atomic Charges

     Atom                 Charge (a.u.)    Spin (a.u.)
  --------------------------------------------------------
      1 H                     0.000351       0.998976
      2 C                    -0.366939       1.144849
      3 H                     0.122142      -0.047946
      4 H                     0.122320      -0.047932
      5 H                     0.122126      -0.047948
  --------------------------------------------------------
  Sum of atomic charges =    -0.000000
  Sum of spin   charges =     2.000000

 -----------------------------------------------------------------
                    Cartesian Multipole Moments
 -----------------------------------------------------------------
    Charge (ESU x 10^10)
                -0.0000
    Dipole Moment (Debye)
         X       0.0362      Y       0.0080      Z       0.0606
       Tot       0.0711
    Quadrupole Moments (Debye-Ang)
        XX      -8.7567     XY      -0.1206     YY      -8.3212
        XZ      -0.7927     YZ      -0.2012     ZZ      -9.6541
    Octopole Moments (Debye-Ang^2)
       XXX       1.5001    XXY       0.1660    XYY       1.2721
       YYY       0.5426    XXZ       1.7648    XYZ       0.0597
       YYZ       0.6701    XZZ       1.1355    YZZ       0.4507
       ZZZ       4.4451
    Hexadecapole Moments (Debye-Ang^3)
      XXXX     -25.5522   XXXY      -1.6453   XXYY      -7.4065
      XYYY      -1.8684   YYYY     -16.5195   XXXZ      -9.6202
      XXYZ      -1.0507   XYYZ      -3.3552   YYYZ      -2.9651
      XXZZ     -13.0533   XYZZ      -0.6563   YYZZ     -10.6601
      XZZZ      -9.8559   YZZZ      -3.3957   ZZZZ     -50.5018
 -----------------------------------------------------------------
 Calculating analytic gradient of the SCF energy
 Gradient of SCF Energy
            1           2           3           4           5
    1  -0.0030261   0.0031649  -0.0001190   0.0000146  -0.0000344
    2  -0.0009905   0.0007727   0.0000742   0.0000091   0.0001345
    3  -0.0054367   0.0053851   0.0000311   0.0000595  -0.0000390
 Max gradient component =       5.437E-03
 RMS gradient           =       2.300E-03
 Gradient time:  CPU 4.64 s  wall 0.60 s
 Geometry Optimization Parameters
   NAtoms,    NIC,     NZ,  NCons,   NDum,   NFix, NCnnct, MaxDiis
        5      50       0       1       0       0       0       0

 Cartesian Hessian Update
 Hessian Updated using BFGS Update


** CONSTRAINED OPTIMIZATION IN DELOCALIZED INTERNAL COORDINATES **
   Searching for a Minimum

   Optimization Cycle:   7

                       Coordinates (Angstroms)
     ATOM                X               Y               Z
      1  H         1.0326268653    0.3296471448    1.8444754825
      2  C        -0.2708665910   -0.0859828471   -0.4832183372
      3  H         0.1554675350    0.8470726038   -0.8275008310
      4  H         0.2690468149   -1.0125314670   -0.6274708355
      5  H        -1.1863776241   -0.0783044344    0.0935125212
   Point Group: c1    Number of degrees of freedom:     9


   Energy is    -40.338711859

              Constraints and their Current Values
                                        Value     Constraint
   Distance(Angs):        1   2             2.700000     2.700000
 Hessian Updated using BFGS Update

  7 Hessian modes will be used to form the next step
  Hessian Eigenvalues:
     0.002324    0.020505    0.054318    0.062931    0.303070    0.304524
     0.311130

 Minimum Search - Taking Simple RFO Step
 Searching for Lamda that Minimizes Along All modes
 Value Taken    Lamda =   0.00000000
 Step Taken.  Stepsize is  0.007318

                             Maximum     Tolerance    Cnvgd?
         Gradient           0.000107      0.000300     YES
         Displacement       0.004800      0.001200      NO
         Energy change     -0.000000      0.000001     YES


                       Distance Matrix (Angstroms)
             H (  1)   C (  2)   H (  3)   H (  4)
   C (  2)  2.700000
   H (  3)  2.859475  1.082074
   H (  4)  2.914621  1.082039  1.873777
   H (  5)  2.855920  1.082053  1.872201  1.873728
 
 Final energy is   -40.3387118588910     


 ******************************
 **  OPTIMIZATION CONVERGED  **
 ******************************

                       Coordinates (Angstroms)
     ATOM                X               Y               Z
      1  H         1.0326268653    0.3296471448    1.8444754825
      2  C        -0.2708665910   -0.0859828471   -0.4832183372
      3  H         0.1554675350    0.8470726038   -0.8275008310
      4  H         0.2690468149   -1.0125314670   -0.6274708355
      5  H        -1.1863776241   -0.0783044344    0.0935125212

Z-matrix Print:
$molecule
0 3
C 
H  1 1.082039
H  1 1.082053 2 119.954499
H  1 1.082074 2 119.957703 3 173.718970 0
H  1 2.700000 2 90.335430 3 86.744601 0
$end

PES scan, value:    2.7000 energy:  -40.3387118589
------- Summary of potential scan: ------ 
    2.7000       -40.3387118589
----------------------------------------- 
Archival summary:
1\1\hpc0243\JobtypUnspecified\ProcedureUnspecified\6-31G**\14(3)\knomura\MonMar1116:27:092019MonMar1116:27:092019\0\\#,JobtypUnspecified,ProcedureUnspecified,6-31G**,\\0,3\C\H,1,1.08204\H,1,1.08205,2,119.954\H,1,1.08207,2,119.958,3,173.719,0\H,1,2.7,2,90.3354,3,86.7446,0\\\@

 Total job time:  15.66s(wall), 155.57s(cpu) 
 Mon Mar 11 16:27:09 2019

        *************************************************************
        *                                                           *
        *  Thank you very much for using Q-Chem.  Have a nice day.  *
        *                                                           *
        *************************************************************


