
Running Job 1 of 1 scan_ch4.xyz.data/inputs/bond_triplet_1.1.in
qchem scan_ch4.xyz.data/inputs/bond_triplet_1.1.in_32465.0 /staging/scratch/2851581/qchem32465/ 1
/usr/usc/qchem/5.1.1/exe/qcprog.exe_s scan_ch4.xyz.data/inputs/bond_triplet_1.1.in_32465.0 /staging/scratch/2851581/qchem32465/
Check license passed

                  Welcome to Q-Chem
     A Quantum Leap Into The Future Of Chemistry


 Q-Chem 5.1, Q-Chem, Inc., Pleasanton, CA (2018)

 Yihan Shao,  Zhengting Gan,  E. Epifanovsky,  A. T. B. Gilbert,  M. Wormit,  
 J. Kussmann,  A. W. Lange,  A. Behn,  Jia Deng,  Xintian Feng,  D. Ghosh,  
 M. Goldey,  P. R. Horn,  L. D. Jacobson,  I. Kaliman,  T. Kus,  A. Landau,  
 Jie Liu,  E. I. Proynov,  R. M. Richard,  R. P. Steele,  E. J. Sundstrom,  
 H. L. Woodcock III,  P. M. Zimmerman,  D. Zuev,  B. Albrecht,  E. Alguire,  
 S. A. Baeppler,  D. Barton,  Z. Benda,  Y. A. Bernard,  E. J. Berquist,  
 K. B. Bravaya,  H. Burton,  D. Casanova,  Chun-Min Chang,  Yunqing Chen,  
 A. Chien,  K. D. Closser,  M. P. Coons,  S. Coriani,  S. Dasgupta,  
 A. L. Dempwolff,  M. Diedenhofen,  Hainam Do,  R. G. Edgar,  Po-Tung Fang,  
 S. Faraji,  S. Fatehi,  Qingguo Feng,  K. D. Fenk,  J. Fosso-Tande,  
 Qinghui Ge,  A. Ghysels,  G. Gidofalvi,  J. Gomes,  J. Gonthier,  A. Gunina,  
 D. Hait,  M. W. D. Hanson-Heine,  P. H. P. Harbach,  A. W. Hauser,  
 J. E. Herr,  E. G. Hohenstein,  Z. C. Holden,  Kerwin Hui,  B. C. Huynh,  
 T.-C. Jagau,  Hyunjun Ji,  B. Kaduk,  K. Khistyaev,  Jaehoon Kim,  
 P. Klunzinger,  K. Koh,  D. Kosenkov,  L. Koulias,  T. Kowalczyk,  
 C. M. Krauter,  A. Kunitsa,  Ka Un Lao,  A. Laurent,  K. V. Lawler,  
 Joonho Lee,  D. Lefrancois,  S. Lehtola,  D. S. Levine,  Yi-Pei Li,  
 You-Sheng Lin,  Fenglai Liu,  E. Livshits,  A. Luenser,  P. Manohar,  
 E. Mansoor,  S. F. Manzer,  Shan-Ping Mao,  Yuezhi Mao,  N. Mardirossian,  
 A. V. Marenich,  T. Markovich,  L. A. Martinez-Martinez,  S. A. Maurer,  
 N. J. Mayhall,  S. C. McKenzie,  J.-M. Mewes,  A. F. Morrison,  
 J. W. Mullinax,  K. Nanda,  T. S. Nguyen-Beck,  R. Olivares-Amaya,  
 J. A. Parkhill,  T. M. Perrine,  F. Plasser,  P. Pokhilko,  S. Prager,  
 A. Prociuk,  E. Ramos,  D. R. Rehn,  F. Rob,  M. Schneider,  N. Sergueev,  
 S. M. Sharada,  S. Sharma,  D. W. Small,  T. Stauch,  T. Stein,  
 Yu-Chuan Su,  A. J. W. Thom,  A. Tkatchenko,  T. Tsuchimochi,  N. M. Tubman,  
 L. Vogt,  M. L. Vidal,  O. Vydrov,  M. A. Watson,  J. Wenzel,  
 M. de Wergifosse,  T. A. Wesolowski,  A. White,  J. Witte,  A. Yamada,  
 Jun Yang,  K. Yao,  S. Yeganeh,  S. R. Yost,  Zhi-Qiang You,  A. Zech,  
 Igor Ying Zhang,  Xing Zhang,  Yan Zhao,  Ying Zhu,  B. R. Brooks,  
 G. K. L. Chan,  C. J. Cramer,  M. S. Gordon,  W. J. Hehre,  A. Klamt,  
 M. W. Schmidt,  C. D. Sherrill,  D. G. Truhlar,  A. Aspuru-Guzik,  R. Baer,  
 A. T. Bell,  N. A. Besley,  Jeng-Da Chai,  A. E. DePrince, III,  
 R. A. DiStasio Jr.,  A. Dreuw,  B. D. Dunietz,  T. R. Furlani,  
 Chao-Ping Hsu,  Yousung Jung,  Jing Kong,  D. S. Lambrecht,  WanZhen Liang,  
 C. Ochsenfeld,  V. A. Rassolov,  L. V. Slipchenko,  J. E. Subotnik,  
 T. Van Voorhis,  J. M. Herbert,  A. I. Krylov,  P. M. W. Gill,  M. Head-Gordon

 Contributors to earlier versions of Q-Chem not listed above: 
 R. D. Adamson,  B. Austin,  J. Baker,  G. J. O. Beran,  K. Brandhorst,  
 S. T. Brown,  E. F. C. Byrd,  A. K. Chakraborty,  C.-L. Cheng,  
 Siu Hung Chien,  D. M. Chipman,  D. L. Crittenden,  H. Dachsel,  
 R. J. Doerksen,  A. D. Dutoi,  L. Fusti-Molnar,  W. A. Goddard III,  
 A. Golubeva-Zadorozhnaya,  S. R. Gwaltney,  G. Hawkins,  A. Heyden,  
 S. Hirata,  G. Kedziora,  F. J. Keil,  C. Kelley,  Jihan Kim,  R. A. King,  
 R. Z. Khaliullin,  P. P. Korambath,  W. Kurlancheek,  A. M. Lee,  M. S. Lee,  
 S. V. Levchenko,  Ching Yeh Lin,  D. Liotard,  R. C. Lochan,  I. Lotan,  
 P. E. Maslen,  N. Nair,  D. P. O'Neill,  D. Neuhauser,  E. Neuscamman,  
 C. M. Oana,  R. Olson,  B. Peters,  R. Peverati,  P. A. Pieniazek,  
 Y. M. Rhee,  J. Ritchie,  M. A. Rohrdanz,  E. Rosta,  N. J. Russ,  
 H. F. Schaefer III,  N. E. Schultz,  N. Shenvi,  A. C. Simmonett,  A. Sodt,  
 D. Stuck,  K. S. Thanthiriwatte,  V. Vanovschi,  Tao Wang,  A. Warshel,  
 C. F. Williams,  Q. Wu,  X. Xu,  W. Zhang

 Please cite Q-Chem as follows:
 Y. Shao et al., Mol. Phys. 113, 184-215 (2015)
 DOI: 10.1080/00268976.2014.952696

 Q-Chem 5.1.1 for Intel X86 EM64T Linux

 Parts of Q-Chem use Armadillo 8.300.2 (Tropical Shenanigans).
 http://arma.sourceforge.net/

 Q-Chem begins on Mon Mar 11 16:33:13 2019  

Host: 
0

     Scratch files written to /staging/scratch/2851581/qchem32465//
 Aug318 |scratch|qcdevops|jenkins|workspace|build_RNUM 6013   
Processing $rem in /usr/usc/qchem/5.1.1/config/preferences.
 MEM_TOTAL  2000 
Input Ideriv = 2
Curr. Ideriv = -1
Max.  Ideriv = 2

Checking the input file for inconsistencies... 	...done.

--------------------------------------------------------------
User input:
--------------------------------------------------------------

$comment
potential surface scanner
$end

$rem
JOBTYPE  PES_SCAN
UNRESTRICTED TRUE
SYM_IGNORE  TRUE
GEOM_OPT_MAX_CYCLES 400
SCF_MAX_CYCLES 400
METHOD   B3LYP
BASIS   6-31G**
PDB_PRINT 2
SCF_CONVERGENCE 6
THRESH 14
SCF_PRINT 1
$end
$molecule
0 3
H 0.280732 0.591848 1.002174
C -0.000606 -0.001362 -0.002291
H 0.817788 0.582219 -0.571024
H -0.280980 -0.592280 -1.002766
H -0.817039 -0.580527 0.573709
$end
$scan
stre 1 2 1.100000 1.101000 0.100000
$end
--------------------------------------------------------------
 ----------------------------------------------------------------
             Standard Nuclear Orientation (Angstroms)
    I     Atom           X                Y                Z
 ----------------------------------------------------------------
    1      H       0.2807320000     0.5918480000     1.0021740000
    2      C      -0.0006060000    -0.0013620000    -0.0022910000
    3      H       0.8177880000     0.5822190000    -0.5710240000
    4      H      -0.2809800000    -0.5922800000    -1.0027660000
    5      H      -0.8170390000    -0.5805270000     0.5737090000
 ----------------------------------------------------------------
 Nuclear Repulsion Energy =    12.5228852936 hartrees
 There are        6 alpha and        4 beta electrons
 Requested basis set is 6-31G(d,p)
 There are 16 shells and 35 basis functions

 Total QAlloc Memory Limit   2000 MB
 Mega-Array Size       188 MB
 MEM_STATIC part       192 MB
A total of 1 constraints
  
            1
    1   1.0100000
    2   1.0100000
    3   2.0100000
    4   1.1000000
    5   1.1010000
    6   0.1000000
    7   0.0000000
    8   0.0000000
    9   0.0000000
   10   0.0000000

                       Distance Matrix (Angstroms)
             H (  1)   C (  2)   H (  3)   H (  4)
   C (  2)  1.200000
   H (  3)  1.662370  1.154899
   H (  4)  2.395300  1.195301  1.665275
   H (  5)  1.662272  1.154890  2.309773  1.665164
 
 A cutoff of  1.0D-14 yielded    136 shell pairs
 There are       669 function pairs
 
 -------------------------------------------------------
 OpenMP Integral Computing Module                       
 Release: version 1.0, May 2013, Q-Chem Inc. Pittsburgh 
 -------------------------------------------------------
 Integral Job Info:
 Integral job number is                      11
 Integral operator is                         1
 short-range coefficients                     0
 long-range coefficients              100000000
 Omega coefficients                           0
 if combine SR and LR in K                    0
 Integral screening is                        0
 Integral computing path is                   2
 max size of driver memory is            800000
 size of driver memory is                593474
 size of scratch memory is              2361544
 max col of scratch BK array               1296
 max len of scratch array in speh3          155
 max len of scratch index in speh4           18
 max int batch size is                      520
 min int batch size is                       52
 fixed nKL is                                52
 max L of basis functions is                  2
 order of int derivative is                   0
 number of shells is                         16
 number of basis is                          35
 number of cartesian basis is                35
 number of contracted shell pairs           136
 number of primitive shell pairs            498
 maxK2 (contraction) of shell pair           36
 max number of K2 of shell pair               1
 max number of CS2 of shell pair             16
 max number of PS2 of shell pair             48
 mem total for path MDJ                  507880
 -------------------------------------------------------
 Smallest overlap matrix eigenvalue = 3.07E-02

 Scale SEOQF with 1.000000e+00/1.000000e+00/1.000000e+00

 Standard Electronic Orientation quadrupole field applied
 Nucleus-field energy     =    -0.0000000013 hartrees
 Guess from superposition of atomic densities
 Warning:  Energy on first SCF cycle will be non-variational
 SAD guess density has 10.000000 electrons

 -----------------------------------------------------------------------
  General SCF calculation program by
  Eric Jon Sundstrom, Paul Horn, Yuezhi Mao, Dmitri Zuev, Alec White,
  David Stuck, Shaama M.S., Shane Yost, Joonho Lee, David Small,
  Daniel Levine, Susi Lehtola, Hugh Burton, Evgeny Epifanovsky
 -----------------------------------------------------------------------
 Exchange:     0.2000 Hartree-Fock + 0.0800 Slater + 0.7200 B88
 Correlation:  0.1900 VWN1RPA + 0.8100 LYP
 Using SG-1 standard quadrature grid
 using 12 threads for integral computing
 -------------------------------------------------------
 OpenMP Integral computing Module                
 Release: version 1.0, May 2013, Q-Chem Inc. Pittsburgh 
 -------------------------------------------------------
 -------------------------------------------------------
 OpenMP BLAS3 based DFT computing Module                
 Release: version 1.0, May 2013, Q-Chem Inc. Pittsburgh 
 -------------------------------------------------------
 A unrestricted SCF calculation will be
 performed using DIIS
 SCF converges when DIIS error is below 1.0e-06
 Alpha HF Exchange    Energy =  -0.63203370353017
 Beta HF Exchange     Energy =  -0.63203370353017
 DFT Correlation      Energy =  -0.37521517264104
 DFT Exchange         Energy =  -4.98159576968871
 One-Electron (alpha) Energy = -38.43013532315700
 One-Electron (beta)  Energy = -38.43013532315700
 Total Coulomb        Energy =  30.62949563905707
 ---------------------------------------
  Cycle       Energy         DIIS error
 ---------------------------------------
    1     -40.3287680643      4.05e-02  
 Alpha HF Exchange    Energy =  -0.73484344004824
 Beta HF Exchange     Energy =  -0.57076908225374
 DFT Correlation      Energy =  -0.37381441954143
 DFT Exchange         Energy =  -5.18965001520161
 One-Electron (alpha) Energy = -43.30154395124696
 One-Electron (beta)  Energy = -34.90126425084912
 Total Coulomb        Energy =  32.29037000394159
    2     -40.2586298629      4.70e-03  
 Alpha HF Exchange    Energy =  -0.71819658696806
 Beta HF Exchange     Energy =  -0.55914246711651
 DFT Correlation      Energy =  -0.36646269156234
 DFT Exchange         Energy =  -5.07144084506826
 One-Electron (alpha) Energy = -42.57511572179839
 One-Electron (beta)  Energy = -34.42385772511449
 Total Coulomb        Energy =  30.93076428086430
    3     -40.2605664645      4.45e-03  
 Alpha HF Exchange    Energy =  -0.72671651586126
 Beta HF Exchange     Energy =  -0.56546652422017
 DFT Correlation      Energy =  -0.37000926381688
 DFT Exchange         Energy =  -5.13250063088915
 One-Electron (alpha) Energy = -42.93735174971539
 One-Electron (beta)  Energy = -34.68886857711504
 Total Coulomb        Energy =  31.62406654098332
    4     -40.2739614283      2.16e-04  
 Alpha HF Exchange    Energy =  -0.72651327525615
 Beta HF Exchange     Energy =  -0.56550933498648
 DFT Correlation      Energy =  -0.36988136245590
 DFT Exchange         Energy =  -5.13156673704758
 One-Electron (alpha) Energy = -42.92001220287993
 One-Electron (beta)  Energy = -34.69112981316690
 Total Coulomb        Energy =  31.60772217559063
    5     -40.2740052579      3.24e-05  
 Alpha HF Exchange    Energy =  -0.72643639666444
 Beta HF Exchange     Energy =  -0.56554850918112
 DFT Correlation      Energy =  -0.36986163189805
 DFT Exchange         Energy =  -5.13135384253457
 One-Electron (alpha) Energy = -42.91546623073776
 One-Electron (beta)  Energy = -34.69314179087976
 Total Coulomb        Energy =  31.60491629268343
    6     -40.2740068169      6.21e-06  
 Alpha HF Exchange    Energy =  -0.72642513524282
 Beta HF Exchange     Energy =  -0.56557007484651
 DFT Correlation      Energy =  -0.36986185086370
 DFT Exchange         Energy =  -5.13138408507842
 One-Electron (alpha) Energy = -42.91468470146814
 One-Electron (beta)  Energy = -34.69411212931150
 Total Coulomb        Energy =  31.60514578819814
    7     -40.2740068963      1.44e-06  
 Alpha HF Exchange    Energy =  -0.72642328086377
 Beta HF Exchange     Energy =  -0.56557278256010
 DFT Correlation      Energy =  -0.36986189407897
 DFT Exchange         Energy =  -5.13138651275182
 One-Electron (alpha) Energy = -42.91459205630103
 One-Electron (beta)  Energy = -34.69423097127906
 Total Coulomb        Energy =  31.60517530677149
    8     -40.2740068988      2.14e-07  Convergence criterion met
 ---------------------------------------
 SCF time:   CPU 13.74s  wall 1.00s 
<S^2> =          2.002941640
 Alpha HF Exchange    Energy =  -0.72642328086377
 Beta HF Exchange     Energy =  -0.56557278256010
 DFT Correlation      Energy =  -0.36986189407897
 DFT Exchange         Energy =  -5.13138651275182
 One-Electron (alpha) Energy = -42.91459205630103
 One-Electron (beta)  Energy = -34.69423097127906
 Total Coulomb        Energy =  31.60517530677149
 Nuclear repulsion Energy =  12.52288529230467
 SCF   energy in the final basis set =      -40.2740068988
 Total energy in the final basis set =      -40.2740068988
 
 --------------------------------------------------------------
 
                    Orbital Energies (a.u.)
 --------------------------------------------------------------
 
 Alpha MOs
 -- Occupied --
-10.239  -0.722  -0.473  -0.460  -0.251  -0.145
 -- Virtual --
  0.044   0.164   0.174   0.512   0.682   0.710   0.761   0.768
  0.855   0.867   0.891   1.226   1.374   1.389   1.925   1.991
  2.035   2.179   2.231   2.275   2.280   2.507   2.572   2.771
  2.812   2.840   3.248   4.049   4.704
 
 Beta MOs
 -- Occupied --
-10.228  -0.665  -0.430  -0.413
 -- Virtual --
 -0.076  -0.031   0.088   0.195   0.197   0.588   0.723   0.777
  0.779   0.783   0.896   0.928   0.947   1.242   1.434   1.451
  2.010   2.046   2.083   2.226   2.287   2.317   2.330   2.574
  2.633   2.823   2.844   2.884   3.295   4.091   4.752
 --------------------------------------------------------------
 
          Ground-State Mulliken Net Atomic Charges

     Atom                 Charge (a.u.)    Spin (a.u.)
  --------------------------------------------------------
      1 H                     0.077380       0.314035
      2 C                    -0.404820       0.940056
      3 H                     0.123900       0.220648
      4 H                     0.079642       0.304572
      5 H                     0.123899       0.220689
  --------------------------------------------------------
  Sum of atomic charges =    -0.000000
  Sum of spin   charges =     2.000000

 -----------------------------------------------------------------
                    Cartesian Multipole Moments
 -----------------------------------------------------------------
    Charge (ESU x 10^10)
                -0.0000
    Dipole Moment (Debye)
         X      -0.0019      Y      -0.0037      Z      -0.0063
       Tot       0.0075
    Quadrupole Moments (Debye-Ang)
        XX      -9.0734     XY       0.5360     YY      -9.3219
        XZ      -0.3852     YZ      -0.1481     ZZ      -9.1230
    Octopole Moments (Debye-Ang^2)
       XXX       0.0058    XXY       0.0049    XYY       0.0018
       YYY       0.0063    XXZ       0.0048    XYZ      -0.0040
       YYZ      -0.0046    XZZ      -0.0101    YZZ      -0.0148
       ZZZ      -0.0068
    Hexadecapole Moments (Debye-Ang^3)
      XXXX     -17.6048   XXXY      -3.1199   XXYY      -5.6108
      XYYY      -3.1893   YYYY     -17.6430   XXXZ       0.6030
      XXYZ      -0.6835   XYYZ       0.2334   YYYZ      -1.9384
      XXZZ      -7.0970   XYZZ      -1.1115   YYZZ      -7.3413
      XZZZ       0.2155   YZZZ      -2.1537   ZZZZ     -25.2370
 -----------------------------------------------------------------
 Calculating analytic gradient of the SCF energy
 Gradient of SCF Energy
            1           2           3           4           5
    1  -0.0000536  -0.0000319   0.0001055   0.0000349  -0.0000548
    2  -0.0001326  -0.0000727   0.0001098   0.0001025  -0.0000069
    3  -0.0002315  -0.0001157   0.0000043   0.0002007   0.0001422
 Max gradient component =       2.315E-04
 RMS gradient           =       1.132E-04
 Gradient time:  CPU 4.66 s  wall 0.61 s
 Geometry Optimization Parameters
   NAtoms,    NIC,     NZ,  NCons,   NDum,   NFix, NCnnct, MaxDiis
        5      20       0       1       0       0       0       0


** CONSTRAINED OPTIMIZATION IN DELOCALIZED INTERNAL COORDINATES **
   Searching for a Minimum

   Optimization Cycle:   1

                       Coordinates (Angstroms)
     ATOM                X               Y               Z
      1  H         0.2807320000    0.5918480000    1.0021740000
      2  C        -0.0006060000   -0.0013620000   -0.0022910000
      3  H         0.8177880000    0.5822190000   -0.5710240000
      4  H        -0.2809800000   -0.5922800000   -1.0027660000
      5  H        -0.8170390000   -0.5805270000    0.5737090000
   Point Group: c1    Number of degrees of freedom:     9


   Energy is    -40.274006899

              Constraints and their Current Values
                                        Value     Constraint
   Distance(Angs):        1   2             1.200000     1.100000

 Attempting to Generate Delocalized Internal Coordinates

  ***ERROR*** Angle     4    2    1   is near-linear
              But No atom available to define colinear bend
**WARNING** Problems with Internal Coordinates
  Switching to Cartesian Coordinates

   Using Lagrange Multiplier Algorithm


 Translations and Rotations Projected Out of Hessian

 10 Hessian modes will be used to form the next step
  Hessian Eigenvalues:
    -1.000000    1.000000    1.000000    1.000000    1.000000    1.000000
     1.000000    1.000000    1.000000    2.000000

 Minimum Search - Taking P-RFO Step
 Searching for Lamda that Maximizes Along the Constraint modes Only
 Value Taken    Lamda =   0.02328149
 Searching for Lamda that Minimizes Along All other modes
 Value Taken    Lamda =  -0.00592606
 Step Taken.  Stepsize is  0.160331

                             Maximum     Tolerance    Cnvgd?
         Gradient           0.188972      0.000300      NO
         Displacement       0.091777      0.001200      NO
         Energy change     *********      0.000001      NO

 ----------------------------------------------------------------
             Standard Nuclear Orientation (Angstroms)
    I     Atom           X                Y                Z
 ----------------------------------------------------------------
    1      H       0.2692254917     0.5675852385     0.9610873560
    2      C       0.0109518812     0.0230110251     0.0389751861
    3      H       0.8177295110     0.5821592800    -0.5710325336
    4      H      -0.2810047294    -0.5923361389    -1.0028684793
    5      H      -0.8170071545    -0.5805214047     0.5736404708
 ----------------------------------------------------------------
 Nuclear Repulsion Energy =    12.6681917268 hartrees
 There are        6 alpha and        4 beta electrons

                       Distance Matrix (Angstroms)
             H (  1)   C (  2)   H (  3)   H (  4)
   C (  2)  1.101616
   H (  3)  1.627409  1.155702
   H (  4)  2.346336  1.244720  1.665274
   H (  5)  1.627318  1.155697  2.309646  1.665178
 
 Applying Cartesian multipole field
    Component          Value
    ---------          -----
     (2,0,0)        1.00000E-10
     (0,2,0)        2.00000E-10
     (0,0,2)       -3.00000E-10
 Nucleus-field energy     =    -0.0000000013 hartrees
 Requested basis set is 6-31G(d,p)
 There are 16 shells and 35 basis functions
 A cutoff of  1.0D-14 yielded    136 shell pairs
 There are       669 function pairs
 Smallest overlap matrix eigenvalue = 2.76E-02
 Guess from superposition of atomic densities
 Warning:  Energy on first SCF cycle will be non-variational
 SAD guess density has 10.000000 electrons

 -----------------------------------------------------------------------
  General SCF calculation program by
  Eric Jon Sundstrom, Paul Horn, Yuezhi Mao, Dmitri Zuev, Alec White,
  David Stuck, Shaama M.S., Shane Yost, Joonho Lee, David Small,
  Daniel Levine, Susi Lehtola, Hugh Burton, Evgeny Epifanovsky
 -----------------------------------------------------------------------
 Exchange:     0.2000 Hartree-Fock + 0.0800 Slater + 0.7200 B88
 Correlation:  0.1900 VWN1RPA + 0.8100 LYP
 Using SG-1 standard quadrature grid
 using 12 threads for integral computing
 -------------------------------------------------------
 OpenMP Integral computing Module                
 Release: version 1.0, May 2013, Q-Chem Inc. Pittsburgh 
 -------------------------------------------------------
 -------------------------------------------------------
 OpenMP BLAS3 based DFT computing Module                
 Release: version 1.0, May 2013, Q-Chem Inc. Pittsburgh 
 -------------------------------------------------------
 A unrestricted SCF calculation will be
 performed using DIIS
 SCF converges when DIIS error is below 1.0e-06
 Alpha HF Exchange    Energy =  -0.63489679325980
 Beta HF Exchange     Energy =  -0.63489679325980
 DFT Correlation      Energy =  -0.37580498329423
 DFT Exchange         Energy =  -4.98787104484876
 One-Electron (alpha) Energy = -38.55087268396125
 One-Electron (beta)  Energy = -38.55087268396125
 Total Coulomb        Energy =  30.71913348915121
 ---------------------------------------
  Cycle       Energy         DIIS error
 ---------------------------------------
    1     -40.3478897679      4.18e-02  
 Alpha HF Exchange    Energy =  -0.73742074050712
 Beta HF Exchange     Energy =  -0.57287046612622
 DFT Correlation      Energy =  -0.37460600612772
 DFT Exchange         Energy =  -5.20645510539716
 One-Electron (alpha) Energy = -43.46168820691130
 One-Electron (beta)  Energy = -35.03021373588393
 Total Coulomb        Energy =  32.45960078577311
    2     -40.2554617496      4.92e-03  
 Alpha HF Exchange    Energy =  -0.71986347242038
 Beta HF Exchange     Energy =  -0.56065057957095
 DFT Correlation      Energy =  -0.36700742212270
 DFT Exchange         Energy =  -5.08238894972007
 One-Electron (alpha) Energy = -42.70695988489864
 One-Electron (beta)  Energy = -34.53426873536921
 Total Coulomb        Energy =  31.04507927529254
    3     -40.2578680432      4.59e-03  
 Alpha HF Exchange    Energy =  -0.72873170037280
 Beta HF Exchange     Energy =  -0.56724348777577
 DFT Correlation      Energy =  -0.37063038563349
 DFT Exchange         Energy =  -5.14581800379392
 One-Electron (alpha) Energy = -43.08130293595632
 One-Electron (beta)  Energy = -34.80730344326926
 Total Coulomb        Energy =  31.76073421686231
    4     -40.2721040144      2.21e-04  
 Alpha HF Exchange    Energy =  -0.72852136866648
 Beta HF Exchange     Energy =  -0.56729092431972
 DFT Correlation      Energy =  -0.37048744865048
 DFT Exchange         Energy =  -5.14485708818710
 One-Electron (alpha) Energy = -43.06390718382379
 One-Electron (beta)  Energy = -34.80898705620247
 Total Coulomb        Energy =  31.74370753907637
    5     -40.2721518052      4.06e-05  
 Alpha HF Exchange    Energy =  -0.72846171590824
 Beta HF Exchange     Energy =  -0.56732685022011
 DFT Correlation      Energy =  -0.37046820556749
 DFT Exchange         Energy =  -5.14470564095061
 One-Electron (alpha) Energy = -43.06008160032875
 One-Electron (beta)  Energy = -34.81081958424526
 Total Coulomb        Energy =  31.74151789681648
    6     -40.2721539748      1.27e-05  
 Alpha HF Exchange    Energy =  -0.72844441138731
 Beta HF Exchange     Energy =  -0.56734761865128
 DFT Correlation      Energy =  -0.37046417881763
 DFT Exchange         Energy =  -5.14470058015434
 One-Electron (alpha) Energy = -43.05903516442076
 One-Electron (beta)  Energy = -34.81164314443733
 Total Coulomb        Energy =  31.74128916053876
    7     -40.2721542118      3.77e-06  
 Alpha HF Exchange    Energy =  -0.72844207235023
 Beta HF Exchange     Energy =  -0.56735481512415
 DFT Correlation      Energy =  -0.37046421536798
 DFT Exchange         Energy =  -5.14471673134917
 One-Electron (alpha) Energy = -43.05883346798998
 One-Electron (beta)  Energy = -34.81195807276779
 Total Coulomb        Energy =  31.74142341717555
    8     -40.2721542322      5.49e-07  Convergence criterion met
 ---------------------------------------
 SCF time:   CPU 13.78s  wall 1.00s 
<S^2> =          2.002907415
 Alpha HF Exchange    Energy =  -0.72844207235023
 Beta HF Exchange     Energy =  -0.56735481512415
 DFT Correlation      Energy =  -0.37046421536798
 DFT Exchange         Energy =  -5.14471673134917
 One-Electron (alpha) Energy = -43.05883346798998
 One-Electron (beta)  Energy = -34.81195807276779
 Total Coulomb        Energy =  31.74142341717555
 Nuclear repulsion Energy =  12.66819172556457
 SCF   energy in the final basis set =      -40.2721542322
 Total energy in the final basis set =      -40.2721542322
 
 --------------------------------------------------------------
 
                    Orbital Energies (a.u.)
 --------------------------------------------------------------
 
 Alpha MOs
 -- Occupied --
-10.235  -0.727  -0.472  -0.467  -0.251  -0.143
 -- Virtual --
  0.047   0.173   0.173   0.513   0.677   0.703   0.766   0.777
  0.845   0.887   0.903   1.231   1.375   1.385   1.948   1.993
  2.051   2.192   2.231   2.276   2.288   2.557   2.570   2.807
  2.842   2.854   3.301   4.094   4.713
 
 Beta MOs
 -- Occupied --
-10.224  -0.671  -0.429  -0.421
 -- Virtual --
 -0.077  -0.027   0.091   0.198   0.200   0.588   0.718   0.763
  0.780   0.800   0.895   0.943   0.958   1.249   1.435   1.446
  2.038   2.049   2.095   2.240   2.289   2.325   2.331   2.620
  2.632   2.859   2.883   2.888   3.345   4.135   4.761
 --------------------------------------------------------------
 
          Ground-State Mulliken Net Atomic Charges

     Atom                 Charge (a.u.)    Spin (a.u.)
  --------------------------------------------------------
      1 H                     0.113848       0.194213
      2 C                    -0.402444       0.946178
      3 H                     0.114682       0.234442
      4 H                     0.059218       0.390679
      5 H                     0.114696       0.234489
  --------------------------------------------------------
  Sum of atomic charges =    -0.000000
  Sum of spin   charges =     2.000000

 -----------------------------------------------------------------
                    Cartesian Multipole Moments
 -----------------------------------------------------------------
    Charge (ESU x 10^10)
                -0.0000
    Dipole Moment (Debye)
         X       0.0628      Y       0.1328      Z       0.2248
       Tot       0.2685
    Quadrupole Moments (Debye-Ang)
        XX      -9.1114     XY       0.4773     YY      -9.2920
        XZ      -0.2963     YZ      -0.0574     ZZ      -9.0458
    Octopole Moments (Debye-Ang^2)
       XXX       0.0011    XXY       0.0057    XYY       0.0251
       YYY       0.0997    XXZ       0.0360    XYZ       0.0732
       YYZ       0.1793    XZZ       0.1662    YZZ       0.3019
       ZZZ       0.4738
    Hexadecapole Moments (Debye-Ang^3)
      XXXX     -17.7714   XXXY      -3.1956   XXYY      -5.6277
      XYYY      -3.2309   YYYY     -17.4108   XXXZ       0.8587
      XXYZ      -0.5375   XYYZ       0.3319   YYYZ      -1.6166
      XXZZ      -7.0225   XYZZ      -1.1441   YYZZ      -7.1842
      XZZZ       0.4425   YZZZ      -1.8250   ZZZZ     -24.4518
 -----------------------------------------------------------------
 Calculating analytic gradient of the SCF energy
 Gradient of SCF Energy
            1           2           3           4           5
    1  -0.0065875   0.0051444  -0.0012542  -0.0001943   0.0028916
    2  -0.0139180   0.0108366   0.0002659  -0.0003908   0.0032064
    3  -0.0235582   0.0183349   0.0043752  -0.0006400   0.0014881
 Max gradient component =       2.356E-02
 RMS gradient           =       9.361E-03
 Gradient time:  CPU 4.64 s  wall 0.60 s
 Geometry Optimization Parameters
   NAtoms,    NIC,     NZ,  NCons,   NDum,   NFix, NCnnct, MaxDiis
        5      20       0       1       0       0       0       0

 Cartesian Hessian Update
 Hessian Updated using BFGS Update


** CONSTRAINED OPTIMIZATION IN CARTESIAN COORDINATES **
   Searching for a Minimum

   Optimization Cycle:   2

                       Coordinates (Angstroms)
     ATOM                X               Y               Z
      1  H         0.2692254917    0.5675852385    0.9610873560
      2  C         0.0109518812    0.0230110251    0.0389751861
      3  H         0.8177295110    0.5821592800   -0.5710325336
      4  H        -0.2810047294   -0.5923361389   -1.0028684793
      5  H        -0.8170071545   -0.5805214047    0.5736404708
   Point Group: c1    Number of degrees of freedom:     9


   Energy is    -40.272154232

              Constraints and their Current Values
                                        Value     Constraint
   Distance(Angs):        1   2             1.101616     1.100000

   Using Lagrange Multiplier Algorithm


 Translations and Rotations Projected Out of Hessian

  6 Hessian modes will be used to form the next step
  Hessian Eigenvalues:
    -1.286988    0.999980    1.010005    1.068761    1.078308    1.558449

 Minimum Search - Taking P-RFO Step
 Searching for Lamda that Maximizes Along the Constraint modes Only
 Value Taken    Lamda =   0.00292319
 Searching for Lamda that Minimizes Along All other modes
 Value Taken    Lamda =  -0.00339153
 Step Taken.  Stepsize is  0.067020

                             Maximum     Tolerance    Cnvgd?
         Gradient           0.058488      0.000300      NO
         Displacement       0.066524      0.001200      NO
         Energy change      0.001853      0.000001      NO

 ----------------------------------------------------------------
             Standard Nuclear Orientation (Angstroms)
    I     Atom           X                Y                Z
 ----------------------------------------------------------------
    1      H       0.2694222406     0.5680043373     0.9617914488
    2      C       0.0115241828     0.0242228253     0.0410340817
    3      H       0.8183893160     0.5820175693    -0.5733504283
    4      H      -0.2809075748    -0.5921301958    -1.0025299147
    5      H      -0.8185331647    -0.5822165360     0.5728568125
 ----------------------------------------------------------------
 Nuclear Repulsion Energy =    12.6587371770 hartrees
 There are        6 alpha and        4 beta electrons

                       Distance Matrix (Angstroms)
             H (  1)   C (  2)   H (  3)   H (  4)
   C (  2)  1.100002
   H (  3)  1.630405  1.157426
   H (  4)  2.346771  1.246769  1.664714
   H (  5)  1.630314  1.157411  2.312736  1.664627
 
 Applying Cartesian multipole field
    Component          Value
    ---------          -----
     (2,0,0)        1.00000E-10
     (0,2,0)        2.00000E-10
     (0,0,2)       -3.00000E-10
 Nucleus-field energy     =    -0.0000000013 hartrees
 Requested basis set is 6-31G(d,p)
 There are 16 shells and 35 basis functions
 A cutoff of  1.0D-14 yielded    136 shell pairs
 There are       669 function pairs
 Smallest overlap matrix eigenvalue = 2.75E-02
 Guess from superposition of atomic densities
 Warning:  Energy on first SCF cycle will be non-variational
 SAD guess density has 10.000000 electrons

 -----------------------------------------------------------------------
  General SCF calculation program by
  Eric Jon Sundstrom, Paul Horn, Yuezhi Mao, Dmitri Zuev, Alec White,
  David Stuck, Shaama M.S., Shane Yost, Joonho Lee, David Small,
  Daniel Levine, Susi Lehtola, Hugh Burton, Evgeny Epifanovsky
 -----------------------------------------------------------------------
 Exchange:     0.2000 Hartree-Fock + 0.0800 Slater + 0.7200 B88
 Correlation:  0.1900 VWN1RPA + 0.8100 LYP
 Using SG-1 standard quadrature grid
 using 12 threads for integral computing
 -------------------------------------------------------
 OpenMP Integral computing Module                
 Release: version 1.0, May 2013, Q-Chem Inc. Pittsburgh 
 -------------------------------------------------------
 -------------------------------------------------------
 OpenMP BLAS3 based DFT computing Module                
 Release: version 1.0, May 2013, Q-Chem Inc. Pittsburgh 
 -------------------------------------------------------
 A unrestricted SCF calculation will be
 performed using DIIS
 SCF converges when DIIS error is below 1.0e-06
 Alpha HF Exchange    Energy =  -0.63470032935350
 Beta HF Exchange     Energy =  -0.63470032935350
 DFT Correlation      Energy =  -0.37576057813857
 DFT Exchange         Energy =  -4.98745346392281
 One-Electron (alpha) Energy = -38.54253340678812
 One-Electron (beta)  Energy = -38.54253340678812
 Total Coulomb        Energy =  30.71255300034700
 ---------------------------------------
  Cycle       Energy         DIIS error
 ---------------------------------------
    1     -40.3463913382      4.17e-02  
 Alpha HF Exchange    Energy =  -0.73727847133987
 Beta HF Exchange     Energy =  -0.57278194761028
 DFT Correlation      Energy =  -0.37454099156587
 DFT Exchange         Energy =  -5.20559344015626
 One-Electron (alpha) Energy = -43.45075935564282
 One-Electron (beta)  Energy = -35.02254681451199
 Total Coulomb        Energy =  32.44927910441788
    2     -40.2554847407      4.91e-03  
 Alpha HF Exchange    Energy =  -0.71977658285222
 Beta HF Exchange     Energy =  -0.56058183874546
 DFT Correlation      Energy =  -0.36695293560269
 DFT Exchange         Energy =  -5.08182172288165
 One-Electron (alpha) Energy = -42.69751829076107
 One-Electron (beta)  Energy = -34.52719885062839
 Total Coulomb        Energy =  31.03723672386566
    3     -40.2578763219      4.59e-03  
 Alpha HF Exchange    Energy =  -0.72862944594432
 Beta HF Exchange     Energy =  -0.56717021006642
 DFT Correlation      Energy =  -0.37057086055932
 DFT Exchange         Energy =  -5.14516941829838
 One-Electron (alpha) Energy = -43.07140898165508
 One-Electron (beta)  Energy = -34.80006582669164
 Total Coulomb        Energy =  31.75219370238950
    4     -40.2720838651      2.23e-04  
 Alpha HF Exchange    Energy =  -0.72841851162234
 Beta HF Exchange     Energy =  -0.56721755870809
 DFT Correlation      Energy =  -0.37042590984381
 DFT Exchange         Energy =  -5.14420138362428
 One-Electron (alpha) Energy = -43.05392536956712
 One-Electron (beta)  Energy = -34.80168957139225
 Total Coulomb        Energy =  31.73500866796438
    5     -40.2721324610      4.13e-05  
 Alpha HF Exchange    Energy =  -0.72835987741368
 Beta HF Exchange     Energy =  -0.56725351645619
 DFT Correlation      Energy =  -0.37040655640489
 DFT Exchange         Energy =  -5.14405388608219
 One-Electron (alpha) Energy = -43.05012156482242
 One-Electron (beta)  Energy = -34.80352257950543
 Total Coulomb        Energy =  31.73284610519734
    6     -40.2721346997      1.30e-05  
 Alpha HF Exchange    Energy =  -0.72834215674496
 Beta HF Exchange     Energy =  -0.56727461937540
 DFT Correlation      Energy =  -0.37040226040278
 DFT Exchange         Energy =  -5.14404777871967
 One-Electron (alpha) Energy = -43.04905207257226
 One-Electron (beta)  Energy = -34.80435185736010
 Total Coulomb        Energy =  31.73259861956896
    7     -40.2721349499      3.81e-06  
 Alpha HF Exchange    Energy =  -0.72833988252095
 Beta HF Exchange     Energy =  -0.56728187306534
 DFT Correlation      Energy =  -0.37040227363795
 DFT Exchange         Energy =  -5.14406434361078
 One-Electron (alpha) Energy = -43.04885081074823
 One-Electron (beta)  Energy = -34.80466833650050
 Total Coulomb        Energy =  31.73273537337866
    8     -40.2721349710      5.59e-07  Convergence criterion met
 ---------------------------------------
 SCF time:   CPU 13.45s  wall 1.00s 
<S^2> =          2.002924397
 Alpha HF Exchange    Energy =  -0.72833988252095
 Beta HF Exchange     Energy =  -0.56728187306534
 DFT Correlation      Energy =  -0.37040227363795
 DFT Exchange         Energy =  -5.14406434361078
 One-Electron (alpha) Energy = -43.04885081074823
 One-Electron (beta)  Energy = -34.80466833650050
 Total Coulomb        Energy =  31.73273537337866
 Nuclear repulsion Energy =  12.65873717575311
 SCF   energy in the final basis set =      -40.2721349710
 Total energy in the final basis set =      -40.2721349710
 
 --------------------------------------------------------------
 
                    Orbital Energies (a.u.)
 --------------------------------------------------------------
 
 Alpha MOs
 -- Occupied --
-10.235  -0.727  -0.472  -0.467  -0.251  -0.143
 -- Virtual --
  0.046   0.173   0.173   0.513   0.677   0.703   0.765   0.778
  0.844   0.885   0.904   1.233   1.376   1.385   1.947   1.993
  2.049   2.192   2.231   2.274   2.288   2.557   2.567   2.806
  2.839   2.853   3.300   4.089   4.708
 
 Beta MOs
 -- Occupied --
-10.224  -0.670  -0.429  -0.421
 -- Virtual --
 -0.077  -0.027   0.090   0.197   0.200   0.588   0.718   0.762
  0.779   0.801   0.894   0.941   0.958   1.251   1.436   1.446
  2.037   2.049   2.092   2.239   2.288   2.323   2.330   2.620
  2.629   2.858   2.883   2.885   3.344   4.130   4.757
 --------------------------------------------------------------
 
          Ground-State Mulliken Net Atomic Charges

     Atom                 Charge (a.u.)    Spin (a.u.)
  --------------------------------------------------------
      1 H                     0.114880       0.190176
      2 C                    -0.402288       0.946299
      3 H                     0.114251       0.235007
      4 H                     0.058888       0.393481
      5 H                     0.114269       0.235038
  --------------------------------------------------------
  Sum of atomic charges =    -0.000000
  Sum of spin   charges =     2.000000

 -----------------------------------------------------------------
                    Cartesian Multipole Moments
 -----------------------------------------------------------------
    Charge (ESU x 10^10)
                 0.0000
    Dipole Moment (Debye)
         X       0.0634      Y       0.1339      Z       0.2267
       Tot       0.2708
    Quadrupole Moments (Debye-Ang)
        XX      -9.1154     XY       0.4777     YY      -9.2935
        XZ      -0.2935     YZ      -0.0525     ZZ      -9.0425
    Octopole Moments (Debye-Ang^2)
       XXX      -0.0064    XXY      -0.0004    XYY       0.0219
       YYY       0.0895    XXZ       0.0292    XYZ       0.0757
       YYZ       0.1796    XZZ       0.1736    YZZ       0.3111
       ZZZ       0.4682
    Hexadecapole Moments (Debye-Ang^3)
      XXXX     -17.8078   XXXY      -3.2056   XXYY      -5.6362
      XYYY      -3.2409   YYYY     -17.4286   XXXZ       0.8707
      XXYZ      -0.5342   XYYZ       0.3366   YYYZ      -1.6043
      XXZZ      -7.0296   XYZZ      -1.1456   YYZZ      -7.1859
      XZZZ       0.4575   YZZZ      -1.8088   ZZZZ     -24.4551
 -----------------------------------------------------------------
 Calculating analytic gradient of the SCF energy
 Gradient of SCF Energy
            1           2           3           4           5
    1  -0.0066353   0.0053228  -0.0007775  -0.0002157   0.0023058
    2  -0.0140171   0.0112138   0.0005274  -0.0004364   0.0027123
    3  -0.0237247   0.0189756   0.0038056  -0.0007190   0.0016626
 Max gradient component =       2.372E-02
 RMS gradient           =       9.484E-03
 Gradient time:  CPU 4.69 s  wall 0.61 s
 Geometry Optimization Parameters
   NAtoms,    NIC,     NZ,  NCons,   NDum,   NFix, NCnnct, MaxDiis
        5      20       0       1       0       0       0       0

 Cartesian Hessian Update
 Hessian Updated using BFGS Update


** CONSTRAINED OPTIMIZATION IN CARTESIAN COORDINATES **
   Searching for a Minimum

   Optimization Cycle:   3

                       Coordinates (Angstroms)
     ATOM                X               Y               Z
      1  H         0.2694222406    0.5680043373    0.9617914488
      2  C         0.0115241828    0.0242228253    0.0410340817
      3  H         0.8183893160    0.5820175693   -0.5733504283
      4  H        -0.2809075748   -0.5921301958   -1.0025299147
      5  H        -0.8185331647   -0.5822165360    0.5728568125
   Point Group: c1    Number of degrees of freedom:     9


   Energy is    -40.272134971

              Constraints and their Current Values
                                        Value     Constraint
   Distance(Angs):        1   2             1.100002     1.100000

   Using Lagrange Multiplier Algorithm


 Translations and Rotations Projected Out of Hessian

 10 Hessian modes will be used to form the next step
  Hessian Eigenvalues:
    -1.264171    0.120141    1.000000    1.000000    1.000000    1.000020
     1.018966    1.021591    1.051068    1.585150

 Minimum Search - Taking P-RFO Step
 Searching for Lamda that Maximizes Along the Constraint modes Only
 Value Taken    Lamda =   0.00000004
 Searching for Lamda that Minimizes Along All other modes
 Value Taken    Lamda =  -0.00039499
 Step Taken.  Stepsize is  0.057241

                             Maximum     Tolerance    Cnvgd?
         Gradient           0.003806      0.000300      NO
         Displacement       0.031701      0.001200      NO
         Energy change      0.000019      0.000001      NO

 ----------------------------------------------------------------
             Standard Nuclear Orientation (Angstroms)
    I     Atom           X                Y                Z
 ----------------------------------------------------------------
    1      H       0.2723200047     0.5741447850     0.9721427026
    2      C       0.0144006155     0.0303251291     0.0514159229
    3      H       0.8220374821     0.5799298413    -0.5901261354
    4      H      -0.2800401772    -0.5902928123    -0.9994970353
    5      H      -0.8288229250    -0.5942089432     0.5658665452
 ----------------------------------------------------------------
 Nuclear Repulsion Energy =    12.5775292004 hartrees
 There are        6 alpha and        4 beta electrons

                       Distance Matrix (Angstroms)
             H (  1)   C (  2)   H (  3)   H (  4)
   C (  2)  1.100000
   H (  3)  1.656172  1.168725
   H (  4)  2.355500  1.255500  1.658789
   H (  5)  1.656088  1.168644  2.332437  1.658777
 
 Applying Cartesian multipole field
    Component          Value
    ---------          -----
     (2,0,0)        1.00000E-10
     (0,2,0)        2.00000E-10
     (0,0,2)       -3.00000E-10
 Nucleus-field energy     =    -0.0000000013 hartrees
 Requested basis set is 6-31G(d,p)
 There are 16 shells and 35 basis functions
 A cutoff of  1.0D-14 yielded    136 shell pairs
 There are       669 function pairs
 Smallest overlap matrix eigenvalue = 2.79E-02
 Guess from superposition of atomic densities
 Warning:  Energy on first SCF cycle will be non-variational
 SAD guess density has 10.000000 electrons

 -----------------------------------------------------------------------
  General SCF calculation program by
  Eric Jon Sundstrom, Paul Horn, Yuezhi Mao, Dmitri Zuev, Alec White,
  David Stuck, Shaama M.S., Shane Yost, Joonho Lee, David Small,
  Daniel Levine, Susi Lehtola, Hugh Burton, Evgeny Epifanovsky
 -----------------------------------------------------------------------
 Exchange:     0.2000 Hartree-Fock + 0.0800 Slater + 0.7200 B88
 Correlation:  0.1900 VWN1RPA + 0.8100 LYP
 Using SG-1 standard quadrature grid
 using 12 threads for integral computing
 -------------------------------------------------------
 OpenMP Integral computing Module                
 Release: version 1.0, May 2013, Q-Chem Inc. Pittsburgh 
 -------------------------------------------------------
 -------------------------------------------------------
 OpenMP BLAS3 based DFT computing Module                
 Release: version 1.0, May 2013, Q-Chem Inc. Pittsburgh 
 -------------------------------------------------------
 A unrestricted SCF calculation will be
 performed using DIIS
 SCF converges when DIIS error is below 1.0e-06
 Alpha HF Exchange    Energy =  -0.63305001521613
 Beta HF Exchange     Energy =  -0.63305001521613
 DFT Correlation      Energy =  -0.37539921317466
 DFT Exchange         Energy =  -4.98390704070121
 One-Electron (alpha) Energy = -38.47233444824901
 One-Electron (beta)  Energy = -38.47233444824901
 Total Coulomb        Energy =  30.65821489733406
 ---------------------------------------
  Cycle       Energy         DIIS error
 ---------------------------------------
    1     -40.3343310844      4.10e-02  
 Alpha HF Exchange    Energy =  -0.73597002695896
 Beta HF Exchange     Energy =  -0.57190350193429
 DFT Correlation      Energy =  -0.37400533818365
 DFT Exchange         Energy =  -5.19749421610102
 One-Electron (alpha) Energy = -43.35724730648317
 One-Electron (beta)  Energy = -34.95437661074535
 Total Coulomb        Energy =  32.35728529737413
    2     -40.2561825039      4.82e-03  
 Alpha HF Exchange    Energy =  -0.71898245423928
 Beta HF Exchange     Energy =  -0.55994923299760
 DFT Correlation      Energy =  -0.36653037567667
 DFT Exchange         Energy =  -5.07669221343342
 One-Electron (alpha) Energy = -42.61886375192485
 One-Electron (beta)  Energy = -34.46656244762615
 Total Coulomb        Energy =  30.97163627170576
    3     -40.2584150051      4.52e-03  
 Alpha HF Exchange    Energy =  -0.72767334056696
 Beta HF Exchange     Energy =  -0.56645326792144
 DFT Correlation      Energy =  -0.37009864529442
 DFT Exchange         Energy =  -5.13905946995625
 One-Electron (alpha) Energy = -42.98747955767444
 One-Electron (beta)  Energy = -34.73657083042862
 Total Coulomb        Energy =  31.67753755286926
    4     -40.2722683599      2.30e-04  
 Alpha HF Exchange    Energy =  -0.72746095241148
 Beta HF Exchange     Energy =  -0.56649984477484
 DFT Correlation      Energy =  -0.36994286406760
 DFT Exchange         Energy =  -5.13805691022068
 One-Electron (alpha) Energy = -42.96952456237541
 One-Electron (beta)  Energy = -34.73786646950092
 Total Coulomb        Energy =  31.65950077843288
    5     -40.2723216258      4.43e-05  
 Alpha HF Exchange    Energy =  -0.72740660652106
 Beta HF Exchange     Energy =  -0.56653601891045
 DFT Correlation      Energy =  -0.36992255689054
 DFT Exchange         Energy =  -5.13792494586586
 One-Electron (alpha) Energy = -42.96576833660043
 One-Electron (beta)  Energy = -34.73970037504540
 Total Coulomb        Energy =  31.65740542993077
    6     -40.2723242108      1.43e-05  
 Alpha HF Exchange    Energy =  -0.72738747291683
 Beta HF Exchange     Energy =  -0.56655863375290
 DFT Correlation      Energy =  -0.36991709795356
 DFT Exchange         Energy =  -5.13791606514042
 One-Electron (alpha) Energy = -42.96461839769138
 One-Electron (beta)  Energy = -34.74054835635867
 Total Coulomb        Energy =  31.65709230401258
    7     -40.2723245207      3.97e-06  
 Alpha HF Exchange    Energy =  -0.72738562196811
 Beta HF Exchange     Energy =  -0.56656613662076
 DFT Correlation      Energy =  -0.36991703145348
 DFT Exchange         Energy =  -5.13793502107190
 One-Electron (alpha) Energy = -42.96442605078793
 One-Electron (beta)  Energy = -34.74087025211710
 Total Coulomb        Energy =  31.65724637041631
    8     -40.2723245445      5.79e-07  Convergence criterion met
 ---------------------------------------
 SCF time:   CPU 13.48s  wall 2.00s 
<S^2> =          2.003026485
 Alpha HF Exchange    Energy =  -0.72738562196811
 Beta HF Exchange     Energy =  -0.56656613662076
 DFT Correlation      Energy =  -0.36991703145348
 DFT Exchange         Energy =  -5.13793502107190
 One-Electron (alpha) Energy = -42.96442605078793
 One-Electron (beta)  Energy = -34.74087025211710
 Total Coulomb        Energy =  31.65724637041631
 Nuclear repulsion Energy =  12.57752919908995
 SCF   energy in the final basis set =      -40.2723245445
 Total energy in the final basis set =      -40.2723245445
 
 --------------------------------------------------------------
 
                    Orbital Energies (a.u.)
 --------------------------------------------------------------
 
 Alpha MOs
 -- Occupied --
-10.237  -0.724  -0.468  -0.467  -0.251  -0.145
 -- Virtual --
  0.043   0.170   0.173   0.512   0.677   0.702   0.758   0.778
  0.841   0.872   0.903   1.248   1.379   1.387   1.936   1.992
  2.033   2.183   2.228   2.260   2.282   2.548   2.552   2.796
  2.820   2.845   3.286   4.050   4.680
 
 Beta MOs
 -- Occupied --
-10.226  -0.668  -0.425  -0.421
 -- Virtual --
 -0.076  -0.028   0.088   0.195   0.199   0.588   0.719   0.759
  0.772   0.802   0.891   0.927   0.956   1.267   1.439   1.447
  2.027   2.049   2.075   2.226   2.286   2.313   2.325   2.610
  2.614   2.849   2.864   2.876   3.330   4.091   4.729
 --------------------------------------------------------------
 
          Ground-State Mulliken Net Atomic Charges

     Atom                 Charge (a.u.)    Spin (a.u.)
  --------------------------------------------------------
      1 H                     0.118328       0.174155
      2 C                    -0.401195       0.946427
      3 H                     0.112224       0.237222
      4 H                     0.058378       0.405051
      5 H                     0.112265       0.237145
  --------------------------------------------------------
  Sum of atomic charges =     0.000000
  Sum of spin   charges =     2.000000

 -----------------------------------------------------------------
                    Cartesian Multipole Moments
 -----------------------------------------------------------------
    Charge (ESU x 10^10)
                 0.0000
    Dipole Moment (Debye)
         X       0.0606      Y       0.1281      Z       0.2170
       Tot       0.2592
    Quadrupole Moments (Debye-Ang)
        XX      -9.1415     XY       0.4850     YY      -9.3082
        XZ      -0.2818     YZ      -0.0275     ZZ      -9.0293
    Octopole Moments (Debye-Ang^2)
       XXX      -0.0615    XXY      -0.0451    XYY      -0.0037
       YYY       0.0051    XXZ      -0.0237    XYZ       0.0863
       YYZ       0.1638    XZZ       0.2105    YZZ       0.3478
       ZZZ       0.3804
    Hexadecapole Moments (Debye-Ang^3)
      XXXX     -18.0358   XXXY      -3.2664   XXYY      -5.6923
      XYYY      -3.3039   YYYY     -17.5741   XXXZ       0.9247
      XXYZ      -0.5262   XYYZ       0.3596   YYYZ      -1.5575
      XXZZ      -7.0878   XYZZ      -1.1534   YYZZ      -7.2156
      XZZZ       0.5323   YZZZ      -1.7360   ZZZZ     -24.5634
 -----------------------------------------------------------------
 Calculating analytic gradient of the SCF energy
 Gradient of SCF Energy
            1           2           3           4           5
    1  -0.0057762   0.0055584   0.0022485  -0.0002840  -0.0017467
    2  -0.0121971   0.0117204   0.0019531  -0.0005825  -0.0008939
    3  -0.0206379   0.0198480  -0.0005236  -0.0009803   0.0022938
 Max gradient component =       2.064E-02
 RMS gradient           =       8.907E-03
 Gradient time:  CPU 4.58 s  wall 0.55 s
 Geometry Optimization Parameters
   NAtoms,    NIC,     NZ,  NCons,   NDum,   NFix, NCnnct, MaxDiis
        5      20       0       1       0       0       0       0

 Cartesian Hessian Update
 Hessian Updated using BFGS Update


** CONSTRAINED OPTIMIZATION IN CARTESIAN COORDINATES **
   Searching for a Minimum

   Optimization Cycle:   4

                       Coordinates (Angstroms)
     ATOM                X               Y               Z
      1  H         0.2723200047    0.5741447850    0.9721427026
      2  C         0.0144006155    0.0303251291    0.0514159229
      3  H         0.8220374821    0.5799298413   -0.5901261354
      4  H        -0.2800401772   -0.5902928123   -0.9994970353
      5  H        -0.8288229250   -0.5942089432    0.5658665452
   Point Group: c1    Number of degrees of freedom:     9


   Energy is    -40.272324545

              Constraints and their Current Values
                                        Value     Constraint
   Distance(Angs):        1   2             1.100000     1.100000

   Using Lagrange Multiplier Algorithm


 Translations and Rotations Projected Out of Hessian

 10 Hessian modes will be used to form the next step
  Hessian Eigenvalues:
    -1.260540    0.120069    1.000000    1.000000    1.000000    1.000023
     1.019060    1.021683    1.104152    1.588544

 Minimum Search - Taking P-RFO Step
 Searching for Lamda that Maximizes Along the Constraint modes Only
 Value Taken    Lamda =   0.00000097
 Searching for Lamda that Minimizes Along All other modes
 Value Taken    Lamda =  -0.00001916
 Step Taken.  Stepsize is  0.004244

                             Maximum     Tolerance    Cnvgd?
         Gradient           0.002294      0.000300      NO
         Displacement       0.002136      0.001200      NO
         Energy change     -0.000190      0.000001      NO

 ----------------------------------------------------------------
             Standard Nuclear Orientation (Angstroms)
    I     Atom           X                Y                Z
 ----------------------------------------------------------------
    1      H       0.2723867169     0.5742855139     0.9723754016
    2      C       0.0144669437     0.0304643474     0.0516496328
    3      H       0.8209687600     0.5789815234    -0.5899467276
    4      H      -0.2799040161    -0.5900044310    -0.9990127043
    5      H      -0.8280234045    -0.5938289536     0.5647363975
 ----------------------------------------------------------------
 Nuclear Repulsion Energy =    12.5850890516 hartrees
 There are        6 alpha and        4 beta electrons

                       Distance Matrix (Angstroms)
             H (  1)   C (  2)   H (  3)   H (  4)
   C (  2)  1.100000
   H (  3)  1.655843  1.167460
   H (  4)  2.355200  1.255200  1.657041
   H (  5)  1.655767  1.167386  2.329797  1.657034
 
 Applying Cartesian multipole field
    Component          Value
    ---------          -----
     (2,0,0)        1.00000E-10
     (0,2,0)        2.00000E-10
     (0,0,2)       -3.00000E-10
 Nucleus-field energy     =    -0.0000000013 hartrees
 Requested basis set is 6-31G(d,p)
 There are 16 shells and 35 basis functions
 A cutoff of  1.0D-14 yielded    136 shell pairs
 There are       669 function pairs
 Smallest overlap matrix eigenvalue = 2.78E-02
 Guess from superposition of atomic densities
 Warning:  Energy on first SCF cycle will be non-variational
 SAD guess density has 10.000000 electrons

 -----------------------------------------------------------------------
  General SCF calculation program by
  Eric Jon Sundstrom, Paul Horn, Yuezhi Mao, Dmitri Zuev, Alec White,
  David Stuck, Shaama M.S., Shane Yost, Joonho Lee, David Small,
  Daniel Levine, Susi Lehtola, Hugh Burton, Evgeny Epifanovsky
 -----------------------------------------------------------------------
 Exchange:     0.2000 Hartree-Fock + 0.0800 Slater + 0.7200 B88
 Correlation:  0.1900 VWN1RPA + 0.8100 LYP
 Using SG-1 standard quadrature grid
 using 12 threads for integral computing
 -------------------------------------------------------
 OpenMP Integral computing Module                
 Release: version 1.0, May 2013, Q-Chem Inc. Pittsburgh 
 -------------------------------------------------------
 -------------------------------------------------------
 OpenMP BLAS3 based DFT computing Module                
 Release: version 1.0, May 2013, Q-Chem Inc. Pittsburgh 
 -------------------------------------------------------
 A unrestricted SCF calculation will be
 performed using DIIS
 SCF converges when DIIS error is below 1.0e-06
 Alpha HF Exchange    Energy =  -0.63320357843289
 Beta HF Exchange     Energy =  -0.63320357843289
 DFT Correlation      Energy =  -0.37543358104347
 DFT Exchange         Energy =  -4.98423874882072
 One-Electron (alpha) Energy = -38.47886218714680
 One-Electron (beta)  Energy = -38.47886218714680
 Total Coulomb        Energy =  30.66326638708200
 ---------------------------------------
  Cycle       Energy         DIIS error
 ---------------------------------------
    1     -40.3354484237      4.11e-02  
 Alpha HF Exchange    Energy =  -0.73609329852955
 Beta HF Exchange     Energy =  -0.57199726167118
 DFT Correlation      Energy =  -0.37404680133993
 DFT Exchange         Energy =  -5.19826568014151
 One-Electron (alpha) Energy = -43.36554329349440
 One-Electron (beta)  Energy = -34.96074414248173
 Total Coulomb        Energy =  32.36544482217650
    2     -40.2561566052      4.83e-03  
 Alpha HF Exchange    Energy =  -0.71906931566903
 Beta HF Exchange     Energy =  -0.56002728067883
 DFT Correlation      Energy =  -0.36656326683473
 DFT Exchange         Energy =  -5.07725762370913
 One-Electron (alpha) Energy = -42.62618859582943
 One-Electron (beta)  Energy = -34.47243180988395
 Total Coulomb        Energy =  30.97803704776884
    3     -40.2584117946      4.53e-03  
 Alpha HF Exchange    Energy =  -0.72777245037897
 Beta HF Exchange     Energy =  -0.56653669846226
 DFT Correlation      Energy =  -0.37013319968567
 DFT Exchange         Energy =  -5.13969219717320
 One-Electron (alpha) Energy = -42.99513506994032
 One-Electron (beta)  Energy = -34.74256496320093
 Total Coulomb        Energy =  31.68445994496104
    4     -40.2722855836      2.30e-04  
 Alpha HF Exchange    Energy =  -0.72756080909548
 Beta HF Exchange     Energy =  -0.56658346323165
 DFT Correlation      Energy =  -0.36997728797533
 DFT Exchange         Energy =  -5.13869353200541
 One-Electron (alpha) Energy = -42.97723386905623
 One-Electron (beta)  Energy = -34.74384770785535
 Total Coulomb        Energy =  31.66646882181475
    5     -40.2723387971      4.42e-05  
 Alpha HF Exchange    Energy =  -0.72750666646908
 Beta HF Exchange     Energy =  -0.56661944581340
 DFT Correlation      Energy =  -0.36995685576156
 DFT Exchange         Energy =  -5.13856155638074
 One-Electron (alpha) Energy = -42.97348976003761
 One-Electron (beta)  Energy = -34.74566744286938
 Total Coulomb        Energy =  31.66437129499519
    6     -40.2723413821      1.42e-05  
 Alpha HF Exchange    Energy =  -0.72748770595633
 Beta HF Exchange     Energy =  -0.56664192852091
 DFT Correlation      Energy =  -0.36995137096284
 DFT Exchange         Energy =  -5.13855289121857
 One-Electron (alpha) Energy = -42.97234975262761
 One-Electron (beta)  Energy = -34.74650721967759
 Total Coulomb        Energy =  31.66406012772894
    7     -40.2723416910      3.97e-06  
 Alpha HF Exchange    Energy =  -0.72748592536636
 Beta HF Exchange     Energy =  -0.56664935795241
 DFT Correlation      Energy =  -0.36995129220955
 DFT Exchange         Energy =  -5.13857184483720
 One-Electron (alpha) Energy = -42.97216080802214
 One-Electron (beta)  Energy = -34.74682545326829
 Total Coulomb        Energy =  31.66421391664561
    8     -40.2723417148      5.81e-07  Convergence criterion met
 ---------------------------------------
 SCF time:   CPU 13.19s  wall 2.00s 
<S^2> =          2.003018559
 Alpha HF Exchange    Energy =  -0.72748592536636
 Beta HF Exchange     Energy =  -0.56664935795241
 DFT Correlation      Energy =  -0.36995129220955
 DFT Exchange         Energy =  -5.13857184483720
 One-Electron (alpha) Energy = -42.97216080802214
 One-Electron (beta)  Energy = -34.74682545326829
 Total Coulomb        Energy =  31.66421391664561
 Nuclear repulsion Energy =  12.58508905025889
 SCF   energy in the final basis set =      -40.2723417148
 Total energy in the final basis set =      -40.2723417148
 
 --------------------------------------------------------------
 
                    Orbital Energies (a.u.)
 --------------------------------------------------------------
 
 Alpha MOs
 -- Occupied --
-10.237  -0.724  -0.468  -0.467  -0.251  -0.145
 -- Virtual --
  0.044   0.170   0.173   0.512   0.677   0.701   0.758   0.778
  0.841   0.873   0.903   1.248   1.379   1.387   1.937   1.992
  2.035   2.184   2.228   2.260   2.283   2.550   2.552   2.797
  2.822   2.847   3.287   4.053   4.682
 
 Beta MOs
 -- Occupied --
-10.225  -0.668  -0.425  -0.421
 -- Virtual --
 -0.076  -0.028   0.088   0.195   0.199   0.588   0.719   0.759
  0.772   0.802   0.892   0.927   0.956   1.267   1.439   1.447
  2.028   2.050   2.077   2.226   2.286   2.314   2.326   2.612
  2.614   2.849   2.866   2.878   3.331   4.094   4.730
 --------------------------------------------------------------
 
          Ground-State Mulliken Net Atomic Charges

     Atom                 Charge (a.u.)    Spin (a.u.)
  --------------------------------------------------------
      1 H                     0.117837       0.174803
      2 C                    -0.401096       0.946693
      3 H                     0.112822       0.235908
      4 H                     0.057577       0.406758
      5 H                     0.112861       0.235838
  --------------------------------------------------------
  Sum of atomic charges =     0.000000
  Sum of spin   charges =     2.000000

 -----------------------------------------------------------------
                    Cartesian Multipole Moments
 -----------------------------------------------------------------
    Charge (ESU x 10^10)
                 0.0000
    Dipole Moment (Debye)
         X       0.0608      Y       0.1285      Z       0.2176
       Tot       0.2600
    Quadrupole Moments (Debye-Ang)
        XX      -9.1353     XY       0.4862     YY      -9.3070
        XZ      -0.2878     YZ      -0.0361     ZZ      -9.0354
    Octopole Moments (Debye-Ang^2)
       XXX      -0.0628    XXY      -0.0461    XYY      -0.0041
       YYY       0.0038    XXZ      -0.0247    XYZ       0.0871
       YYZ       0.1648    XZZ       0.2126    YZZ       0.3508
       ZZZ       0.3818
    Hexadecapole Moments (Debye-Ang^3)
      XXXX     -17.9958   XXXY      -3.2542   XXYY      -5.6827
      XYYY      -3.2932   YYYY     -17.5606   XXXZ       0.9076
      XXYZ      -0.5330   XYYZ       0.3522   YYYZ      -1.5762
      XXZZ      -7.0814   XYZZ      -1.1516   YYZZ      -7.2180
      XZZZ       0.5118   YZZZ      -1.7609   ZZZZ     -24.5779
 -----------------------------------------------------------------
 Calculating analytic gradient of the SCF energy
 Gradient of SCF Energy
            1           2           3           4           5
    1  -0.0058139   0.0054903   0.0020064  -0.0001607  -0.0015220
    2  -0.0122768   0.0115757   0.0017695  -0.0003229  -0.0007455
    3  -0.0207738   0.0196015  -0.0003881  -0.0005415   0.0021019
 Max gradient component =       2.077E-02
 RMS gradient           =       8.867E-03
 Gradient time:  CPU 4.51 s  wall 0.54 s
 Geometry Optimization Parameters
   NAtoms,    NIC,     NZ,  NCons,   NDum,   NFix, NCnnct, MaxDiis
        5      20       0       1       0       0       0       0

 Cartesian Hessian Update
 Hessian Updated using BFGS Update


** CONSTRAINED OPTIMIZATION IN CARTESIAN COORDINATES **
   Searching for a Minimum

   Optimization Cycle:   5

                       Coordinates (Angstroms)
     ATOM                X               Y               Z
      1  H         0.2723867169    0.5742855139    0.9723754016
      2  C         0.0144669437    0.0304643474    0.0516496328
      3  H         0.8209687600    0.5789815234   -0.5899467276
      4  H        -0.2799040161   -0.5900044310   -0.9990127043
      5  H        -0.8280234045   -0.5938289536    0.5647363975
   Point Group: c1    Number of degrees of freedom:     9


   Energy is    -40.272341715

              Constraints and their Current Values
                                        Value     Constraint
   Distance(Angs):        1   2             1.100000     1.100000

   Using Lagrange Multiplier Algorithm


 Translations and Rotations Projected Out of Hessian

  8 Hessian modes will be used to form the next step
  Hessian Eigenvalues:
    -1.258895    0.064819    0.201710    1.000000    1.000000    1.020635
     1.145153    1.590305

 Minimum Search - Taking P-RFO Step
 Searching for Lamda that Maximizes Along the Constraint modes Only
 Value Taken    Lamda =   0.00000000
 Searching for Lamda that Minimizes Along All other modes
 Value Taken    Lamda =  -0.00019355
 Step Taken.  Stepsize is  0.052121

                             Maximum     Tolerance    Cnvgd?
         Gradient           0.002102      0.000300      NO
         Displacement       0.029929      0.001200      NO
         Energy change     -0.000017      0.000001      NO

 ----------------------------------------------------------------
             Standard Nuclear Orientation (Angstroms)
    I     Atom           X                Y                Z
 ----------------------------------------------------------------
    1      H       0.2743652727     0.5784685951     0.9793776459
    2      C       0.0164320851     0.0346160750     0.0586740415
    3      H       0.8093407191     0.5669263713    -0.5932668170
    4      H      -0.2784562240    -0.5869320910    -0.9938816473
    5      H      -0.8217868528    -0.5931809504     0.5488987769
 ----------------------------------------------------------------
 Nuclear Repulsion Energy =    12.6413748513 hartrees
 There are        6 alpha and        4 beta electrons

                       Distance Matrix (Angstroms)
             H (  1)   C (  2)   H (  3)   H (  4)
   C (  2)  1.100000
   H (  3)  1.661187  1.156324
   H (  4)  2.357440  1.257440  1.635599
   H (  5)  1.661212  1.156313  2.304554  1.635671
 
 Applying Cartesian multipole field
    Component          Value
    ---------          -----
     (2,0,0)        1.00000E-10
     (0,2,0)        2.00000E-10
     (0,0,2)       -3.00000E-10
 Nucleus-field energy     =    -0.0000000013 hartrees
 Requested basis set is 6-31G(d,p)
 There are 16 shells and 35 basis functions
 A cutoff of  1.0D-14 yielded    136 shell pairs
 There are       669 function pairs
 Smallest overlap matrix eigenvalue = 2.78E-02
 Guess from superposition of atomic densities
 Warning:  Energy on first SCF cycle will be non-variational
 SAD guess density has 10.000000 electrons

 -----------------------------------------------------------------------
  General SCF calculation program by
  Eric Jon Sundstrom, Paul Horn, Yuezhi Mao, Dmitri Zuev, Alec White,
  David Stuck, Shaama M.S., Shane Yost, Joonho Lee, David Small,
  Daniel Levine, Susi Lehtola, Hugh Burton, Evgeny Epifanovsky
 -----------------------------------------------------------------------
 Exchange:     0.2000 Hartree-Fock + 0.0800 Slater + 0.7200 B88
 Correlation:  0.1900 VWN1RPA + 0.8100 LYP
 Using SG-1 standard quadrature grid
 using 12 threads for integral computing
 -------------------------------------------------------
 OpenMP Integral computing Module                
 Release: version 1.0, May 2013, Q-Chem Inc. Pittsburgh 
 -------------------------------------------------------
 -------------------------------------------------------
 OpenMP BLAS3 based DFT computing Module                
 Release: version 1.0, May 2013, Q-Chem Inc. Pittsburgh 
 -------------------------------------------------------
 A unrestricted SCF calculation will be
 performed using DIIS
 SCF converges when DIIS error is below 1.0e-06
 Alpha HF Exchange    Energy =  -0.63434771862493
 Beta HF Exchange     Energy =  -0.63434771862493
 DFT Correlation      Energy =  -0.37568828104391
 DFT Exchange         Energy =  -4.98671815977117
 One-Electron (alpha) Energy = -38.52708199268235
 One-Electron (beta)  Energy = -38.52708199268235
 Total Coulomb        Energy =  30.70027320263736
 ---------------------------------------
  Cycle       Energy         DIIS error
 ---------------------------------------
    1     -40.3436178108      4.16e-02  
 Alpha HF Exchange    Energy =  -0.73703401031237
 Beta HF Exchange     Energy =  -0.57276641086465
 DFT Correlation      Energy =  -0.37430057873710
 DFT Exchange         Energy =  -5.20419202227120
 One-Electron (alpha) Energy = -43.42493638198976
 One-Electron (beta)  Energy = -35.00838097905375
 Total Coulomb        Energy =  32.42428636160380
    2     -40.2559491717      4.88e-03  
 Alpha HF Exchange    Energy =  -0.71979023336184
 Beta HF Exchange     Energy =  -0.56071129707674
 DFT Correlation      Energy =  -0.36675675466318
 DFT Exchange         Energy =  -5.08195215881725
 One-Electron (alpha) Energy = -42.68019383593434
 One-Electron (beta)  Energy = -34.51697368419696
 Total Coulomb        Energy =  31.02657491379203
    3     -40.2584282003      4.55e-03  
 Alpha HF Exchange    Energy =  -0.72857825995979
 Beta HF Exchange     Energy =  -0.56725164052577
 DFT Correlation      Energy =  -0.37032417506100
 DFT Exchange         Energy =  -5.14480867901860
 One-Electron (alpha) Energy = -43.05100142974390
 One-Electron (beta)  Energy = -34.78749333560873
 Total Coulomb        Energy =  31.73567674010929
    4     -40.2724059298      2.30e-04  
 Alpha HF Exchange    Energy =  -0.72837675088518
 Beta HF Exchange     Energy =  -0.56729980591395
 DFT Correlation      Energy =  -0.37015981508381
 DFT Exchange         Energy =  -5.14384279129970
 One-Electron (alpha) Energy = -43.03355451952619
 One-Electron (beta)  Energy = -34.78840028667545
 Total Coulomb        Energy =  31.71779788187933
    5     -40.2724612375      4.51e-05  
 Alpha HF Exchange    Energy =  -0.72832765880266
 Beta HF Exchange     Energy =  -0.56733355635501
 DFT Correlation      Energy =  -0.37013698314743
 DFT Exchange         Energy =  -5.14371933770836
 One-Electron (alpha) Energy = -43.02999997238776
 One-Electron (beta)  Energy = -34.79003125541019
 Total Coulomb        Energy =  31.71570989358084
    6     -40.2724640203      1.44e-05  
 Alpha HF Exchange    Energy =  -0.72831044257792
 Beta HF Exchange     Energy =  -0.56735504555716
 DFT Correlation      Energy =  -0.37013048278670
 DFT Exchange         Energy =  -5.14371261530871
 One-Electron (alpha) Energy = -43.02895263602439
 One-Electron (beta)  Energy = -34.79077104131921
 Total Coulomb        Energy =  31.71539306595735
    7     -40.2724643477      4.03e-06  
 Alpha HF Exchange    Energy =  -0.72830979960058
 Beta HF Exchange     Energy =  -0.56736156416824
 DFT Correlation      Energy =  -0.37013017044900
 DFT Exchange         Energy =  -5.14373243168333
 One-Electron (alpha) Energy = -43.02881297397845
 One-Electron (beta)  Energy = -34.79104088087757
 Total Coulomb        Energy =  31.71554859817451
    8     -40.2724643726      6.20e-07  Convergence criterion met
 ---------------------------------------
 SCF time:   CPU 13.41s  wall 1.00s 
<S^2> =          2.002975208
 Alpha HF Exchange    Energy =  -0.72830979960058
 Beta HF Exchange     Energy =  -0.56736156416824
 DFT Correlation      Energy =  -0.37013017044900
 DFT Exchange         Energy =  -5.14373243168333
 One-Electron (alpha) Energy = -43.02881297397845
 One-Electron (beta)  Energy = -34.79104088087757
 Total Coulomb        Energy =  31.71554859817451
 Nuclear repulsion Energy =  12.64137484996400
 SCF   energy in the final basis set =      -40.2724643726
 Total energy in the final basis set =      -40.2724643726
 
 --------------------------------------------------------------
 
                    Orbital Energies (a.u.)
 --------------------------------------------------------------
 
 Alpha MOs
 -- Occupied --
-10.235  -0.726  -0.471  -0.467  -0.251  -0.144
 -- Virtual --
  0.046   0.172   0.173   0.512   0.677   0.699   0.753   0.778
  0.842   0.876   0.905   1.257   1.376   1.387   1.941   1.994
  2.047   2.186   2.230   2.260   2.287   2.551   2.566   2.794
  2.837   2.871   3.297   4.064   4.690
 
 Beta MOs
 -- Occupied --
-10.224  -0.670  -0.429  -0.421
 -- Virtual --
 -0.077  -0.026   0.090   0.195   0.200   0.588   0.720   0.755
  0.766   0.803   0.896   0.928   0.958   1.278   1.435   1.447
  2.031   2.052   2.089   2.225   2.287   2.319   2.328   2.613
  2.626   2.848   2.876   2.905   3.340   4.105   4.739
 --------------------------------------------------------------
 
          Ground-State Mulliken Net Atomic Charges

     Atom                 Charge (a.u.)    Spin (a.u.)
  --------------------------------------------------------
      1 H                     0.112877       0.176747
      2 C                    -0.398994       0.950463
      3 H                     0.120089       0.218731
      4 H                     0.045914       0.435362
      5 H                     0.120114       0.218698
  --------------------------------------------------------
  Sum of atomic charges =     0.000000
  Sum of spin   charges =     2.000000

 -----------------------------------------------------------------
                    Cartesian Multipole Moments
 -----------------------------------------------------------------
    Charge (ESU x 10^10)
                 0.0000
    Dipole Moment (Debye)
         X       0.0641      Y       0.1352      Z       0.2289
       Tot       0.2735
    Quadrupole Moments (Debye-Ang)
        XX      -9.0637     XY       0.5073     YY      -9.3001
        XZ      -0.3661     YZ      -0.1425     ZZ      -9.1140
    Octopole Moments (Debye-Ang^2)
       XXX      -0.0956    XXY      -0.0722    XYY      -0.0162
       YYY      -0.0354    XXZ      -0.0526    XYZ       0.1024
       YYZ       0.1765    XZZ       0.2546    YZZ       0.4092
       ZZZ       0.3854
    Hexadecapole Moments (Debye-Ang^3)
      XXXX     -17.5743   XXXY      -3.1204   XXYY      -5.5850
      XYYY      -3.1826   YYYY     -17.4672   XXXZ       0.6959
      XXYZ      -0.6266   XYYZ       0.2600   YYYZ      -1.8167
      XXZZ      -7.0314   XYZZ      -1.1321   YYZZ      -7.2743
      XZZZ       0.2669   YZZZ      -2.0722   ZZZZ     -24.8698
 -----------------------------------------------------------------
 Calculating analytic gradient of the SCF energy
 Gradient of SCF Energy
            1           2           3           4           5
    1  -0.0059667   0.0046576   0.0003994   0.0013154  -0.0004058
    2  -0.0125975   0.0098104   0.0002898   0.0027861  -0.0002888
    3  -0.0213270   0.0166040  -0.0002810   0.0047078   0.0002962
 Max gradient component =       2.133E-02
 RMS gradient           =       8.466E-03
 Gradient time:  CPU 4.70 s  wall 0.65 s
 Geometry Optimization Parameters
   NAtoms,    NIC,     NZ,  NCons,   NDum,   NFix, NCnnct, MaxDiis
        5      20       0       1       0       0       0       0

 Cartesian Hessian Update
 Hessian Updated using BFGS Update


** CONSTRAINED OPTIMIZATION IN CARTESIAN COORDINATES **
   Searching for a Minimum

   Optimization Cycle:   6

                       Coordinates (Angstroms)
     ATOM                X               Y               Z
      1  H         0.2743652727    0.5784685951    0.9793776459
      2  C         0.0164320851    0.0346160750    0.0586740415
      3  H         0.8093407191    0.5669263713   -0.5932668170
      4  H        -0.2784562240   -0.5869320910   -0.9938816473
      5  H        -0.8217868528   -0.5931809504    0.5488987769
   Point Group: c1    Number of degrees of freedom:     9


   Energy is    -40.272464373

              Constraints and their Current Values
                                        Value     Constraint
   Distance(Angs):        1   2             1.100000     1.100000

   Using Lagrange Multiplier Algorithm


 Translations and Rotations Projected Out of Hessian

 10 Hessian modes will be used to form the next step
  Hessian Eigenvalues:
    -1.252686    0.035851    0.205349    1.000000    1.000000    1.000000
     1.017412    1.019770    1.441823    1.657564

 Minimum Search - Taking P-RFO Step
 Searching for Lamda that Maximizes Along the Constraint modes Only
 Value Taken    Lamda =   0.00000005
 Searching for Lamda that Minimizes Along All other modes
 Value Taken    Lamda =  -0.00010053
 Step Taken.  Stepsize is  0.044167

                             Maximum     Tolerance    Cnvgd?
         Gradient           0.004708      0.000300      NO
         Displacement       0.024524      0.001200      NO
         Energy change     -0.000123      0.000001      NO

 ----------------------------------------------------------------
             Standard Nuclear Orientation (Angstroms)
    I     Atom           X                Y                Z
 ----------------------------------------------------------------
    1      H       0.2765487232     0.5830843797     0.9871297286
    2      C       0.0186011793     0.0392049653     0.0664461013
    3      H       0.8005348566     0.5573157674    -0.5972410379
    4      H      -0.2780485688    -0.5860545117    -0.9924539199
    5      H      -0.8177411903    -0.5936526007     0.5359211279
 ----------------------------------------------------------------
 Nuclear Repulsion Energy =    12.6649700909 hartrees
 There are        6 alpha and        4 beta electrons

                       Distance Matrix (Angstroms)
             H (  1)   C (  2)   H (  3)   H (  4)
   C (  2)  1.100000
   H (  3)  1.668969  1.149060
   H (  4)  2.364998  1.264998  1.620750
   H (  5)  1.669062  1.149080  2.286395  1.620881
 
 Applying Cartesian multipole field
    Component          Value
    ---------          -----
     (2,0,0)        1.00000E-10
     (0,2,0)        2.00000E-10
     (0,0,2)       -3.00000E-10
 Nucleus-field energy     =    -0.0000000013 hartrees
 Requested basis set is 6-31G(d,p)
 There are 16 shells and 35 basis functions
 A cutoff of  1.0D-14 yielded    136 shell pairs
 There are       669 function pairs
 Smallest overlap matrix eigenvalue = 2.78E-02
 Guess from superposition of atomic densities
 Warning:  Energy on first SCF cycle will be non-variational
 SAD guess density has 10.000000 electrons

 -----------------------------------------------------------------------
  General SCF calculation program by
  Eric Jon Sundstrom, Paul Horn, Yuezhi Mao, Dmitri Zuev, Alec White,
  David Stuck, Shaama M.S., Shane Yost, Joonho Lee, David Small,
  Daniel Levine, Susi Lehtola, Hugh Burton, Evgeny Epifanovsky
 -----------------------------------------------------------------------
 Exchange:     0.2000 Hartree-Fock + 0.0800 Slater + 0.7200 B88
 Correlation:  0.1900 VWN1RPA + 0.8100 LYP
 Using SG-1 standard quadrature grid
 using 12 threads for integral computing
 -------------------------------------------------------
 OpenMP Integral computing Module                
 Release: version 1.0, May 2013, Q-Chem Inc. Pittsburgh 
 -------------------------------------------------------
 -------------------------------------------------------
 OpenMP BLAS3 based DFT computing Module                
 Release: version 1.0, May 2013, Q-Chem Inc. Pittsburgh 
 -------------------------------------------------------
 A unrestricted SCF calculation will be
 performed using DIIS
 SCF converges when DIIS error is below 1.0e-06
 Alpha HF Exchange    Energy =  -0.63482735955393
 Beta HF Exchange     Energy =  -0.63482735955393
 DFT Correlation      Energy =  -0.37579121844306
[...]
 One-Electron (beta)  Energy = -33.99511550028242
 Total Coulomb        Energy =  30.24259500254955
    6     -40.3429964295      8.72e-06  
 Alpha HF Exchange    Energy =  -0.72762373398347
 Beta HF Exchange     Energy =  -0.57785649635764
 DFT Correlation      Energy =  -0.35001986130490
 DFT Exchange         Energy =  -5.15685621365099
 One-Electron (alpha) Energy = -40.70269739426708
 One-Electron (beta)  Energy = -33.99408343152786
 Total Coulomb        Energy =  30.24300484362042
    7     -40.3429965661      1.46e-06  
 Alpha HF Exchange    Energy =  -0.72762560458958
 Beta HF Exchange     Energy =  -0.57785479896055
 DFT Correlation      Energy =  -0.35001956453759
 DFT Exchange         Energy =  -5.15685678989200
 One-Electron (alpha) Energy = -40.70278613209882
 One-Electron (beta)  Energy = -33.99399620521815
 Total Coulomb        Energy =  30.24300680557050
    8     -40.3429965684      2.90e-07  Convergence criterion met
 ---------------------------------------
 SCF time:   CPU 13.71s  wall 1.00s 
<S^2> =          2.003754165
 Alpha HF Exchange    Energy =  -0.72762560458958
 Beta HF Exchange     Energy =  -0.57785479896055
 DFT Correlation      Energy =  -0.35001956453759
 DFT Exchange         Energy =  -5.15685678989200
 One-Electron (alpha) Energy = -40.70278613209882
 One-Electron (beta)  Energy = -33.99399620521815
 Total Coulomb        Energy =  30.24300680557050
 Nuclear repulsion Energy =  10.92313572135663
 SCF   energy in the final basis set =      -40.3429965684
 Total energy in the final basis set =      -40.3429965684
 
 --------------------------------------------------------------
 
                    Orbital Energies (a.u.)
 --------------------------------------------------------------
 
 Alpha MOs
 -- Occupied --
-10.194  -0.679  -0.416  -0.412  -0.317  -0.224
 -- Virtual --
  0.114   0.179   0.183   0.530   0.537   0.539   0.674   0.746
  0.881   0.891   0.948   1.436   1.438   1.900   1.916   1.948
  1.949   1.950   1.962   2.006   2.275   2.546   2.562   2.701
  2.707   3.233   3.439   3.450   4.272
 
 Beta MOs
 -- Occupied --
-10.179  -0.638  -0.406  -0.402
 -- Virtual --
 -0.049  -0.038   0.132   0.184   0.187   0.547   0.549   0.614
  0.705   0.885   0.893   0.943   1.005   1.482   1.484   1.908
  1.919   2.001   2.040   2.195   2.197   2.197   2.281   2.575
  2.591   2.702   2.707   3.240   3.447   3.458   4.309
 --------------------------------------------------------------
 
          Ground-State Mulliken Net Atomic Charges

     Atom                 Charge (a.u.)    Spin (a.u.)
  --------------------------------------------------------
      1 H                     0.120471      -0.047792
      2 C                    -0.367626       1.148726
      3 H                     0.123060      -0.049390
      4 H                     0.001053       0.997858
      5 H                     0.123042      -0.049402
  --------------------------------------------------------
  Sum of atomic charges =     0.000000
  Sum of spin   charges =     2.000000

 -----------------------------------------------------------------
                    Cartesian Multipole Moments
 -----------------------------------------------------------------
    Charge (ESU x 10^10)
                 0.0000
    Dipole Moment (Debye)
         X      -0.0045      Y      -0.0107      Z      -0.0172
       Tot       0.0207
    Quadrupole Moments (Debye-Ang)
        XX      -9.0083     XY       0.7618     YY      -9.0902
        XZ      -0.2332     YZ       0.2888     ZZ      -8.3421
    Octopole Moments (Debye-Ang^2)
       XXX      -1.5995    XXY      -0.9946    XYY      -0.2158
       YYY      -3.1285    XXZ      -1.8367    XYZ       0.4159
       YYZ      -1.2947    XZZ      -0.1070    YZZ       0.0545
       ZZZ      -3.7360
    Hexadecapole Moments (Debye-Ang^3)
      XXXX     -18.6821   XXXY      -6.4579   XXYY      -8.7187
      XYYY      -6.3750   YYYY     -35.2111   XXXZ      -8.5268
      XXYZ      -6.3982   XYYZ      -2.4051   YYYZ     -18.4306
      XXZZ     -15.9782   XYZZ      -1.3467   YYZZ     -17.6339
      XZZZ      -7.3295   YZZZ     -16.6033   ZZZZ     -75.1261
 -----------------------------------------------------------------
 Calculating analytic gradient of the SCF energy
 Gradient of SCF Energy
            1           2           3           4           5
    1   0.0028194  -0.0028251   0.0000027  -0.0000027   0.0000057
    2   0.0059167  -0.0059209  -0.0000015   0.0000006   0.0000051
    3   0.0100772  -0.0100882  -0.0000129   0.0000165   0.0000074
 Max gradient component =       1.009E-02
 RMS gradient           =       4.392E-03
 Gradient time:  CPU 4.67 s  wall 0.61 s
 Geometry Optimization Parameters
   NAtoms,    NIC,     NZ,  NCons,   NDum,   NFix, NCnnct, MaxDiis
        5      20       0       1       0       0       0       0

 Cartesian Hessian Update
 Hessian Updated using BFGS Update


** CONSTRAINED OPTIMIZATION IN CARTESIAN COORDINATES **
   Searching for a Minimum

   Optimization Cycle:  24

                       Coordinates (Angstroms)
     ATOM                X               Y               Z
      1  H         0.4257190933    0.8968933625    1.5202445413
      2  C         0.1678818725    0.3542422516    0.5988055897
      3  H         0.7056020892    0.5601713378   -0.3172391527
      4  H        -0.6769801631   -1.4266658832   -2.4132469531
      5  H        -0.6223278919   -0.3847430688    0.6112379748
   Point Group: c1    Number of degrees of freedom:     9


   Energy is    -40.342996568

              Constraints and their Current Values
                                        Value     Constraint
   Distance(Angs):        1   2             1.100000     1.100000

   Using Lagrange Multiplier Algorithm


 Translations and Rotations Projected Out of Hessian

 10 Hessian modes will be used to form the next step
  Hessian Eigenvalues:
    -1.336126    0.000236    0.103929    0.490515    0.988494    0.988975
     0.999721    1.000001    1.000006    1.523750

 Minimum Search - Taking P-RFO Step
 Searching for Lamda that Maximizes Along the Constraint modes Only
 Value Taken    Lamda =   0.00000000
 Searching for Lamda that Minimizes Along All other modes
 Value Taken    Lamda =  -0.00000097
 Step Taken.  Stepsize is  0.063696

                             Maximum     Tolerance    Cnvgd?
         Gradient           0.000025      0.000300     YES
         Displacement       0.047653      0.001200      NO
         Energy change     -0.000004      0.000001      NO

 ----------------------------------------------------------------
             Standard Nuclear Orientation (Angstroms)
    I     Atom           X                Y                Z
 ----------------------------------------------------------------
    1      H       0.4274976938     0.9006227052     1.5265336106
    2      C       0.1696554843     0.3579425389     0.6051131673
    3      H       0.7073823476     0.5639423859    -0.3108976047
    4      H      -0.6840666746    -1.4415923408    -2.4384635813
    5      H      -0.6205738511    -0.3810172891     0.6175164081
 ----------------------------------------------------------------
 Nuclear Repulsion Energy =    10.9094666468 hartrees
 There are        6 alpha and        4 beta electrons

                       Distance Matrix (Angstroms)
             H (  1)   C (  2)   H (  3)   H (  4)
   C (  2)  1.100000
   H (  3)  1.888873  1.081971
   H (  4)  4.737378  3.637379  3.238030
   H (  5)  1.888748  1.081979  1.875732  3.235408
 
 Applying Cartesian multipole field
    Component          Value
    ---------          -----
     (2,0,0)        1.00000E-10
     (0,2,0)        2.00000E-10
     (0,0,2)       -3.00000E-10
 Nucleus-field energy     =    -0.0000000082 hartrees
 Requested basis set is 6-31G(d,p)
 There are 16 shells and 35 basis functions
 A cutoff of  1.0D-14 yielded    132 shell pairs
 There are       651 function pairs
 Smallest overlap matrix eigenvalue = 2.79E-02
 Guess from superposition of atomic densities
 Warning:  Energy on first SCF cycle will be non-variational
 SAD guess density has 10.000000 electrons

 -----------------------------------------------------------------------
  General SCF calculation program by
  Eric Jon Sundstrom, Paul Horn, Yuezhi Mao, Dmitri Zuev, Alec White,
  David Stuck, Shaama M.S., Shane Yost, Joonho Lee, David Small,
  Daniel Levine, Susi Lehtola, Hugh Burton, Evgeny Epifanovsky
 -----------------------------------------------------------------------
 Exchange:     0.2000 Hartree-Fock + 0.0800 Slater + 0.7200 B88
 Correlation:  0.1900 VWN1RPA + 0.8100 LYP
 Using SG-1 standard quadrature grid
 using 12 threads for integral computing
 -------------------------------------------------------
 OpenMP Integral computing Module                
 Release: version 1.0, May 2013, Q-Chem Inc. Pittsburgh 
 -------------------------------------------------------
 -------------------------------------------------------
 OpenMP BLAS3 based DFT computing Module                
 Release: version 1.0, May 2013, Q-Chem Inc. Pittsburgh 
 -------------------------------------------------------
 A unrestricted SCF calculation will be
 performed using DIIS
 SCF converges when DIIS error is below 1.0e-06
 Alpha HF Exchange    Energy =  -0.61548157821555
 Beta HF Exchange     Energy =  -0.61548157821555
 DFT Correlation      Energy =  -0.36494732074174
 DFT Exchange         Energy =  -4.95018847252138
 One-Electron (alpha) Energy = -36.78936217421457
 One-Electron (beta)  Energy = -36.78936217421457
 Total Coulomb        Energy =  29.02814953544803
 ---------------------------------------
  Cycle       Energy         DIIS error
 ---------------------------------------
    1     -40.1872071241      3.79e-02  
 Alpha HF Exchange    Energy =  -0.73498792492411
 Beta HF Exchange     Energy =  -0.58684996807383
 DFT Correlation      Energy =  -0.35568568569004
 DFT Exchange         Energy =  -5.22514566482924
 One-Electron (alpha) Energy = -41.02832485701062
 One-Electron (beta)  Energy = -34.40917440616788
 Total Coulomb        Energy =  31.11613585510266
    2     -40.3145660130      6.24e-03  
 Alpha HF Exchange    Energy =  -0.71580440680767
 Beta HF Exchange     Energy =  -0.57185860438015
 DFT Correlation      Energy =  -0.34598341848389
 DFT Exchange         Energy =  -5.08400996711264
 One-Electron (alpha) Energy = -40.23432825754710
 One-Electron (beta)  Energy = -33.72750691092670
 Total Coulomb        Energy =  29.44670857862650
    3     -40.3233163480      5.41e-03  
 Alpha HF Exchange    Energy =  -0.72720167722936
 Beta HF Exchange     Energy =  -0.57828607611955
 DFT Correlation      Energy =  -0.35024220844669
 DFT Exchange         Energy =  -5.15706856138366
 One-Electron (alpha) Energy = -40.66333218922749
 One-Electron (beta)  Energy = -34.01947466392644
 Total Coulomb        Energy =  30.24320545147341
    4     -40.3429332862      2.12e-04  
 Alpha HF Exchange    Energy =  -0.72746490943344
 Beta HF Exchange     Energy =  -0.57800063415805
 DFT Correlation      Energy =  -0.35004310193662
 DFT Exchange         Energy =  -5.15684431686368
 One-Electron (alpha) Energy = -40.67340317456218
 One-Electron (beta)  Energy = -33.99719099656610
 Total Coulomb        Energy =  30.23048876020075
    5     -40.3429917347      5.23e-05  
 Alpha HF Exchange    Energy =  -0.72758592389870
 Beta HF Exchange     Energy =  -0.57788186964579
 DFT Correlation      Energy =  -0.34999321408987
 DFT Exchange         Energy =  -5.15681701403795
 One-Electron (alpha) Energy = -40.67977415207503
 One-Electron (beta)  Energy = -33.98932187625908
 Total Coulomb        Energy =  30.22891043286198
    6     -40.3429969785      8.68e-06  
 Alpha HF Exchange    Energy =  -0.72761689383975
 Beta HF Exchange     Energy =  -0.57786916770309
 DFT Correlation      Energy =  -0.34998967174515
 DFT Exchange         Energy =  -5.15688668467138
 One-Electron (alpha) Energy = -40.68112783524462
 One-Electron (beta)  Energy = -33.98829189907001
 Total Coulomb        Energy =  30.22931839944617
    7     -40.3429971142      1.44e-06  
 Alpha HF Exchange    Energy =  -0.72761872776766
 Beta HF Exchange     Energy =  -0.57786747536381
 DFT Correlation      Energy =  -0.34998937385835
 DFT Exchange         Energy =  -5.15688713541464
 One-Electron (alpha) Energy = -40.68121512398135
 One-Electron (beta)  Energy = -33.98820543463770
 Total Coulomb        Energy =  30.22931951600287
    8     -40.3429971164      2.89e-07  Convergence criterion met
 ---------------------------------------
 SCF time:   CPU 13.45s  wall 2.00s 
<S^2> =          2.003750621
 Alpha HF Exchange    Energy =  -0.72761872776766
 Beta HF Exchange     Energy =  -0.57786747536381
 DFT Correlation      Energy =  -0.34998937385835
 DFT Exchange         Energy =  -5.15688713541464
 One-Electron (alpha) Energy = -40.68121512398135
 One-Electron (beta)  Energy = -33.98820543463770
 Total Coulomb        Energy =  30.22931951600287
 Nuclear repulsion Energy =  10.90946663861042
 SCF   energy in the final basis set =      -40.3429971164
 Total energy in the final basis set =      -40.3429971164
 
 --------------------------------------------------------------
 
                    Orbital Energies (a.u.)
 --------------------------------------------------------------
 
 Alpha MOs
 -- Occupied --
-10.194  -0.679  -0.416  -0.412  -0.317  -0.224
 -- Virtual --
  0.114   0.179   0.183   0.531   0.537   0.539   0.674   0.743
  0.881   0.891   0.948   1.436   1.438   1.901   1.916   1.948
  1.949   1.950   1.961   2.006   2.275   2.546   2.562   2.701
  2.707   3.233   3.439   3.450   4.272
 
 Beta MOs
 -- Occupied --
-10.179  -0.638  -0.406  -0.402
 -- Virtual --
 -0.049  -0.037   0.132   0.184   0.187   0.547   0.549   0.614
  0.705   0.885   0.893   0.943   1.004   1.482   1.484   1.907
  1.919   2.001   2.040   2.195   2.197   2.197   2.281   2.575
  2.591   2.702   2.707   3.240   3.447   3.458   4.309
 --------------------------------------------------------------
 
          Ground-State Mulliken Net Atomic Charges

     Atom                 Charge (a.u.)    Spin (a.u.)
  --------------------------------------------------------
      1 H                     0.120495      -0.047910
      2 C                    -0.367651       1.148589
      3 H                     0.123086      -0.049349
      4 H                     0.001000       0.998029
      5 H                     0.123070      -0.049360
  --------------------------------------------------------
  Sum of atomic charges =    -0.000000
  Sum of spin   charges =     2.000000

 -----------------------------------------------------------------
                    Cartesian Multipole Moments
 -----------------------------------------------------------------
    Charge (ESU x 10^10)
                -0.0000
    Dipole Moment (Debye)
         X      -0.0044      Y      -0.0104      Z      -0.0168
       Tot       0.0203
    Quadrupole Moments (Debye-Ang)
        XX      -9.0083     XY       0.7617     YY      -9.0905
        XZ      -0.2336     YZ       0.2879     ZZ      -8.3435
    Octopole Moments (Debye-Ang^2)
       XXX      -1.6132    XXY      -1.0013    XYY      -0.2147
       YYY      -3.1573    XXZ      -1.8537    XYZ       0.4208
       YYZ      -1.3085    XZZ      -0.1126    YZZ       0.0526
       ZZZ      -3.7702
    Hexadecapole Moments (Debye-Ang^3)
      XXXX     -18.7860   XXXY      -6.5668   XXYY      -8.8108
      XYYY      -6.4806   YYYY     -35.6692   XXXZ      -8.7122
      XXYZ      -6.5259   XYYZ      -2.4609   YYYZ     -18.8132
      XXZZ     -16.2135   XYZZ      -1.3745   YYZZ     -17.9151
      XZZZ      -7.5042   YZZZ     -16.9651   ZZZZ     -76.3990
 -----------------------------------------------------------------
 Calculating analytic gradient of the SCF energy
 Gradient of SCF Energy
            1           2           3           4           5
    1   0.0028245  -0.0028256   0.0000007  -0.0000059   0.0000062
    2   0.0059222  -0.0059219  -0.0000001  -0.0000044   0.0000042
    3   0.0100769  -0.0100841  -0.0000040   0.0000067   0.0000045
 Max gradient component =       1.008E-02
 RMS gradient           =       4.392E-03
 Gradient time:  CPU 4.66 s  wall 0.62 s
 Geometry Optimization Parameters
   NAtoms,    NIC,     NZ,  NCons,   NDum,   NFix, NCnnct, MaxDiis
        5      20       0       1       0       0       0       0

 Cartesian Hessian Update
 Hessian Updated using BFGS Update


** CONSTRAINED OPTIMIZATION IN CARTESIAN COORDINATES **
   Searching for a Minimum

   Optimization Cycle:  25

                       Coordinates (Angstroms)
     ATOM                X               Y               Z
      1  H         0.4274976938    0.9006227052    1.5265336106
      2  C         0.1696554843    0.3579425389    0.6051131673
      3  H         0.7073823476    0.5639423859   -0.3108976047
      4  H        -0.6840666746   -1.4415923408   -2.4384635813
      5  H        -0.6205738511   -0.3810172891    0.6175164081
   Point Group: c1    Number of degrees of freedom:     9


   Energy is    -40.342997116

              Constraints and their Current Values
                                        Value     Constraint
   Distance(Angs):        1   2             1.100000     1.100000

   Using Lagrange Multiplier Algorithm


 Translations and Rotations Projected Out of Hessian

 10 Hessian modes will be used to form the next step
  Hessian Eigenvalues:
    -1.336225    0.000201    0.103903    0.490522    0.987873    0.988974
     0.999630    0.999998    1.000002    1.523614

 Minimum Search - Taking P-RFO Step
 Searching for Lamda that Maximizes Along the Constraint modes Only
 Value Taken    Lamda =   0.00000000
 Searching for Lamda that Minimizes Along All other modes
 Value Taken    Lamda =  -0.00000003
 Step Taken.  Stepsize is  0.011338

                             Maximum     Tolerance    Cnvgd?
         Gradient           0.000018      0.000300     YES
         Displacement       0.008484      0.001200      NO
         Energy change     -0.000001      0.000001     YES


                       Distance Matrix (Angstroms)
             H (  1)   C (  2)   H (  3)   H (  4)
   C (  2)  1.100000
   H (  3)  1.888873  1.081971
   H (  4)  4.737378  3.637379  3.238030
   H (  5)  1.888748  1.081979  1.875732  3.235408
 
 Final energy is   -40.3429971164102     


 ******************************
 **  OPTIMIZATION CONVERGED  **
 ******************************

                       Coordinates (Angstroms)
     ATOM                X               Y               Z
      1  H         0.4274976938    0.9006227052    1.5265336106
      2  C         0.1696554843    0.3579425389    0.6051131673
      3  H         0.7073823476    0.5639423859   -0.3108976047
      4  H        -0.6840666746   -1.4415923408   -2.4384635813
      5  H        -0.6205738511   -0.3810172891    0.6175164081

Z-matrix Print:
$molecule
0 3
C 
H  1 1.081971
H  1 1.081979 2 120.179863
H  1 1.100000 2 119.916993 3 179.952019 0
H  3 3.235408 1 103.143141 2 0.017457 0
$end

PES scan, value:    1.1000 energy:  -40.3429971164
------- Summary of potential scan: ------ 
    1.1000       -40.3429971164
----------------------------------------- 
Archival summary:
1\1\hpc0243\JobtypUnspecified\ProcedureUnspecified\6-31G**\14(3)\knomura\MonMar1116:34:092019MonMar1116:34:092019\0\\#,JobtypUnspecified,ProcedureUnspecified,6-31G**,\\0,3\C\H,1,1.08197\H,1,1.08198,2,120.18\H,1,1.1,2,119.917,3,179.952,0\H,3,3.23541,1,103.143,2,0.0174568,0\\\@

 Total job time:  56.46s(wall), 572.44s(cpu) 
 Mon Mar 11 16:34:09 2019

        *************************************************************
        *                                                           *
        *  Thank you very much for using Q-Chem.  Have a nice day.  *
        *                                                           *
        *************************************************************


