
Running Job 1 of 1 scan_ch4.xyz.data/inputs/bond_triplet_3.3.in
qchem scan_ch4.xyz.data/inputs/bond_triplet_3.3.in_31781.0 /staging/scratch/2851581/qchem31781/ 1
/usr/usc/qchem/5.1.1/exe/qcprog.exe_s scan_ch4.xyz.data/inputs/bond_triplet_3.3.in_31781.0 /staging/scratch/2851581/qchem31781/
Check license passed

                  Welcome to Q-Chem
     A Quantum Leap Into The Future Of Chemistry


 Q-Chem 5.1, Q-Chem, Inc., Pleasanton, CA (2018)

 Yihan Shao,  Zhengting Gan,  E. Epifanovsky,  A. T. B. Gilbert,  M. Wormit,  
 J. Kussmann,  A. W. Lange,  A. Behn,  Jia Deng,  Xintian Feng,  D. Ghosh,  
 M. Goldey,  P. R. Horn,  L. D. Jacobson,  I. Kaliman,  T. Kus,  A. Landau,  
 Jie Liu,  E. I. Proynov,  R. M. Richard,  R. P. Steele,  E. J. Sundstrom,  
 H. L. Woodcock III,  P. M. Zimmerman,  D. Zuev,  B. Albrecht,  E. Alguire,  
 S. A. Baeppler,  D. Barton,  Z. Benda,  Y. A. Bernard,  E. J. Berquist,  
 K. B. Bravaya,  H. Burton,  D. Casanova,  Chun-Min Chang,  Yunqing Chen,  
 A. Chien,  K. D. Closser,  M. P. Coons,  S. Coriani,  S. Dasgupta,  
 A. L. Dempwolff,  M. Diedenhofen,  Hainam Do,  R. G. Edgar,  Po-Tung Fang,  
 S. Faraji,  S. Fatehi,  Qingguo Feng,  K. D. Fenk,  J. Fosso-Tande,  
 Qinghui Ge,  A. Ghysels,  G. Gidofalvi,  J. Gomes,  J. Gonthier,  A. Gunina,  
 D. Hait,  M. W. D. Hanson-Heine,  P. H. P. Harbach,  A. W. Hauser,  
 J. E. Herr,  E. G. Hohenstein,  Z. C. Holden,  Kerwin Hui,  B. C. Huynh,  
 T.-C. Jagau,  Hyunjun Ji,  B. Kaduk,  K. Khistyaev,  Jaehoon Kim,  
 P. Klunzinger,  K. Koh,  D. Kosenkov,  L. Koulias,  T. Kowalczyk,  
 C. M. Krauter,  A. Kunitsa,  Ka Un Lao,  A. Laurent,  K. V. Lawler,  
 Joonho Lee,  D. Lefrancois,  S. Lehtola,  D. S. Levine,  Yi-Pei Li,  
 You-Sheng Lin,  Fenglai Liu,  E. Livshits,  A. Luenser,  P. Manohar,  
 E. Mansoor,  S. F. Manzer,  Shan-Ping Mao,  Yuezhi Mao,  N. Mardirossian,  
 A. V. Marenich,  T. Markovich,  L. A. Martinez-Martinez,  S. A. Maurer,  
 N. J. Mayhall,  S. C. McKenzie,  J.-M. Mewes,  A. F. Morrison,  
 J. W. Mullinax,  K. Nanda,  T. S. Nguyen-Beck,  R. Olivares-Amaya,  
 J. A. Parkhill,  T. M. Perrine,  F. Plasser,  P. Pokhilko,  S. Prager,  
 A. Prociuk,  E. Ramos,  D. R. Rehn,  F. Rob,  M. Schneider,  N. Sergueev,  
 S. M. Sharada,  S. Sharma,  D. W. Small,  T. Stauch,  T. Stein,  
 Yu-Chuan Su,  A. J. W. Thom,  A. Tkatchenko,  T. Tsuchimochi,  N. M. Tubman,  
 L. Vogt,  M. L. Vidal,  O. Vydrov,  M. A. Watson,  J. Wenzel,  
 M. de Wergifosse,  T. A. Wesolowski,  A. White,  J. Witte,  A. Yamada,  
 Jun Yang,  K. Yao,  S. Yeganeh,  S. R. Yost,  Zhi-Qiang You,  A. Zech,  
 Igor Ying Zhang,  Xing Zhang,  Yan Zhao,  Ying Zhu,  B. R. Brooks,  
 G. K. L. Chan,  C. J. Cramer,  M. S. Gordon,  W. J. Hehre,  A. Klamt,  
 M. W. Schmidt,  C. D. Sherrill,  D. G. Truhlar,  A. Aspuru-Guzik,  R. Baer,  
 A. T. Bell,  N. A. Besley,  Jeng-Da Chai,  A. E. DePrince, III,  
 R. A. DiStasio Jr.,  A. Dreuw,  B. D. Dunietz,  T. R. Furlani,  
 Chao-Ping Hsu,  Yousung Jung,  Jing Kong,  D. S. Lambrecht,  WanZhen Liang,  
 C. Ochsenfeld,  V. A. Rassolov,  L. V. Slipchenko,  J. E. Subotnik,  
 T. Van Voorhis,  J. M. Herbert,  A. I. Krylov,  P. M. W. Gill,  M. Head-Gordon

 Contributors to earlier versions of Q-Chem not listed above: 
 R. D. Adamson,  B. Austin,  J. Baker,  G. J. O. Beran,  K. Brandhorst,  
 S. T. Brown,  E. F. C. Byrd,  A. K. Chakraborty,  C.-L. Cheng,  
 Siu Hung Chien,  D. M. Chipman,  D. L. Crittenden,  H. Dachsel,  
 R. J. Doerksen,  A. D. Dutoi,  L. Fusti-Molnar,  W. A. Goddard III,  
 A. Golubeva-Zadorozhnaya,  S. R. Gwaltney,  G. Hawkins,  A. Heyden,  
 S. Hirata,  G. Kedziora,  F. J. Keil,  C. Kelley,  Jihan Kim,  R. A. King,  
 R. Z. Khaliullin,  P. P. Korambath,  W. Kurlancheek,  A. M. Lee,  M. S. Lee,  
 S. V. Levchenko,  Ching Yeh Lin,  D. Liotard,  R. C. Lochan,  I. Lotan,  
 P. E. Maslen,  N. Nair,  D. P. O'Neill,  D. Neuhauser,  E. Neuscamman,  
 C. M. Oana,  R. Olson,  B. Peters,  R. Peverati,  P. A. Pieniazek,  
 Y. M. Rhee,  J. Ritchie,  M. A. Rohrdanz,  E. Rosta,  N. J. Russ,  
 H. F. Schaefer III,  N. E. Schultz,  N. Shenvi,  A. C. Simmonett,  A. Sodt,  
 D. Stuck,  K. S. Thanthiriwatte,  V. Vanovschi,  Tao Wang,  A. Warshel,  
 C. F. Williams,  Q. Wu,  X. Xu,  W. Zhang

 Please cite Q-Chem as follows:
 Y. Shao et al., Mol. Phys. 113, 184-215 (2015)
 DOI: 10.1080/00268976.2014.952696

 Q-Chem 5.1.1 for Intel X86 EM64T Linux

 Parts of Q-Chem use Armadillo 8.300.2 (Tropical Shenanigans).
 http://arma.sourceforge.net/

 Q-Chem begins on Mon Mar 11 16:25:11 2019  

Host: 
0

     Scratch files written to /staging/scratch/2851581/qchem31781//
 Aug318 |scratch|qcdevops|jenkins|workspace|build_RNUM 6013   
Processing $rem in /usr/usc/qchem/5.1.1/config/preferences.
 MEM_TOTAL  2000 
Input Ideriv = 2
Curr. Ideriv = -1
Max.  Ideriv = 2

Checking the input file for inconsistencies... 	...done.

--------------------------------------------------------------
User input:
--------------------------------------------------------------

$comment
potential surface scanner
$end

$rem
JOBTYPE  PES_SCAN
UNRESTRICTED TRUE
SYM_IGNORE  TRUE
GEOM_OPT_MAX_CYCLES 400
SCF_MAX_CYCLES 400
METHOD   B3LYP
BASIS   6-31G**
PDB_PRINT 2
SCF_CONVERGENCE 6
THRESH 14
SCF_PRINT 1
$end
$molecule
0 3
H 1.318773 0.406225 2.339140
C -0.332186 -0.102444 -0.589272
H 0.075963 0.826080 -0.966119
H 0.205224 -1.029734 -0.737980
H -1.267876 -0.100228 -0.045969
$end
$scan
stre 1 2 3.300000 3.301000 0.100000
$end
--------------------------------------------------------------
 ----------------------------------------------------------------
             Standard Nuclear Orientation (Angstroms)
    I     Atom           X                Y                Z
 ----------------------------------------------------------------
    1      H       1.3187730000     0.4062250000     2.3391400000
    2      C      -0.3321860000    -0.1024440000    -0.5892720000
    3      H       0.0759630000     0.8260800000    -0.9661190000
    4      H       0.2052240000    -1.0297340000    -0.7379800000
    5      H      -1.2678760000    -0.1002280000    -0.0459690000
 ----------------------------------------------------------------
 Nuclear Repulsion Energy =    11.0299313111 hartrees
 There are        6 alpha and        4 beta electrons
 Requested basis set is 6-31G(d,p)
 There are 16 shells and 35 basis functions

 Total QAlloc Memory Limit   2000 MB
 Mega-Array Size       188 MB
 MEM_STATIC part       192 MB
A total of 1 constraints
  
            1
    1   1.0100000
    2   1.0100000
    3   2.0100000
    4   3.3000000
    5   3.3010000
    6   0.1000000
    7   0.0000000
    8   0.0000000
    9   0.0000000
   10   0.0000000

                       Distance Matrix (Angstroms)
             H (  1)   C (  2)   H (  3)   H (  4)
   C (  2)  3.400001
   H (  3)  3.556064  1.082015
   H (  4)  3.573603  1.082031  1.874247
   H (  5)  3.554714  1.081988  1.873666  1.874269
 
 A cutoff of  1.0D-14 yielded    135 shell pairs
 There are       666 function pairs
 
 -------------------------------------------------------
 OpenMP Integral Computing Module                       
 Release: version 1.0, May 2013, Q-Chem Inc. Pittsburgh 
 -------------------------------------------------------
 Integral Job Info:
 Integral job number is                      11
 Integral operator is                         1
 short-range coefficients                     0
 long-range coefficients              100000000
 Omega coefficients                           0
 if combine SR and LR in K                    0
 Integral screening is                        0
 Integral computing path is                   2
 max size of driver memory is            800000
 size of driver memory is                593474
 size of scratch memory is              2361544
 max col of scratch BK array               1296
 max len of scratch array in speh3          155
 max len of scratch index in speh4           18
 max int batch size is                      520
 min int batch size is                       52
 fixed nKL is                                52
 max L of basis functions is                  2
 order of int derivative is                   0
 number of shells is                         16
 number of basis is                          35
 number of cartesian basis is                35
 number of contracted shell pairs           135
 number of primitive shell pairs            457
 maxK2 (contraction) of shell pair           36
 max number of K2 of shell pair               1
 max number of CS2 of shell pair             22
 max number of PS2 of shell pair             48
 mem total for path MDJ                  507868
 -------------------------------------------------------
 Smallest overlap matrix eigenvalue = 2.76E-02

 Scale SEOQF with 1.000000e+00/1.000000e+00/1.000000e-01

 Standard Electronic Orientation quadrupole field applied
 Nucleus-field energy     =     0.0000000019 hartrees
 Guess from superposition of atomic densities
 Warning:  Energy on first SCF cycle will be non-variational
 SAD guess density has 10.000000 electrons

 -----------------------------------------------------------------------
  General SCF calculation program by
  Eric Jon Sundstrom, Paul Horn, Yuezhi Mao, Dmitri Zuev, Alec White,
  David Stuck, Shaama M.S., Shane Yost, Joonho Lee, David Small,
  Daniel Levine, Susi Lehtola, Hugh Burton, Evgeny Epifanovsky
 -----------------------------------------------------------------------
 Exchange:     0.2000 Hartree-Fock + 0.0800 Slater + 0.7200 B88
 Correlation:  0.1900 VWN1RPA + 0.8100 LYP
 Using SG-1 standard quadrature grid
 using 12 threads for integral computing
 -------------------------------------------------------
 OpenMP Integral computing Module                
 Release: version 1.0, May 2013, Q-Chem Inc. Pittsburgh 
 -------------------------------------------------------
 -------------------------------------------------------
 OpenMP BLAS3 based DFT computing Module                
 Release: version 1.0, May 2013, Q-Chem Inc. Pittsburgh 
 -------------------------------------------------------
 A unrestricted SCF calculation will be
 performed using DIIS
 SCF converges when DIIS error is below 1.0e-06
 Alpha HF Exchange    Energy =  -0.61648173820283
 Beta HF Exchange     Energy =  -0.61648173820283
 DFT Correlation      Energy =  -0.36516676431815
 DFT Exchange         Energy =  -4.95245539215564
 One-Electron (alpha) Energy = -36.90059938278950
 One-Electron (beta)  Energy = -36.90059938278950
 Total Coulomb        Energy =  29.12805077123844
 ---------------------------------------
  Cycle       Energy         DIIS error
 ---------------------------------------
    1     -40.1938023142      3.83e-02  
 Alpha HF Exchange    Energy =  -0.73628741228753
 Beta HF Exchange     Energy =  -0.58771903087990
 DFT Correlation      Energy =  -0.35589289687508
 DFT Exchange         Energy =  -5.23285221763655
 One-Electron (alpha) Energy = -41.19749678761253
 One-Electron (beta)  Energy = -34.48848362399812
 Total Coulomb        Energy =  31.25521086534234
    2     -40.3135897910      6.32e-03  
 Alpha HF Exchange    Energy =  -0.71659400130511
 Beta HF Exchange     Energy =  -0.57256673686018
 DFT Correlation      Energy =  -0.34610002822023
 DFT Exchange         Energy =  -5.08926434473064
 One-Electron (alpha) Energy = -40.39333446290061
 One-Electron (beta)  Energy = -33.80082731364386
 Total Coulomb        Energy =  29.56615255975110
    3     -40.3226030149      5.44e-03  
 Alpha HF Exchange    Energy =  -0.72807377263522
 Beta HF Exchange     Energy =  -0.57903138743221
 DFT Correlation      Energy =  -0.35040641396475
 DFT Exchange         Energy =  -5.16277500764895
 One-Electron (alpha) Energy = -40.82560435363608
 One-Electron (beta)  Energy = -34.09448882349113
 Total Coulomb        Energy =  30.36800821201516
    4     -40.3424402338      2.08e-04  
 Alpha HF Exchange    Energy =  -0.72834142566469
 Beta HF Exchange     Energy =  -0.57875169019395
 DFT Correlation      Energy =  -0.35021486255450
 DFT Exchange         Energy =  -5.16260041762199
 One-Electron (alpha) Energy = -40.83583448188675
 One-Electron (beta)  Energy = -34.07264431391512
 Total Coulomb        Energy =  30.35595949719243
    5     -40.3424963817      5.11e-05  
 Alpha HF Exchange    Energy =  -0.72845908267830
 Beta HF Exchange     Energy =  -0.57863543203871
 DFT Correlation      Energy =  -0.35016639864401
 DFT Exchange         Energy =  -5.16257122928707
 One-Electron (alpha) Energy = -40.84204348559185
 One-Electron (beta)  Energy = -34.06496074537324
 Total Coulomb        Energy =  30.35440371604173
    6     -40.3425013446      8.09e-06  
 Alpha HF Exchange    Energy =  -0.72848910222346
 Beta HF Exchange     Energy =  -0.57862329940614
 DFT Correlation      Energy =  -0.35016306198169
 DFT Exchange         Energy =  -5.16263951950465
 One-Electron (alpha) Energy = -40.84334917008296
 One-Electron (beta)  Energy = -34.06397221502768
 Total Coulomb        Energy =  30.35480358956445
    7     -40.3425014657      9.23e-07  Convergence criterion met
 ---------------------------------------
 SCF time:   CPU 11.78s  wall 1.00s 
<S^2> =          2.003644879
 Alpha HF Exchange    Energy =  -0.72848910222346
 Beta HF Exchange     Energy =  -0.57862329940614
 DFT Correlation      Energy =  -0.35016306198169
 DFT Exchange         Energy =  -5.16263951950465
 One-Electron (alpha) Energy = -40.84334917008296
 One-Electron (beta)  Energy = -34.06397221502768
 Total Coulomb        Energy =  30.35480358956445
 Nuclear repulsion Energy =  11.02993131298700
 SCF   energy in the final basis set =      -40.3425014657
 Total energy in the final basis set =      -40.3425014657
 
 --------------------------------------------------------------
 
                    Orbital Energies (a.u.)
 --------------------------------------------------------------
 
 Alpha MOs
 -- Occupied --
-10.191  -0.681  -0.415  -0.415  -0.313  -0.223
 -- Virtual --
  0.115   0.182   0.182   0.527   0.539   0.540   0.658   0.769
  0.890   0.890   0.948   1.436   1.436   1.914   1.915   1.951
  1.953   1.954   1.967   2.007   2.283   2.561   2.561   2.717
  2.717   3.249   3.458   3.458   4.275
 
 Beta MOs
 -- Occupied --
-10.177  -0.640  -0.405  -0.405
 -- Virtual --
 -0.057  -0.010   0.131   0.188   0.188   0.547   0.547   0.613
  0.703   0.893   0.894   0.962   1.022   1.483   1.483   1.918
  1.918   2.002   2.046   2.221   2.221   2.222   2.290   2.590
  2.590   2.717   2.718   3.255   3.465   3.466   4.312
 --------------------------------------------------------------
 
          Ground-State Mulliken Net Atomic Charges

     Atom                 Charge (a.u.)    Spin (a.u.)
  --------------------------------------------------------
      1 H                     0.000328       0.999568
      2 C                    -0.367794       1.145513
      3 H                     0.122482      -0.048358
      4 H                     0.122502      -0.048361
      5 H                     0.122482      -0.048362
  --------------------------------------------------------
  Sum of atomic charges =     0.000000
  Sum of spin   charges =     2.000000

 -----------------------------------------------------------------
                    Cartesian Multipole Moments
 -----------------------------------------------------------------
    Charge (ESU x 10^10)
                 0.0000
    Dipole Moment (Debye)
         X       0.0096      Y       0.0029      Z       0.0170
       Tot       0.0197
    Quadrupole Moments (Debye-Ang)
        XX      -8.6793     XY      -0.1115     YY      -8.3218
        XZ      -0.6780     YZ      -0.1927     ZZ      -9.4762
    Octopole Moments (Debye-Ang^2)
       XXX       1.8033    XXY       0.2166    XYY       1.3566
       YYY       0.6049    XXZ       2.1177    XYZ       0.1378
       YYZ       0.8128    XZZ       1.6449    YZZ       0.6354
       ZZZ       5.5640
    Hexadecapole Moments (Debye-Ang^3)
      XXXX     -32.0817   XXXY      -2.5581   XXYY      -8.7160
      XYYY      -2.8693   YYYY     -17.0485   XXXZ     -15.5186
      XXYZ      -1.5859   XYYZ      -5.3707   YYYZ      -4.6109
      XXZZ     -17.7069   XYZZ      -0.9636   YYZZ     -14.0557
      XZZZ     -15.7503   YZZZ      -5.1241   ZZZZ     -71.1324
 -----------------------------------------------------------------
 Calculating analytic gradient of the SCF energy
 Gradient of SCF Energy
            1           2           3           4           5
    1  -0.0004630   0.0005181  -0.0000339   0.0000104  -0.0000317
    2  -0.0001488   0.0000697   0.0000469  -0.0000200   0.0000522
    3  -0.0008273   0.0008117   0.0000079   0.0000130  -0.0000052
 Max gradient component =       8.273E-04
 RMS gradient           =       3.522E-04
 Gradient time:  CPU 4.67 s  wall 0.60 s
 Geometry Optimization Parameters
   NAtoms,    NIC,     NZ,  NCons,   NDum,   NFix, NCnnct, MaxDiis
        5      50       0       1       0       0       0       0


** CONSTRAINED OPTIMIZATION IN DELOCALIZED INTERNAL COORDINATES **
   Searching for a Minimum

   Optimization Cycle:   1

                       Coordinates (Angstroms)
     ATOM                X               Y               Z
      1  H         1.3187730000    0.4062250000    2.3391400000
      2  C        -0.3321860000   -0.1024440000   -0.5892720000
      3  H         0.0759630000    0.8260800000   -0.9661190000
      4  H         0.2052240000   -1.0297340000   -0.7379800000
      5  H        -1.2678760000   -0.1002280000   -0.0459690000
   Point Group: c1    Number of degrees of freedom:     9


   Energy is    -40.342501466

              Constraints and their Current Values
                                        Value     Constraint
   Distance(Angs):        1   2             3.400001     3.300000

 Attempting to Generate Delocalized Internal Coordinates

   Using Lagrange Multiplier Algorithm


 10 Hessian modes will be used to form the next step
  Hessian Eigenvalues:
    -0.996137    0.050221    0.052635    0.052700    0.078198    0.078201
     0.308663    0.309215    0.324933    1.003878

 Minimum Search - Taking P-RFO Step
 Searching for Lamda that Maximizes Along the Constraint modes Only
 Value Taken    Lamda =   0.01785847
 Searching for Lamda that Minimizes Along All other modes
 Value Taken    Lamda =  -0.01723983
 Step Taken.  Stepsize is  0.185715

                             Maximum     Tolerance    Cnvgd?
         Gradient            0.188974       0.000300      NO
         Displacement        0.185714       0.001200      NO
         Energy change     *********       0.000001      NO


 New Cartesian Coordinates Obtained by Inverse Iteration

 Displacement from previous Coordinates is:  0.142806
 ----------------------------------------------------------------
             Standard Nuclear Orientation (Angstroms)
    I     Atom           X                Y                Z
 ----------------------------------------------------------------
    1      H       1.2894299798     0.3971616167     2.2870817849
    2      C      -0.3139232741    -0.0966189294    -0.5566530496
    3      H       0.0842315043     0.8377176403    -0.9640175683
    4      H       0.2150366121    -1.0392433496    -0.7332249789
    5      H      -1.2748768221    -0.0991179781    -0.0333861881
 ----------------------------------------------------------------
 Nuclear Repulsion Energy =    10.9549702434 hartrees
 There are        6 alpha and        4 beta electrons

                       Distance Matrix (Angstroms)
             H (  1)   C (  2)   H (  3)   H (  4)
   C (  2)  3.301725
   H (  3)  3.495174  1.094284
   H (  4)  3.512810  1.095225  1.895615
   H (  5)  3.493785  1.094187  1.894970  1.895640
 
 Applying Cartesian multipole field
    Component          Value
    ---------          -----
     (2,0,0)        1.00000E-10
     (0,2,0)        2.00000E-10
     (0,0,2)       -3.00000E-11
 Nucleus-field energy     =     0.0000000019 hartrees
 Requested basis set is 6-31G(d,p)
 There are 16 shells and 35 basis functions
 A cutoff of  1.0D-14 yielded    136 shell pairs
 There are       669 function pairs
 Smallest overlap matrix eigenvalue = 2.85E-02
 Guess from superposition of atomic densities
 Warning:  Energy on first SCF cycle will be non-variational
 SAD guess density has 10.000000 electrons

 -----------------------------------------------------------------------
  General SCF calculation program by
  Eric Jon Sundstrom, Paul Horn, Yuezhi Mao, Dmitri Zuev, Alec White,
  David Stuck, Shaama M.S., Shane Yost, Joonho Lee, David Small,
  Daniel Levine, Susi Lehtola, Hugh Burton, Evgeny Epifanovsky
 -----------------------------------------------------------------------
 Exchange:     0.2000 Hartree-Fock + 0.0800 Slater + 0.7200 B88
 Correlation:  0.1900 VWN1RPA + 0.8100 LYP
 Using SG-1 standard quadrature grid
 using 12 threads for integral computing
 -------------------------------------------------------
 OpenMP Integral computing Module                
 Release: version 1.0, May 2013, Q-Chem Inc. Pittsburgh 
 -------------------------------------------------------
 -------------------------------------------------------
 OpenMP BLAS3 based DFT computing Module                
 Release: version 1.0, May 2013, Q-Chem Inc. Pittsburgh 
 -------------------------------------------------------
 A unrestricted SCF calculation will be
 performed using DIIS
 SCF converges when DIIS error is below 1.0e-06
 Alpha HF Exchange    Energy =  -0.61439962817839
 Beta HF Exchange     Energy =  -0.61439962817839
 DFT Correlation      Energy =  -0.36481868813823
 DFT Exchange         Energy =  -4.94768832406230
 One-Electron (alpha) Energy = -36.84525635634295
 One-Electron (beta)  Energy = -36.84525635634295
 Total Coulomb        Energy =  29.09664678604051
 ---------------------------------------
  Cycle       Energy         DIIS error
 ---------------------------------------
    1     -40.1802019499      3.74e-02  
 Alpha HF Exchange    Energy =  -0.73443184300790
 Beta HF Exchange     Energy =  -0.58600507301389
 DFT Correlation      Energy =  -0.35521445261791
 DFT Exchange         Energy =  -5.21988399607700
 One-Electron (alpha) Energy = -41.13600785022555
 One-Electron (beta)  Energy = -34.39953913236825
 Total Coulomb        Energy =  31.16192550471080
    2     -40.3141865973      6.17e-03  
 Alpha HF Exchange    Energy =  -0.71544293296669
 Beta HF Exchange     Energy =  -0.57126340169452
 DFT Correlation      Energy =  -0.34554960907203
 DFT Exchange         Energy =  -5.08056283401766
 One-Electron (alpha) Energy = -40.35020429029272
 One-Electron (beta)  Energy = -33.71963633802612
 Total Coulomb        Energy =  29.50524305963591
    3     -40.3224461012      5.37e-03  
 Alpha HF Exchange    Energy =  -0.72673671363614
 Beta HF Exchange     Energy =  -0.57757738212626
 DFT Correlation      Energy =  -0.34981884605532
 DFT Exchange         Energy =  -5.15280545489015
 One-Electron (alpha) Energy = -40.77830226722923
 One-Electron (beta)  Energy = -34.01049677917024
 Total Coulomb        Energy =  30.29887867646288
    4     -40.3418885214      2.14e-04  
 Alpha HF Exchange    Energy =  -0.72701321154268
 Beta HF Exchange     Energy =  -0.57728090529009
 DFT Correlation      Energy =  -0.34961675093005
 DFT Exchange         Energy =  -5.15259022863176
 One-Electron (alpha) Energy = -40.78888667254550
 One-Electron (beta)  Energy = -33.98747598316693
 Total Coulomb        Energy =  30.28594456306103
    5     -40.3419489438      5.28e-05  
 Alpha HF Exchange    Energy =  -0.72713939820530
 Beta HF Exchange     Energy =  -0.57715900367952
 DFT Correlation      Energy =  -0.34956550104661
 DFT Exchange         Energy =  -5.15256960439835
 One-Electron (alpha) Energy = -40.79551151336179
 One-Electron (beta)  Energy = -33.97935598690290
 Total Coulomb        Energy =  30.28437637342606
    6     -40.3419543889      8.56e-06  
 Alpha HF Exchange    Energy =  -0.72717102176753
 Beta HF Exchange     Energy =  -0.57714614172198
 DFT Correlation      Energy =  -0.34956173925015
 DFT Exchange         Energy =  -5.15264114566753
 One-Electron (alpha) Energy = -40.79689581846864
 One-Electron (beta)  Energy = -33.97829366179386
 Total Coulomb        Energy =  30.28478475719278
    7     -40.3419545262      1.17e-06  
 Alpha HF Exchange    Energy =  -0.72717242898970
 Beta HF Exchange     Energy =  -0.57714440850720
 DFT Correlation      Energy =  -0.34956141660074
 DFT Exchange         Energy =  -5.15263971670103
 One-Electron (alpha) Energy = -40.79697148369853
 One-Electron (beta)  Energy = -33.97821326064276
 Total Coulomb        Energy =  30.28477794209910
    8     -40.3419545278      2.91e-07  Convergence criterion met
 ---------------------------------------
 SCF time:   CPU 13.66s  wall 1.00s 
<S^2> =          2.003789065
 Alpha HF Exchange    Energy =  -0.72717242898970
 Beta HF Exchange     Energy =  -0.57714440850720
 DFT Correlation      Energy =  -0.34956141660074
 DFT Exchange         Energy =  -5.15263971670103
 One-Electron (alpha) Energy = -40.79697148369853
 One-Electron (beta)  Energy = -33.97821326064276
 Total Coulomb        Energy =  30.28477794209910
 Nuclear repulsion Energy =  10.95497024527734
 SCF   energy in the final basis set =      -40.3419545278
 Total energy in the final basis set =      -40.3419545278
 
 --------------------------------------------------------------
 
                    Orbital Energies (a.u.)
 --------------------------------------------------------------
 
 Alpha MOs
 -- Occupied --
-10.195  -0.677  -0.412  -0.412  -0.313  -0.223
 -- Virtual --
  0.111   0.178   0.179   0.526   0.543   0.543   0.655   0.777
  0.882   0.882   0.941   1.437   1.437   1.902   1.903   1.945
  1.955   1.955   1.960   2.005   2.278   2.543   2.543   2.692
  2.693   3.216   3.427   3.428   4.276
 
 Beta MOs
 -- Occupied --
-10.181  -0.636  -0.403  -0.402
 -- Virtual --
 -0.059  -0.008   0.127   0.184   0.184   0.550   0.551   0.613
  0.701   0.885   0.886   0.953   1.026   1.484   1.484   1.906
  1.907   2.000   2.031   2.221   2.222   2.222   2.286   2.571
  2.572   2.693   2.693   3.223   3.435   3.435   4.313
 --------------------------------------------------------------
 
          Ground-State Mulliken Net Atomic Charges

     Atom                 Charge (a.u.)    Spin (a.u.)
  --------------------------------------------------------
      1 H                     0.000354       0.999514
      2 C                    -0.366228       1.147002
      3 H                     0.122002      -0.048824
      4 H                     0.121855      -0.048868
      5 H                     0.122017      -0.048825
  --------------------------------------------------------
  Sum of atomic charges =    -0.000000
  Sum of spin   charges =     2.000000

 -----------------------------------------------------------------
                    Cartesian Multipole Moments
 -----------------------------------------------------------------
    Charge (ESU x 10^10)
                -0.0000
    Dipole Moment (Debye)
         X      -0.0226      Y      -0.0062      Z      -0.0391
       Tot       0.0456
    Quadrupole Moments (Debye-Ang)
        XX      -8.6797     XY      -0.1073     YY      -8.3337
        XZ      -0.6580     YZ      -0.1872     ZZ      -9.4525
    Octopole Moments (Debye-Ang^2)
       XXX       1.5292    XXY       0.1838    XYY       1.3044
       YYY       0.5316    XXZ       1.9669    XYZ       0.1283
       YYZ       0.6535    XZZ       1.5185    YZZ       0.6035
       ZZZ       5.0726
    Hexadecapole Moments (Debye-Ang^3)
      XXXX     -31.2061   XXXY      -2.3810   XXYY      -8.6232
      XYYY      -2.7130   YYYY     -17.1929   XXXZ     -14.5567
      XXYZ      -1.4824   XYYZ      -5.0663   YYYZ      -4.3122
      XXZZ     -17.0414   XYZZ      -0.9002   YYZZ     -13.5327
      XZZZ     -14.7546   YZZZ      -4.8337   ZZZZ     -67.9534
 -----------------------------------------------------------------
 Calculating analytic gradient of the SCF energy
 Gradient of SCF Energy
            1           2           3           4           5
    1  -0.0006163   0.0010662   0.0028665   0.0041543  -0.0074707
    2  -0.0001972   0.0009266   0.0070868  -0.0077514  -0.0000648
    3  -0.0010985   0.0025717  -0.0034152  -0.0017272   0.0036692
 Max gradient component =       7.751E-03
 RMS gradient           =       3.915E-03
 Gradient time:  CPU 4.59 s  wall 0.60 s
 Geometry Optimization Parameters
   NAtoms,    NIC,     NZ,  NCons,   NDum,   NFix, NCnnct, MaxDiis
        5      50       0       1       0       0       0       0

 Cartesian Hessian Update
 Hessian Updated using BFGS Update


** CONSTRAINED OPTIMIZATION IN DELOCALIZED INTERNAL COORDINATES **
   Searching for a Minimum

   Optimization Cycle:   2

                       Coordinates (Angstroms)
     ATOM                X               Y               Z
      1  H         1.2894299798    0.3971616167    2.2870817849
      2  C        -0.3139232741   -0.0966189294   -0.5566530496
      3  H         0.0842315043    0.8377176403   -0.9640175683
      4  H         0.2150366121   -1.0392433496   -0.7332249789
      5  H        -1.2748768221   -0.0991179781   -0.0333861881
   Point Group: c1    Number of degrees of freedom:     9


   Energy is    -40.341954528

              Constraints and their Current Values
                                        Value     Constraint
   Distance(Angs):        1   2             3.301725     3.300000
 Hessian Updated using BFGS Update

   Using Lagrange Multiplier Algorithm


 10 Hessian modes will be used to form the next step
  Hessian Eigenvalues:
    -0.991251    0.050509    0.052635    0.052701    0.078194    0.078201
     0.308726    0.309216    0.576411    1.016866

 Minimum Search - Taking P-RFO Step
 Searching for Lamda that Maximizes Along the Constraint modes Only
 Value Taken    Lamda =   0.00001347
 Searching for Lamda that Minimizes Along All other modes
 Value Taken    Lamda =  -0.00033034
 Step Taken.  Stepsize is  0.024986

                             Maximum     Tolerance    Cnvgd?
         Gradient            0.013602       0.000300      NO
         Displacement        0.023515       0.001200      NO
         Energy change      0.000547       0.000001      NO


 New Cartesian Coordinates Obtained by Inverse Iteration

 Displacement from previous Coordinates is:  0.021572
 ----------------------------------------------------------------
             Standard Nuclear Orientation (Angstroms)
    I     Atom           X                Y                Z
 ----------------------------------------------------------------
    1      H       1.2887511434     0.3969748469     2.2859073562
    2      C      -0.3137010719    -0.0966418354    -0.5563613921
    3      H       0.0821276039     0.8321783053    -0.9614988912
    4      H       0.2118554318    -1.0333954482    -0.7320162153
    5      H      -1.2691351071    -0.0992168686    -0.0362308576
 ----------------------------------------------------------------
 Nuclear Repulsion Energy =    11.0131649470 hartrees
 There are        6 alpha and        4 beta electrons

                       Distance Matrix (Angstroms)
             H (  1)   C (  2)   H (  3)   H (  4)
   C (  2)  3.300000
   H (  3)  3.491560  1.087899
   H (  4)  3.509063  1.088380  1.884106
   H (  5)  3.490174  1.087840  1.884019  1.884181
 
 Applying Cartesian multipole field
    Component          Value
    ---------          -----
     (2,0,0)        1.00000E-10
     (0,2,0)        2.00000E-10
     (0,0,2)       -3.00000E-11
 Nucleus-field energy     =     0.0000000019 hartrees
 Requested basis set is 6-31G(d,p)
 There are 16 shells and 35 basis functions
 A cutoff of  1.0D-14 yielded    136 shell pairs
 There are       669 function pairs
 Smallest overlap matrix eigenvalue = 2.80E-02
 Guess from superposition of atomic densities
 Warning:  Energy on first SCF cycle will be non-variational
 SAD guess density has 10.000000 electrons

 -----------------------------------------------------------------------
  General SCF calculation program by
  Eric Jon Sundstrom, Paul Horn, Yuezhi Mao, Dmitri Zuev, Alec White,
  David Stuck, Shaama M.S., Shane Yost, Joonho Lee, David Small,
  Daniel Levine, Susi Lehtola, Hugh Burton, Evgeny Epifanovsky
 -----------------------------------------------------------------------
 Exchange:     0.2000 Hartree-Fock + 0.0800 Slater + 0.7200 B88
 Correlation:  0.1900 VWN1RPA + 0.8100 LYP
 Using SG-1 standard quadrature grid
 using 12 threads for integral computing
 -------------------------------------------------------
 OpenMP Integral computing Module                
 Release: version 1.0, May 2013, Q-Chem Inc. Pittsburgh 
 -------------------------------------------------------
 -------------------------------------------------------
 OpenMP BLAS3 based DFT computing Module                
 Release: version 1.0, May 2013, Q-Chem Inc. Pittsburgh 
 -------------------------------------------------------
 A unrestricted SCF calculation will be
 performed using DIIS
 SCF converges when DIIS error is below 1.0e-06
 Alpha HF Exchange    Energy =  -0.61548841694744
 Beta HF Exchange     Energy =  -0.61548841694744
 DFT Correlation      Energy =  -0.36505548392755
 DFT Exchange         Energy =  -4.95014247447698
 One-Electron (alpha) Energy = -36.89338672229147
 One-Electron (beta)  Energy = -36.89338672229147
 Total Coulomb        Energy =  29.13241544923712
 ---------------------------------------
  Cycle       Energy         DIIS error
 ---------------------------------------
    1     -40.1873678387      3.79e-02  
 Alpha HF Exchange    Energy =  -0.73543743551643
 Beta HF Exchange     Energy =  -0.58688990147524
 DFT Correlation      Energy =  -0.35559143519938
 DFT Exchange         Energy =  -5.22674706240669
 One-Electron (alpha) Energy = -41.19947265348528
 One-Electron (beta)  Energy = -34.45400495419749
 Total Coulomb        Energy =  31.23117588244400
    2     -40.3138026109      6.25e-03  
 Alpha HF Exchange    Energy =  -0.71608962615226
 Beta HF Exchange     Energy =  -0.57192736146482
 DFT Correlation      Energy =  -0.34585424617507
 DFT Exchange         Energy =  -5.08519609148771
 One-Electron (alpha) Energy = -40.40359191794494
 One-Electron (beta)  Energy = -33.76945529487779
 Total Coulomb        Energy =  29.55649167059319
    3     -40.3224579186      5.41e-03  
 Alpha HF Exchange    Energy =  -0.72747726832263
 Beta HF Exchange     Energy =  -0.57832230464806
 DFT Correlation      Energy =  -0.35014371462580
 DFT Exchange         Energy =  -5.15809875788171
 One-Electron (alpha) Energy = -40.83412610059430
 One-Electron (beta)  Energy = -34.06201605046722
 Total Coulomb        Energy =  30.35489670460976
    4     -40.3421225430      2.11e-04  
 Alpha HF Exchange    Energy =  -0.72774982943946
 Beta HF Exchange     Energy =  -0.57803483237450
 DFT Correlation      Energy =  -0.34994698134688
 DFT Exchange         Energy =  -5.15790813836457
 One-Electron (alpha) Energy = -40.84454774835439
 One-Electron (beta)  Energy = -34.03959214914332
 Total Coulomb        Energy =  30.34243396967485
    5     -40.3421807604      5.20e-05  
 Alpha HF Exchange    Energy =  -0.72787140235147
 Beta HF Exchange     Energy =  -0.57791587899694
 DFT Correlation      Energy =  -0.34989720120135
 DFT Exchange         Energy =  -5.15788247088733
 One-Electron (alpha) Energy = -40.85095201166757
 One-Electron (beta)  Energy = -34.03170291849968
 Total Coulomb        Energy =  30.34087098552706
    6     -40.3421859491      8.41e-06  
 Alpha HF Exchange    Energy =  -0.72790206940698
 Beta HF Exchange     Energy =  -0.57790342970598
 DFT Correlation      Energy =  -0.34989362452935
 DFT Exchange         Energy =  -5.15795195216152
 One-Electron (alpha) Energy = -40.85229057373284
 One-Electron (beta)  Energy = -34.03067735120112
 Total Coulomb        Energy =  30.34126797263669
    7     -40.3421860792      1.23e-06  
 Alpha HF Exchange    Energy =  -0.72790352944907
 Beta HF Exchange     Energy =  -0.57790173484314
 DFT Correlation      Energy =  -0.34989332252016
 DFT Exchange         Energy =  -5.15795089603742
 One-Electron (alpha) Energy = -40.85236689009145
 One-Electron (beta)  Energy = -34.03059845752507
 Total Coulomb        Energy =  30.34126380072276
    8     -40.3421860808      2.97e-07  Convergence criterion met
 ---------------------------------------
 SCF time:   CPU 13.18s  wall 2.00s 
<S^2> =          2.003710810
 Alpha HF Exchange    Energy =  -0.72790352944907
 Beta HF Exchange     Energy =  -0.57790173484314
 DFT Correlation      Energy =  -0.34989332252016
 DFT Exchange         Energy =  -5.15795089603742
 One-Electron (alpha) Energy = -40.85236689009145
 One-Electron (beta)  Energy = -34.03059845752507
 Total Coulomb        Energy =  30.34126380072276
 Nuclear repulsion Energy =  11.01316494893078
 SCF   energy in the final basis set =      -40.3421860808
 Total energy in the final basis set =      -40.3421860808
 
 --------------------------------------------------------------
 
                    Orbital Energies (a.u.)
 --------------------------------------------------------------
 
 Alpha MOs
 -- Occupied --
-10.193  -0.679  -0.414  -0.414  -0.313  -0.223
 -- Virtual --
  0.113   0.180   0.181   0.526   0.541   0.541   0.655   0.778
  0.886   0.886   0.945   1.436   1.437   1.909   1.909   1.950
  1.955   1.955   1.963   2.006   2.282   2.551   2.551   2.706
  2.706   3.233   3.443   3.443   4.276
 
 Beta MOs
 -- Occupied --
-10.179  -0.638  -0.404  -0.404
 -- Virtual --
 -0.059  -0.008   0.129   0.186   0.186   0.549   0.549   0.613
  0.702   0.889   0.890   0.957   1.026   1.483   1.483   1.913
  1.913   2.001   2.038   2.221   2.222   2.222   2.291   2.580
  2.580   2.707   2.707   3.239   3.451   3.451   4.313
 --------------------------------------------------------------
 
          Ground-State Mulliken Net Atomic Charges

     Atom                 Charge (a.u.)    Spin (a.u.)
  --------------------------------------------------------
      1 H                     0.000358       0.999513
      2 C                    -0.366952       1.146010
      3 H                     0.122225      -0.048500
      4 H                     0.122135      -0.048522
      5 H                     0.122235      -0.048502
  --------------------------------------------------------
  Sum of atomic charges =    -0.000000
  Sum of spin   charges =     2.000000

 -----------------------------------------------------------------
                    Cartesian Multipole Moments
 -----------------------------------------------------------------
    Charge (ESU x 10^10)
                -0.0000
    Dipole Moment (Debye)
         X      -0.0225      Y      -0.0063      Z      -0.0393
       Tot       0.0457
    Quadrupole Moments (Debye-Ang)
        XX      -8.6700     XY      -0.1057     YY      -8.3281
        XZ      -0.6512     YZ      -0.1852     ZZ      -9.4345
    Octopole Moments (Debye-Ang^2)
       XXX       1.5304    XXY       0.1840    XYY       1.2861
       YYY       0.5301    XXZ       1.9490    XYZ       0.1272
       YYZ       0.6583    XZZ       1.5077    YZZ       0.5970
       ZZZ       5.0370
    Hexadecapole Moments (Debye-Ang^3)
      XXXX     -31.0864   XXXY      -2.3839   XXYY      -8.5693
      XYYY      -2.7074   YYYY     -17.0653   XXXZ     -14.5469
      XXYZ      -1.4828   XYYZ      -5.0568   YYYZ      -4.3119
      XXZZ     -16.9871   XYZZ      -0.9012   YYZZ     -13.4949
      XZZZ     -14.7516   YZZZ      -4.8261   ZZZZ     -67.7913
 -----------------------------------------------------------------
 Calculating analytic gradient of the SCF energy
 Gradient of SCF Energy
            1           2           3           4           5
    1  -0.0006195   0.0011191   0.0013106   0.0019326  -0.0037429
    2  -0.0001983   0.0006682   0.0034165  -0.0038113  -0.0000750
    3  -0.0011044   0.0023510  -0.0018488  -0.0010114   0.0016136
 Max gradient component =       3.811E-03
 RMS gradient           =       2.026E-03
 Gradient time:  CPU 4.65 s  wall 0.58 s
 Geometry Optimization Parameters
   NAtoms,    NIC,     NZ,  NCons,   NDum,   NFix, NCnnct, MaxDiis
        5      50       0       1       0       0       0       0

 Cartesian Hessian Update
 Hessian Updated using BFGS Update


** CONSTRAINED OPTIMIZATION IN DELOCALIZED INTERNAL COORDINATES **
   Searching for a Minimum

   Optimization Cycle:   3

                       Coordinates (Angstroms)
     ATOM                X               Y               Z
      1  H         1.2887511434    0.3969748469    2.2859073562
      2  C        -0.3137010719   -0.0966418354   -0.5563613921
      3  H         0.0821276039    0.8321783053   -0.9614988912
      4  H         0.2118554318   -1.0333954482   -0.7320162153
      5  H        -1.2691351071   -0.0992168686   -0.0362308576
   Point Group: c1    Number of degrees of freedom:     9


   Energy is    -40.342186081

              Constraints and their Current Values
                                        Value     Constraint
   Distance(Angs):        1   2             3.300000     3.300000
 Hessian Updated using BFGS Update

  8 Hessian modes will be used to form the next step
  Hessian Eigenvalues:
     0.049230    0.052635    0.052701    0.078197    0.078201    0.307675
     0.309212    0.310304

 Minimum Search - Taking Simple RFO Step
 Searching for Lamda that Minimizes Along All modes
 Value Taken    Lamda =  -0.00015247
 Step Taken.  Stepsize is  0.026447

                             Maximum     Tolerance    Cnvgd?
         Gradient           0.006591      0.000300      NO
         Displacement       0.021461      0.001200      NO
         Energy change     -0.000232      0.000001      NO


 New Cartesian Coordinates Obtained by Inverse Iteration

 Displacement from previous Coordinates is:  0.020808
 ----------------------------------------------------------------
             Standard Nuclear Orientation (Angstroms)
    I     Atom           X                Y                Z
 ----------------------------------------------------------------
    1      H       1.2881433850     0.3968353770     2.2848822933
    2      C      -0.3142170321    -0.0969236844    -0.5574134780
    3      H       0.0803229627     0.8269766484    -0.9586380971
    4      H       0.2090427922    -1.0277920215    -0.7305001036
    5      H      -1.2633941078    -0.0991973196    -0.0385306146
 ----------------------------------------------------------------
 Nuclear Repulsion Energy =    11.0692371295 hartrees
 There are        6 alpha and        4 beta electrons

                       Distance Matrix (Angstroms)
             H (  1)   C (  2)   H (  3)   H (  4)
   C (  2)  3.300000
   H (  3)  3.487732  1.081774
   H (  4)  3.505218  1.081793  1.873174
   H (  5)  3.486350  1.081749  1.873492  1.873281
 
 Applying Cartesian multipole field
    Component          Value
    ---------          -----
     (2,0,0)        1.00000E-10
     (0,2,0)        2.00000E-10
     (0,0,2)       -3.00000E-11
 Nucleus-field energy     =     0.0000000019 hartrees
 Requested basis set is 6-31G(d,p)
 There are 16 shells and 35 basis functions
 A cutoff of  1.0D-14 yielded    136 shell pairs
 There are       669 function pairs
 Smallest overlap matrix eigenvalue = 2.75E-02
 Guess from superposition of atomic densities
 Warning:  Energy on first SCF cycle will be non-variational
 SAD guess density has 10.000000 electrons

 -----------------------------------------------------------------------
  General SCF calculation program by
  Eric Jon Sundstrom, Paul Horn, Yuezhi Mao, Dmitri Zuev, Alec White,
  David Stuck, Shaama M.S., Shane Yost, Joonho Lee, David Small,
  Daniel Levine, Susi Lehtola, Hugh Burton, Evgeny Epifanovsky
 -----------------------------------------------------------------------
 Exchange:     0.2000 Hartree-Fock + 0.0800 Slater + 0.7200 B88
 Correlation:  0.1900 VWN1RPA + 0.8100 LYP
 Using SG-1 standard quadrature grid
 using 12 threads for integral computing
 -------------------------------------------------------
 OpenMP Integral computing Module                
 Release: version 1.0, May 2013, Q-Chem Inc. Pittsburgh 
 -------------------------------------------------------
 -------------------------------------------------------
 OpenMP BLAS3 based DFT computing Module                
 Release: version 1.0, May 2013, Q-Chem Inc. Pittsburgh 
 -------------------------------------------------------
 A unrestricted SCF calculation will be
 performed using DIIS
 SCF converges when DIIS error is below 1.0e-06
 Alpha HF Exchange    Energy =  -0.61654321467917
 Beta HF Exchange     Energy =  -0.61654321467917
 DFT Correlation      Energy =  -0.36528177949118
 DFT Exchange         Energy =  -4.95252019396786
 One-Electron (alpha) Energy = -36.93951758182931
 One-Electron (beta)  Energy = -36.93951758182931
 Total Coulomb        Energy =  29.16646333759267
 ---------------------------------------
  Cycle       Energy         DIIS error
 ---------------------------------------
    1     -40.1942230975      3.84e-02  
 Alpha HF Exchange    Energy =  -0.73641134955748
 Beta HF Exchange     Energy =  -0.58774779883805
 DFT Correlation      Energy =  -0.35595597566056
 DFT Exchange         Energy =  -5.23340638139937
 One-Electron (alpha) Energy = -41.26022842992997
 One-Electron (beta)  Energy = -34.50660078642061
 Total Coulomb        Energy =  31.29784450692593
    2     -40.3132690835      6.33e-03  
 Alpha HF Exchange    Energy =  -0.71671219600895
 Beta HF Exchange     Energy =  -0.57256927357890
 DFT Correlation      Energy =  -0.34614865906071
 DFT Exchange         Energy =  -5.08967655287630
 One-Electron (alpha) Energy = -40.45453555149892
 One-Electron (beta)  Energy = -33.81752786852173
 Total Coulomb        Energy =  29.60561521902481
    3     -40.3223177512      5.45e-03  
 Alpha HF Exchange    Energy =  -0.72819237551958
 Beta HF Exchange     Energy =  -0.57904337159757
 DFT Correlation      Energy =  -0.35045785258596
 DFT Exchange         Energy =  -5.16322655453338
 One-Electron (alpha) Energy = -40.88745504751569
 One-Electron (beta)  Energy = -34.11174051183809
 Total Coulomb        Energy =  30.40867828155957
    4     -40.3422003007      2.08e-04  
 Alpha HF Exchange    Energy =  -0.72846124510550
 Beta HF Exchange     Energy =  -0.57876441164644
 DFT Correlation      Energy =  -0.35026624814285
 DFT Exchange         Energy =  -5.16305927539481
 One-Electron (alpha) Energy = -40.89772569520923
 One-Electron (beta)  Energy = -34.08988327171002
 Total Coulomb        Energy =  30.39666656308542
    5     -40.3422564528      5.11e-05  
 Alpha HF Exchange    Energy =  -0.72857855295022
 Beta HF Exchange     Energy =  -0.57864821434498
 DFT Correlation      Energy =  -0.35021782959889
 DFT Exchange         Energy =  -5.16302905744359
 One-Electron (alpha) Energy = -40.90392577665172
 One-Electron (beta)  Energy = -34.08220751070602
 Total Coulomb        Energy =  30.39510840369525
    6     -40.3422614066      8.24e-06  
 Alpha HF Exchange    Energy =  -0.72860837786810
 Beta HF Exchange     Energy =  -0.57863613859211
 DFT Correlation      Energy =  -0.35021443465112
 DFT Exchange         Energy =  -5.16309677177652
 One-Electron (alpha) Energy = -40.90522358131474
 One-Electron (beta)  Energy = -34.08121609963862
 Total Coulomb        Energy =  30.39549674293499
    7     -40.3422615295      1.22e-06  
 Alpha HF Exchange    Energy =  -0.72860981310437
 Beta HF Exchange     Energy =  -0.57863448187492
 DFT Correlation      Energy =  -0.35021414900697
 DFT Exchange         Energy =  -5.16309578042537
 One-Electron (alpha) Energy = -40.90529764406406
 One-Electron (beta)  Energy = -34.08113968043596
 Total Coulomb        Energy =  30.39549288643252
    8     -40.3422615311      2.92e-07  Convergence criterion met
 ---------------------------------------
 SCF time:   CPU 16.58s  wall 1.00s 
<S^2> =          2.003639090
 Alpha HF Exchange    Energy =  -0.72860981310437
 Beta HF Exchange     Energy =  -0.57863448187492
 DFT Correlation      Energy =  -0.35021414900697
 DFT Exchange         Energy =  -5.16309578042537
 One-Electron (alpha) Energy = -40.90529764406406
 One-Electron (beta)  Energy = -34.08113968043596
 Total Coulomb        Energy =  30.39549288643252
 Nuclear repulsion Energy =  11.06923713136180
 SCF   energy in the final basis set =      -40.3422615311
 Total energy in the final basis set =      -40.3422615311
 
 --------------------------------------------------------------
 
                    Orbital Energies (a.u.)
 --------------------------------------------------------------
 
 Alpha MOs
 -- Occupied --
-10.191  -0.681  -0.415  -0.415  -0.313  -0.223
 -- Virtual --
  0.115   0.182   0.182   0.526   0.539   0.540   0.655   0.778
  0.890   0.890   0.949   1.436   1.436   1.915   1.915   1.952
  1.955   1.955   1.967   2.007   2.286   2.559   2.559   2.719
  2.719   3.250   3.458   3.458   4.276
 
 Beta MOs
 -- Occupied --
-10.177  -0.640  -0.405  -0.405
 -- Virtual --
 -0.059  -0.008   0.132   0.188   0.188   0.547   0.547   0.614
  0.703   0.894   0.894   0.961   1.027   1.483   1.483   1.919
  1.919   2.002   2.044   2.221   2.222   2.222   2.295   2.588
  2.589   2.720   2.720   3.256   3.466   3.466   4.313
 --------------------------------------------------------------
 
          Ground-State Mulliken Net Atomic Charges

     Atom                 Charge (a.u.)    Spin (a.u.)
  --------------------------------------------------------
      1 H                     0.000362       0.999511
      2 C                    -0.367596       1.145131
      3 H                     0.122419      -0.048212
      4 H                     0.122391      -0.048213
      5 H                     0.122424      -0.048216
  --------------------------------------------------------
  Sum of atomic charges =     0.000000
  Sum of spin   charges =     2.000000

 -----------------------------------------------------------------
                    Cartesian Multipole Moments
 -----------------------------------------------------------------
    Charge (ESU x 10^10)
                 0.0000
    Dipole Moment (Debye)
         X      -0.0203      Y      -0.0059      Z      -0.0356
       Tot       0.0414
    Quadrupole Moments (Debye-Ang)
        XX      -8.6619     XY      -0.1048     YY      -8.3222
        XZ      -0.6471     YZ      -0.1839     ZZ      -9.4212
    Octopole Moments (Debye-Ang^2)
       XXX       1.5457    XXY       0.1860    XYY       1.2735
       YYY       0.5330    XXZ       1.9413    XYZ       0.1267
       YYZ       0.6708    XZZ       1.5039    YZZ       0.5927
       ZZZ       5.0311
    Hexadecapole Moments (Debye-Ang^3)
      XXXX     -30.9913   XXXY      -2.3902   XXYY      -8.5204
      XYYY      -2.7050   YYYY     -16.9449   XXXZ     -14.5539
      XXYZ      -1.4851   XYYZ      -5.0528   YYYZ      -4.3174
      XXZZ     -16.9472   XYZZ      -0.9032   YYZZ     -13.4699
      XZZZ     -14.7648   YZZZ      -4.8238   ZZZZ     -67.6946
 -----------------------------------------------------------------
 Calculating analytic gradient of the SCF energy
 Gradient of SCF Energy
            1           2           3           4           5
    1  -0.0006192   0.0011507  -0.0002309  -0.0002711  -0.0000294
    2  -0.0001982   0.0003606  -0.0002163   0.0001235  -0.0000696
    3  -0.0011039   0.0020485  -0.0002659  -0.0002725  -0.0004063
 Max gradient component =       2.049E-03
 RMS gradient           =       7.209E-04
 Gradient time:  CPU 4.66 s  wall 0.60 s
 Geometry Optimization Parameters
   NAtoms,    NIC,     NZ,  NCons,   NDum,   NFix, NCnnct, MaxDiis
        5      50       0       1       0       0       0       0

 Cartesian Hessian Update
 Hessian Updated using BFGS Update


** CONSTRAINED OPTIMIZATION IN DELOCALIZED INTERNAL COORDINATES **
   Searching for a Minimum

   Optimization Cycle:   4

                       Coordinates (Angstroms)
     ATOM                X               Y               Z
      1  H         1.2881433850    0.3968353770    2.2848822933
      2  C        -0.3142170321   -0.0969236844   -0.5574134780
      3  H         0.0803229627    0.8269766484   -0.9586380971
      4  H         0.2090427922   -1.0277920215   -0.7305001036
      5  H        -1.2633941078   -0.0991973196   -0.0385306146
   Point Group: c1    Number of degrees of freedom:     9


   Energy is    -40.342261531

              Constraints and their Current Values
                                        Value     Constraint
   Distance(Angs):        1   2             3.300000     3.300000
 Hessian Updated using BFGS Update

  8 Hessian modes will be used to form the next step
  Hessian Eigenvalues:
     0.045655    0.052635    0.052701    0.078194    0.078201    0.308691
     0.309216    0.339040

 Minimum Search - Taking Simple RFO Step
 Searching for Lamda that Minimizes Along All modes
 Value Taken    Lamda =  -0.00000305
 Step Taken.  Stepsize is  0.007606

                             Maximum     Tolerance    Cnvgd?
         Gradient           0.000376      0.000300      NO
         Displacement       0.007567      0.001200      NO
         Energy change     -0.000075      0.000001      NO


 New Cartesian Coordinates Obtained by Inverse Iteration

 Displacement from previous Coordinates is:  0.002944
 ----------------------------------------------------------------
             Standard Nuclear Orientation (Angstroms)
    I     Atom           X                Y                Z
 ----------------------------------------------------------------
    1      H       1.2877191906     0.3967351320     2.2841602970
    2      C      -0.3146182197    -0.0970619323    -0.5581418423
    3      H       0.0806278568     0.8271714823    -0.9581544987
    4      H       0.2093656770    -1.0278623617    -0.7300910152
    5      H      -1.2631965047    -0.0990833203    -0.0379729407
 ----------------------------------------------------------------
 Nuclear Repulsion Energy =    11.0685045896 hartrees
 There are        6 alpha and        4 beta electrons

                       Distance Matrix (Angstroms)
             H (  1)   C (  2)   H (  3)   H (  4)
   C (  2)  3.300000
   H (  3)  3.486395  1.081867
   H (  4)  3.504003  1.081903  1.873429
   H (  5)  3.485012  1.081841  1.873645  1.873525
 
 Applying Cartesian multipole field
    Component          Value
    ---------          -----
     (2,0,0)        1.00000E-10
     (0,2,0)        2.00000E-10
     (0,0,2)       -3.00000E-11
 Nucleus-field energy     =     0.0000000019 hartrees
 Requested basis set is 6-31G(d,p)
 There are 16 shells and 35 basis functions
 A cutoff of  1.0D-14 yielded    136 shell pairs
 There are       669 function pairs
 Smallest overlap matrix eigenvalue = 2.75E-02
 Guess from superposition of atomic densities
 Warning:  Energy on first SCF cycle will be non-variational
 SAD guess density has 10.000000 electrons

 -----------------------------------------------------------------------
  General SCF calculation program by
  Eric Jon Sundstrom, Paul Horn, Yuezhi Mao, Dmitri Zuev, Alec White,
  David Stuck, Shaama M.S., Shane Yost, Joonho Lee, David Small,
  Daniel Levine, Susi Lehtola, Hugh Burton, Evgeny Epifanovsky
 -----------------------------------------------------------------------
 Exchange:     0.2000 Hartree-Fock + 0.0800 Slater + 0.7200 B88
 Correlation:  0.1900 VWN1RPA + 0.8100 LYP
 Using SG-1 standard quadrature grid
 using 12 threads for integral computing
 -------------------------------------------------------
 OpenMP Integral computing Module                
 Release: version 1.0, May 2013, Q-Chem Inc. Pittsburgh 
 -------------------------------------------------------
 -------------------------------------------------------
 OpenMP BLAS3 based DFT computing Module                
 Release: version 1.0, May 2013, Q-Chem Inc. Pittsburgh 
 -------------------------------------------------------
 A unrestricted SCF calculation will be
 performed using DIIS
 SCF converges when DIIS error is below 1.0e-06
 Alpha HF Exchange    Energy =  -0.61652608362102
 Beta HF Exchange     Energy =  -0.61652608362102
 DFT Correlation      Energy =  -0.36527865704180
 DFT Exchange         Energy =  -4.95248163095993
 One-Electron (alpha) Energy = -36.93894407842699
 One-Electron (beta)  Energy = -36.93894407842699
 Total Coulomb        Energy =  29.16608338956244
 ---------------------------------------
  Cycle       Energy         DIIS error
 ---------------------------------------
    1     -40.1941126310      3.84e-02  
 Alpha HF Exchange    Energy =  -0.73639514217812
 Beta HF Exchange     Energy =  -0.58773433943805
 DFT Correlation      Energy =  -0.35595111022285
 DFT Exchange         Energy =  -5.23329876710089
 One-Electron (alpha) Energy = -41.25949739735609
 One-Electron (beta)  Energy = -34.50584979329156
 Total Coulomb        Energy =  31.29694085854176
    2     -40.3132810995      6.32e-03  
 Alpha HF Exchange    Energy =  -0.71670089877034
 Beta HF Exchange     Energy =  -0.57255898067286
 DFT Correlation      Energy =  -0.34614498672698
 DFT Exchange         Energy =  -5.08960011960413
 One-Electron (alpha) Energy = -40.45395149469984
 One-Electron (beta)  Energy = -33.81685345485052
 Total Coulomb        Energy =  29.60498157681561
    3     -40.3223237670      5.45e-03  
 Alpha HF Exchange    Energy =  -0.72817996612437
 Beta HF Exchange     Energy =  -0.57903185159212
 DFT Correlation      Energy =  -0.35045385948192
 DFT Exchange         Energy =  -5.16314118045139
 One-Electron (alpha) Energy = -40.88683680799947
 One-Electron (beta)  Energy = -34.11103463451582
 Total Coulomb        Energy =  30.40797048497777
    4     -40.3422032237      2.08e-04  
 Alpha HF Exchange    Energy =  -0.72844894234046
 Beta HF Exchange     Energy =  -0.57875271761601
 DFT Correlation      Energy =  -0.35026221064295
 DFT Exchange         Energy =  -5.16297357902040
 One-Electron (alpha) Energy = -40.89711258136500
 One-Electron (beta)  Energy = -34.08916839571118
 Total Coulomb        Energy =  30.39595443014955
    5     -40.3422594050      5.11e-05  
 Alpha HF Exchange    Energy =  -0.72856635212864
 Beta HF Exchange     Energy =  -0.57863644479109
 DFT Correlation      Energy =  -0.35021376003454
 DFT Exchange         Energy =  -5.16294343075153
 One-Electron (alpha) Energy = -40.90331736849071
 One-Electron (beta)  Energy = -34.08148688592124
 Total Coulomb        Energy =  30.39439528713512
    6     -40.3422643635      8.21e-06  
 Alpha HF Exchange    Energy =  -0.72859623389116
 Beta HF Exchange     Energy =  -0.57862435774745
 DFT Correlation      Energy =  -0.35021037079132
 DFT Exchange         Energy =  -5.16301132612402
 One-Electron (alpha) Energy = -40.90461738705677
 One-Electron (beta)  Energy = -34.08049487771327
 Total Coulomb        Energy =  30.39478547565158
    7     -40.3422644861      1.16e-06  
 Alpha HF Exchange    Energy =  -0.72859761644337
 Beta HF Exchange     Energy =  -0.57862270147085
 DFT Correlation      Energy =  -0.35021008301432
 DFT Exchange         Energy =  -5.16301012886850
 One-Electron (alpha) Energy = -40.90468942442369
 One-Electron (beta)  Energy = -34.08041919149076
 Total Coulomb        Energy =  30.39478006656595
    8     -40.3422644876      2.86e-07  Convergence criterion met
 ---------------------------------------
 SCF time:   CPU 13.46s  wall 1.00s 
<S^2> =          2.003641389
 Alpha HF Exchange    Energy =  -0.72859761644337
 Beta HF Exchange     Energy =  -0.57862270147085
 DFT Correlation      Energy =  -0.35021008301432
 DFT Exchange         Energy =  -5.16301012886850
 One-Electron (alpha) Energy = -40.90468942442369
 One-Electron (beta)  Energy = -34.08041919149076
 Total Coulomb        Energy =  30.39478006656595
 Nuclear repulsion Energy =  11.06850459152780
 SCF   energy in the final basis set =      -40.3422644876
 Total energy in the final basis set =      -40.3422644876
 
 --------------------------------------------------------------
 
                    Orbital Energies (a.u.)
 --------------------------------------------------------------
 
 Alpha MOs
 -- Occupied --
-10.191  -0.681  -0.415  -0.415  -0.313  -0.223
 -- Virtual --
  0.115   0.182   0.182   0.526   0.539   0.540   0.655   0.778
  0.890   0.890   0.949   1.436   1.436   1.915   1.915   1.952
  1.954   1.955   1.968   2.007   2.285   2.559   2.559   2.719
  2.719   3.249   3.458   3.458   4.276
 
 Beta MOs
 -- Occupied --
-10.177  -0.640  -0.405  -0.405
 -- Virtual --
 -0.059  -0.008   0.132   0.188   0.188   0.547   0.547   0.614
  0.703   0.894   0.894   0.961   1.027   1.483   1.483   1.919
  1.919   2.002   2.044   2.221   2.222   2.222   2.294   2.589
  2.589   2.719   2.720   3.256   3.466   3.466   4.313
 --------------------------------------------------------------
 
          Ground-State Mulliken Net Atomic Charges

     Atom                 Charge (a.u.)    Spin (a.u.)
  --------------------------------------------------------
      1 H                     0.000363       0.999509
      2 C                    -0.367603       1.145187
      3 H                     0.122420      -0.048230
      4 H                     0.122395      -0.048232
      5 H                     0.122425      -0.048234
  --------------------------------------------------------
  Sum of atomic charges =    -0.000000
  Sum of spin   charges =     2.000000

 -----------------------------------------------------------------
                    Cartesian Multipole Moments
 -----------------------------------------------------------------
    Charge (ESU x 10^10)
                -0.0000
    Dipole Moment (Debye)
         X      -0.0188      Y      -0.0054      Z      -0.0330
       Tot       0.0384
    Quadrupole Moments (Debye-Ang)
        XX      -8.6629     XY      -0.1052     YY      -8.3220
        XZ      -0.6490     YZ      -0.1844     ZZ      -9.4245
    Octopole Moments (Debye-Ang^2)
       XXX       1.5550    XXY       0.1871    XYY       1.2769
       YYY       0.5358    XXZ       1.9475    XYZ       0.1269
       YYZ       0.6759    XZZ       1.5078    YZZ       0.5939
       ZZZ       5.0494
    Hexadecapole Moments (Debye-Ang^3)
      XXXX     -30.9948   XXXY      -2.3908   XXYY      -8.5206
      XYYY      -2.7051   YYYY     -16.9471   XXXZ     -14.5547
      XXYZ      -1.4854   XYYZ      -5.0528   YYYZ      -4.3184
      XXZZ     -16.9478   XYZZ      -0.9032   YYZZ     -13.4719
      XZZZ     -14.7651   YZZZ      -4.8241   ZZZZ     -67.6993
 -----------------------------------------------------------------
 Calculating analytic gradient of the SCF energy
 Gradient of SCF Energy
            1           2           3           4           5
    1  -0.0006187   0.0011253  -0.0002027  -0.0002221  -0.0000817
    2  -0.0001981   0.0003556  -0.0001501   0.0000530  -0.0000604
    3  -0.0011031   0.0020059  -0.0002737  -0.0002701  -0.0003590
 Max gradient component =       2.006E-03
 RMS gradient           =       7.051E-04
 Gradient time:  CPU 4.66 s  wall 0.60 s
 Geometry Optimization Parameters
   NAtoms,    NIC,     NZ,  NCons,   NDum,   NFix, NCnnct, MaxDiis
        5      50       0       1       0       0       0       0

 Cartesian Hessian Update
 Hessian Updated using BFGS Update


** CONSTRAINED OPTIMIZATION IN DELOCALIZED INTERNAL COORDINATES **
   Searching for a Minimum

   Optimization Cycle:   5

                       Coordinates (Angstroms)
     ATOM                X               Y               Z
      1  H         1.2877191906    0.3967351320    2.2841602970
      2  C        -0.3146182197   -0.0970619323   -0.5581418423
      3  H         0.0806278568    0.8271714823   -0.9581544987
      4  H         0.2093656770   -1.0278623617   -0.7300910152
      5  H        -1.2631965047   -0.0990833203   -0.0379729407
   Point Group: c1    Number of degrees of freedom:     9


   Energy is    -40.342264488

              Constraints and their Current Values
                                        Value     Constraint
   Distance(Angs):        1   2             3.300000     3.300000
 Hessian Updated using BFGS Update

  8 Hessian modes will be used to form the next step
  Hessian Eigenvalues:
     0.002525    0.052635    0.052700    0.078201    0.078321    0.308844
     0.309218    0.373502

 Minimum Search - Taking Simple RFO Step
 Searching for Lamda that Minimizes Along All modes
 Value Taken    Lamda =  -0.00005228
 Step Taken.  Stepsize is  0.142240

                             Maximum     Tolerance    Cnvgd?
         Gradient           0.000354      0.000300      NO
         Displacement       0.141938      0.001200      NO
         Energy change     -0.000003      0.000001      NO


 New Cartesian Coordinates Obtained by Inverse Iteration

 Displacement from previous Coordinates is:  0.054168
 ----------------------------------------------------------------
             Standard Nuclear Orientation (Angstroms)
    I     Atom           X                Y                Z
 ----------------------------------------------------------------
    1      H       1.2798048459     0.3949137047     2.2707558799
    2      C      -0.3220940314    -0.0996017955    -0.5716685387
    3      H       0.0858723891     0.8291818500    -0.9486196180
    4      H       0.2143154525    -1.0274034582    -0.7223013980
    5      H      -1.2580006560    -0.0971913011    -0.0283663252
 ----------------------------------------------------------------
 Nuclear Repulsion Energy =    11.0686102137 hartrees
 There are        6 alpha and        4 beta electrons

                       Distance Matrix (Angstroms)
             H (  1)   C (  2)   H (  3)   H (  4)
   C (  2)  3.300000
   H (  3)  3.460989  1.082205
   H (  4)  3.480897  1.082239  1.874734
   H (  5)  3.459565  1.082176  1.873774  1.874715
 
 Applying Cartesian multipole field
    Component          Value
    ---------          -----
     (2,0,0)        1.00000E-10
     (0,2,0)        2.00000E-10
     (0,0,2)       -3.00000E-11
 Nucleus-field energy     =     0.0000000019 hartrees
 Requested basis set is 6-31G(d,p)
 There are 16 shells and 35 basis functions
 A cutoff of  1.0D-14 yielded    136 shell pairs
 There are       669 function pairs
 Smallest overlap matrix eigenvalue = 2.76E-02
 Guess from superposition of atomic densities
 Warning:  Energy on first SCF cycle will be non-variational
 SAD guess density has 10.000000 electrons

 -----------------------------------------------------------------------
  General SCF calculation program by
  Eric Jon Sundstrom, Paul Horn, Yuezhi Mao, Dmitri Zuev, Alec White,
  David Stuck, Shaama M.S., Shane Yost, Joonho Lee, David Small,
  Daniel Levine, Susi Lehtola, Hugh Burton, Evgeny Epifanovsky
 -----------------------------------------------------------------------
 Exchange:     0.2000 Hartree-Fock + 0.0800 Slater + 0.7200 B88
 Correlation:  0.1900 VWN1RPA + 0.8100 LYP
 Using SG-1 standard quadrature grid
 using 12 threads for integral computing
 -------------------------------------------------------
 OpenMP Integral computing Module                
 Release: version 1.0, May 2013, Q-Chem Inc. Pittsburgh 
 -------------------------------------------------------
 -------------------------------------------------------
 OpenMP BLAS3 based DFT computing Module                
 Release: version 1.0, May 2013, Q-Chem Inc. Pittsburgh 
 -------------------------------------------------------
 A unrestricted SCF calculation will be
 performed using DIIS
 SCF converges when DIIS error is below 1.0e-06
 Alpha HF Exchange    Energy =  -0.61646758729293
 Beta HF Exchange     Energy =  -0.61646758729293
 DFT Correlation      Energy =  -0.36527656178730
 DFT Exchange         Energy =  -4.95234321632447
 One-Electron (alpha) Energy = -36.93959184499770
 One-Electron (beta)  Energy = -36.93959184499770
 Total Coulomb        Energy =  29.16739313450665
 ---------------------------------------
  Cycle       Energy         DIIS error
 ---------------------------------------
    1     -40.1937352926      3.83e-02  
 Alpha HF Exchange    Energy =  -0.73633269488147
 Beta HF Exchange     Energy =  -0.58768832573956
 DFT Correlation      Energy =  -0.35594229937348
 DFT Exchange         Energy =  -5.23290673804464
 One-Electron (alpha) Energy = -41.26040905090752
 One-Electron (beta)  Energy = -34.50463665576685
 Total Coulomb        Energy =  31.29597036212641
    2     -40.3133351870      6.32e-03  
 Alpha HF Exchange    Energy =  -0.71665678460984
 Beta HF Exchange     Energy =  -0.57252153745756
 DFT Correlation      Energy =  -0.34614140048505
 DFT Exchange         Energy =  -5.08931071982188
 One-Electron (alpha) Energy = -40.45538673856569
 One-Electron (beta)  Energy = -33.81608517324575
 Total Coulomb        Energy =  29.60513133313304
    3     -40.3223608055      5.45e-03  
 Alpha HF Exchange    Energy =  -0.72813308201506
 Beta HF Exchange     Energy =  -0.57899075667063
 DFT Correlation      Energy =  -0.35044857880214
 DFT Exchange         Energy =  -5.16282684482381
 One-Electron (alpha) Energy = -40.88811683058886
 One-Electron (beta)  Energy = -34.11009039415707
 Total Coulomb        Energy =  30.40776513589160
    4     -40.3422311356      2.08e-04  
 Alpha HF Exchange    Energy =  -0.72840256297531
 Beta HF Exchange     Energy =  -0.57871089563005
 DFT Correlation      Energy =  -0.35025695752374
 DFT Exchange         Energy =  -5.16265816167136
 One-Electron (alpha) Energy = -40.89841459938458
 One-Electron (beta)  Energy = -34.08821110027277
 Total Coulomb        Energy =  30.39575663712764
    5     -40.3422874247      5.12e-05  
 Alpha HF Exchange    Energy =  -0.72852044515828
 Beta HF Exchange     Energy =  -0.57859429964439
 DFT Correlation      Energy =  -0.35020839709008
 DFT Exchange         Energy =  -5.16262841317444
 One-Electron (alpha) Energy = -40.90463347958243
 One-Electron (beta)  Energy = -34.08050788154672
 Total Coulomb        Energy =  30.39419029668058
    6     -40.3422924039      8.11e-06  
 Alpha HF Exchange    Energy =  -0.72855057402406
 Beta HF Exchange     Energy =  -0.57858213154124
 DFT Correlation      Energy =  -0.35020504359703
 DFT Exchange         Energy =  -5.16269698338670
 One-Electron (alpha) Energy = -40.90594533955527
 One-Electron (beta)  Energy = -34.07951499419855
 Total Coulomb        Energy =  30.39459232488247
    7     -40.3422925258      8.91e-07  Convergence criterion met
 ---------------------------------------
 SCF time:   CPU 11.90s  wall 1.00s 
<S^2> =          2.003652937
 Alpha HF Exchange    Energy =  -0.72855057402406
 Beta HF Exchange     Energy =  -0.57858213154124
 DFT Correlation      Energy =  -0.35020504359703
 DFT Exchange         Energy =  -5.16269698338670
 One-Electron (alpha) Energy = -40.90594533955527
 One-Electron (beta)  Energy = -34.07951499419855
 Total Coulomb        Energy =  30.39459232488247
 Nuclear repulsion Energy =  11.06861021558848
 SCF   energy in the final basis set =      -40.3422925258
 Total energy in the final basis set =      -40.3422925258
 
 --------------------------------------------------------------
 
                    Orbital Energies (a.u.)
 --------------------------------------------------------------
 
 Alpha MOs
 -- Occupied --
-10.191  -0.681  -0.415  -0.415  -0.313  -0.223
 -- Virtual --
  0.115   0.182   0.182   0.526   0.540   0.540   0.654   0.779
  0.890   0.890   0.949   1.436   1.436   1.914   1.914   1.951
  1.954   1.954   1.970   2.007   2.284   2.560   2.561   2.716
  2.717   3.249   3.457   3.458   4.276
 
 Beta MOs
 -- Occupied --
-10.177  -0.640  -0.405  -0.405
 -- Virtual --
 -0.059  -0.009   0.131   0.187   0.188   0.547   0.547   0.613
  0.702   0.893   0.894   0.961   1.025   1.483   1.483   1.917
  1.918   2.002   2.046   2.221   2.221   2.221   2.292   2.590
  2.590   2.717   2.718   3.255   3.465   3.466   4.313
 --------------------------------------------------------------
 
          Ground-State Mulliken Net Atomic Charges

     Atom                 Charge (a.u.)    Spin (a.u.)
  --------------------------------------------------------
      1 H                     0.000384       0.999482
      2 C                    -0.367677       1.145556
      3 H                     0.122419      -0.048344
      4 H                     0.122457      -0.048346
      5 H                     0.122417      -0.048347
  --------------------------------------------------------
  Sum of atomic charges =     0.000000
  Sum of spin   charges =     2.000000

 -----------------------------------------------------------------
                    Cartesian Multipole Moments
 -----------------------------------------------------------------
    Charge (ESU x 10^10)
                 0.0000
    Dipole Moment (Debye)
         X       0.0090      Y       0.0027      Z       0.0160
       Tot       0.0186
    Quadrupole Moments (Debye-Ang)
        XX      -8.6819     XY      -0.1118     YY      -8.3211
        XZ      -0.6808     YZ      -0.1918     ZZ      -9.4800
    Octopole Moments (Debye-Ang^2)
       XXX       1.7309    XXY       0.2077    XYY       1.3355
       YYY       0.5881    XXZ       2.0583    XYZ       0.1300
       YYZ       0.7751    XZZ       1.5788    YZZ       0.6140
       ZZZ       5.3806
    Hexadecapole Moments (Debye-Ang^3)
      XXXX     -31.0412   XXXY      -2.4037   XXYY      -8.5135
      XYYY      -2.7068   YYYY     -16.9603   XXXZ     -14.5720
      XXYZ      -1.4917   XYYZ      -5.0522   YYYZ      -4.3377
      XXZZ     -16.9498   XYZZ      -0.9048   YYZZ     -13.5052
      XZZZ     -14.7760   YZZZ      -4.8279   ZZZZ     -67.7687
 -----------------------------------------------------------------
 Calculating analytic gradient of the SCF energy
 Gradient of SCF Energy
            1           2           3           4           5
    1  -0.0006099   0.0007238  -0.0000258   0.0000701  -0.0001581
    2  -0.0001957   0.0001053   0.0001710  -0.0001569   0.0000764
    3  -0.0010881   0.0011428  -0.0000528  -0.0000317   0.0000299
 Max gradient component =       1.143E-03
 RMS gradient           =       4.851E-04
 Gradient time:  CPU 4.65 s  wall 0.59 s
 Geometry Optimization Parameters
   NAtoms,    NIC,     NZ,  NCons,   NDum,   NFix, NCnnct, MaxDiis
        5      50       0       1       0       0       0       0

 Cartesian Hessian Update
 Hessian Updated using BFGS Update


** CONSTRAINED OPTIMIZATION IN DELOCALIZED INTERNAL COORDINATES **
   Searching for a Minimum

   Optimization Cycle:   6

                       Coordinates (Angstroms)
     ATOM                X               Y               Z
      1  H         1.2798048459    0.3949137047    2.2707558799
      2  C        -0.3220940314   -0.0996017955   -0.5716685387
      3  H         0.0858723891    0.8291818500   -0.9486196180
      4  H         0.2143154525   -1.0274034582   -0.7223013980
      5  H        -1.2580006560   -0.0971913011   -0.0283663252
   Point Group: c1    Number of degrees of freedom:     9


   Energy is    -40.342292526

              Constraints and their Current Values
                                        Value     Constraint
   Distance(Angs):        1   2             3.300000     3.300000
 Hessian Updated using BFGS Update

  8 Hessian modes will be used to form the next step
  Hessian Eigenvalues:
     0.002348    0.052635    0.052703    0.078201    0.078440    0.308846
     0.309218    0.377391

 Minimum Search - Taking Simple RFO Step
 Searching for Lamda that Minimizes Along All modes
 Value Taken    Lamda =   0.00000000
 Step Taken.  Stepsize is  0.013467

                             Maximum     Tolerance    Cnvgd?
         Gradient           0.000251      0.000300     YES
         Displacement       0.013419      0.001200      NO
         Energy change     -0.000028      0.000001      NO


 New Cartesian Coordinates Obtained by Inverse Iteration

 Displacement from previous Coordinates is:  0.005119
 ----------------------------------------------------------------
             Standard Nuclear Orientation (Angstroms)
    I     Atom           X                Y                Z
 ----------------------------------------------------------------
    1      H       1.2790377979     0.3947801160     2.2695182114
    2      C      -0.3228386014    -0.0997672915    -0.5729133237
    3      H       0.0864349814     0.8291098892    -0.9476942646
    4      H       0.2145716738    -1.0270653687    -0.7216168516
    5      H      -1.2573078517    -0.0971583450    -0.0274937714
 ----------------------------------------------------------------
 Nuclear Repulsion Energy =    11.0705966074 hartrees
 There are        6 alpha and        4 beta electrons

                       Distance Matrix (Angstroms)
             H (  1)   C (  2)   H (  3)   H (  4)
   C (  2)  3.300000
   H (  3)  3.458526  1.082025
   H (  4)  3.478739  1.082037  1.874278
   H (  5)  3.457068  1.081999  1.873603  1.874290
 
 Applying Cartesian multipole field
    Component          Value
    ---------          -----
     (2,0,0)        1.00000E-10
     (0,2,0)        2.00000E-10
     (0,0,2)       -3.00000E-11
 Nucleus-field energy     =     0.0000000019 hartrees
 Requested basis set is 6-31G(d,p)
 There are 16 shells and 35 basis functions
 A cutoff of  1.0D-14 yielded    136 shell pairs
 There are       669 function pairs
 Smallest overlap matrix eigenvalue = 2.76E-02
 Guess from superposition of atomic densities
 Warning:  Energy on first SCF cycle will be non-variational
 SAD guess density has 10.000000 electrons

 -----------------------------------------------------------------------
  General SCF calculation program by
  Eric Jon Sundstrom, Paul Horn, Yuezhi Mao, Dmitri Zuev, Alec White,
  David Stuck, Shaama M.S., Shane Yost, Joonho Lee, David Small,
  Daniel Levine, Susi Lehtola, Hugh Burton, Evgeny Epifanovsky
 -----------------------------------------------------------------------
 Exchange:     0.2000 Hartree-Fock + 0.0800 Slater + 0.7200 B88
 Correlation:  0.1900 VWN1RPA + 0.8100 LYP
 Using SG-1 standard quadrature grid
 using 12 threads for integral computing
 -------------------------------------------------------
 OpenMP Integral computing Module                
 Release: version 1.0, May 2013, Q-Chem Inc. Pittsburgh 
 -------------------------------------------------------
 -------------------------------------------------------
 OpenMP BLAS3 based DFT computing Module                
 Release: version 1.0, May 2013, Q-Chem Inc. Pittsburgh 
 -------------------------------------------------------
 A unrestricted SCF calculation will be
 performed using DIIS
 SCF converges when DIIS error is below 1.0e-06
 Alpha HF Exchange    Energy =  -0.61649952941108
 Beta HF Exchange     Energy =  -0.61649952941108
 DFT Correlation      Energy =  -0.36528439588459
 DFT Exchange         Energy =  -4.95241388708168
 One-Electron (alpha) Energy = -36.94127908122951
 One-Electron (beta)  Energy = -36.94127908122951
 Total Coulomb        Energy =  29.16871736747804
 ---------------------------------------
  Cycle       Energy         DIIS error
 ---------------------------------------
    1     -40.1939415275      3.83e-02  
 Alpha HF Exchange    Energy =  -0.73636129858347
 Beta HF Exchange     Energy =  -0.58771374710654
 DFT Correlation      Energy =  -0.35595359053129
 DFT Exchange         Energy =  -5.23310316957691
 One-Electron (alpha) Energy = -41.26259852048445
 One-Electron (beta)  Energy = -34.50636605898725
 Total Coulomb        Energy =  31.29818265464608
    2     -40.3133171214      6.32e-03  
 Alpha HF Exchange    Energy =  -0.71667597801629
 Beta HF Exchange     Energy =  -0.57254038939406
 DFT Correlation      Energy =  -0.34615072438694
 DFT Exchange         Energy =  -5.08944535191524
 One-Electron (alpha) Energy = -40.45729748671047
 One-Electron (beta)  Energy = -33.81770875841826
 Total Coulomb        Energy =  29.60686718701036
    3     -40.3223548926      5.45e-03  
 Alpha HF Exchange    Energy =  -0.72815481427368
 Beta HF Exchange     Energy =  -0.57901204113105
 DFT Correlation      Energy =  -0.35045838522988
 DFT Exchange         Energy =  -5.16298030101899
 One-Electron (alpha) Energy = -40.89008712179137
 One-Electron (beta)  Energy = -34.11175637370926
 Total Coulomb        Energy =  30.40962085456934
    4     -40.3422315733      2.08e-04  
 Alpha HF Exchange    Energy =  -0.72842415651096
 Beta HF Exchange     Energy =  -0.57873245380158
 DFT Correlation      Energy =  -0.35026690810094
 DFT Exchange         Energy =  -5.16281226265652
 One-Electron (alpha) Energy = -40.90037810555636
 One-Electron (beta)  Energy = -34.08989736358821
 Total Coulomb        Energy =  30.39762683453443
    5     -40.3422878064      5.12e-05  
 Alpha HF Exchange    Energy =  -0.72854189623863
 Beta HF Exchange     Energy =  -0.57861596346006
 DFT Correlation      Energy =  -0.35021839937813
 DFT Exchange         Energy =  -5.16278241079525
 One-Electron (alpha) Energy = -40.90658887196348
 One-Electron (beta)  Energy = -34.08220273406394
 Total Coulomb        Energy =  30.39606088803279
    6     -40.3422927786      8.13e-06  
 Alpha HF Exchange    Energy =  -0.72857195885731
 Beta HF Exchange     Energy =  -0.57860380633579
 DFT Correlation      Energy =  -0.35021504527876
 DFT Exchange         Energy =  -5.16285076603137
 One-Electron (alpha) Energy = -40.90789846107557
 One-Electron (beta)  Energy = -34.08121125141675
 Total Coulomb        Energy =  30.39646177910067
    7     -40.3422929006      9.64e-07  Convergence criterion met
 ---------------------------------------
 SCF time:   CPU 11.84s  wall 1.00s 
<S^2> =          2.003650150
 Alpha HF Exchange    Energy =  -0.72857195885731
 Beta HF Exchange     Energy =  -0.57860380633579
 DFT Correlation      Energy =  -0.35021504527876
 DFT Exchange         Energy =  -5.16285076603137
 One-Electron (alpha) Energy = -40.90789846107557
 One-Electron (beta)  Energy = -34.08121125141675
 Total Coulomb        Energy =  30.39646177910067
 Nuclear repulsion Energy =  11.07059660925739
 SCF   energy in the final basis set =      -40.3422929006
 Total energy in the final basis set =      -40.3422929006
 
 --------------------------------------------------------------
 
                    Orbital Energies (a.u.)
 --------------------------------------------------------------
 
 Alpha MOs
 -- Occupied --
-10.191  -0.681  -0.415  -0.415  -0.313  -0.223
 -- Virtual --
  0.115   0.182   0.182   0.526   0.540   0.540   0.654   0.779
  0.890   0.890   0.949   1.436   1.436   1.914   1.915   1.950
  1.954   1.954   1.970   2.007   2.284   2.560   2.561   2.717
  2.718   3.249   3.458   3.458   4.276
 
 Beta MOs
 -- Occupied --
-10.177  -0.640  -0.405  -0.405
 -- Virtual --
 -0.059  -0.009   0.131   0.188   0.188   0.547   0.547   0.613
  0.702   0.893   0.894   0.961   1.025   1.483   1.483   1.918
  1.918   2.002   2.046   2.221   2.221   2.221   2.292   2.590
  2.590   2.717   2.718   3.255   3.465   3.466   4.313
 --------------------------------------------------------------
 
          Ground-State Mulliken Net Atomic Charges

     Atom                 Charge (a.u.)    Spin (a.u.)
  --------------------------------------------------------
      1 H                     0.000386       0.999479
      2 C                    -0.367685       1.145514
      3 H                     0.122424      -0.048330
      4 H                     0.122451      -0.048330
      5 H                     0.122423      -0.048333
  --------------------------------------------------------
  Sum of atomic charges =    -0.000000
  Sum of spin   charges =     2.000000

 -----------------------------------------------------------------
                    Cartesian Multipole Moments
 -----------------------------------------------------------------
    Charge (ESU x 10^10)
                -0.0000
    Dipole Moment (Debye)
         X       0.0117      Y       0.0034      Z       0.0205
       Tot       0.0239
    Quadrupole Moments (Debye-Ang)
        XX      -8.6834     XY      -0.1117     YY      -8.3214
        XZ      -0.6837     YZ      -0.1924     ZZ      -9.4843
    Octopole Moments (Debye-Ang^2)
       XXX       1.7483    XXY       0.2090    XYY       1.3405
       YYY       0.5921    XXZ       2.0681    XYZ       0.1299
       YYZ       0.7848    XZZ       1.5855    YZZ       0.6152
       ZZZ       5.4096
    Hexadecapole Moments (Debye-Ang^3)
      XXXX     -31.0427   XXXY      -2.4050   XXYY      -8.5111
      XYYY      -2.7070   YYYY     -16.9576   XXXZ     -14.5740
      XXYZ      -1.4924   XYYZ      -5.0520   YYYZ      -4.3395
      XXZZ     -16.9488   XYZZ      -0.9050   YYZZ     -13.5075
      XZZZ     -14.7777   YZZZ      -4.8280   ZZZZ     -67.7723
 -----------------------------------------------------------------
 Calculating analytic gradient of the SCF energy
 Gradient of SCF Energy
            1           2           3           4           5
    1  -0.0006091   0.0006724  -0.0000404   0.0000124  -0.0000353
    2  -0.0001955   0.0001043   0.0000547  -0.0000232   0.0000597
    3  -0.0010867   0.0010688   0.0000086   0.0000137  -0.0000043
 Max gradient component =       1.087E-03
 RMS gradient           =       4.623E-04
 Gradient time:  CPU 4.66 s  wall 0.59 s
 Geometry Optimization Parameters
   NAtoms,    NIC,     NZ,  NCons,   NDum,   NFix, NCnnct, MaxDiis
        5      50       0       1       0       0       0       0

 Cartesian Hessian Update
 Hessian Updated using BFGS Update


** CONSTRAINED OPTIMIZATION IN DELOCALIZED INTERNAL COORDINATES **
   Searching for a Minimum

   Optimization Cycle:   7

                       Coordinates (Angstroms)
     ATOM                X               Y               Z
      1  H         1.2790377979    0.3947801160    2.2695182114
      2  C        -0.3228386014   -0.0997672915   -0.5729133237
      3  H         0.0864349814    0.8291098892   -0.9476942646
      4  H         0.2145716738   -1.0270653687   -0.7216168516
      5  H        -1.2573078517   -0.0971583450   -0.0274937714
   Point Group: c1    Number of degrees of freedom:     9


   Energy is    -40.342292901

              Constraints and their Current Values
                                        Value     Constraint
   Distance(Angs):        1   2             3.300000     3.300000
 Hessian Updated using BFGS Update

  8 Hessian modes will be used to form the next step
  Hessian Eigenvalues:
     0.002393    0.052235    0.052639    0.069816    0.078201    0.308800
     0.309219    0.359404

 Minimum Search - Taking Simple RFO Step
 Searching for Lamda that Minimizes Along All modes
 Value Taken    Lamda =   0.00000000
 Step Taken.  Stepsize is  0.001679

                             Maximum     Tolerance    Cnvgd?
         Gradient           0.000047      0.000300     YES
         Displacement       0.001376      0.001200      NO
         Energy change     -0.000000      0.000001     YES


                       Distance Matrix (Angstroms)
             H (  1)   C (  2)   H (  3)   H (  4)
   C (  2)  3.300000
   H (  3)  3.458526  1.082025
   H (  4)  3.478739  1.082037  1.874278
   H (  5)  3.457068  1.081999  1.873603  1.874290
 
 Final energy is   -40.3422929006375     


 ******************************
 **  OPTIMIZATION CONVERGED  **
 ******************************

                       Coordinates (Angstroms)
     ATOM                X               Y               Z
      1  H         1.2790377979    0.3947801160    2.2695182114
      2  C        -0.3228386014   -0.0997672915   -0.5729133237
      3  H         0.0864349814    0.8291098892   -0.9476942646
      4  H         0.2145716738   -1.0270653687   -0.7216168516
      5  H        -1.2573078517   -0.0971583450   -0.0274937714

Z-matrix Print:
$molecule
0 3
C 
H  1 1.081999
H  1 1.082025 2 119.947341
H  1 1.082037 2 120.019039 3 178.444744 0
H  1 3.300000 2 89.122159 3 88.573758 0
$end

PES scan, value:    3.3000 energy:  -40.3422929006
------- Summary of potential scan: ------ 
    3.3000       -40.3422929006
----------------------------------------- 
Archival summary:
1\1\hpc0243\JobtypUnspecified\ProcedureUnspecified\6-31G**\14(3)\knomura\MonMar1116:25:272019MonMar1116:25:272019\0\\#,JobtypUnspecified,ProcedureUnspecified,6-31G**,\\0,3\C\H,1,1.082\H,1,1.08203,2,119.947\H,1,1.08204,2,120.019,3,178.445,0\H,1,3.3,2,89.1222,3,88.5738,0\\\@

 Total job time:  15.64s(wall), 156.31s(cpu) 
 Mon Mar 11 16:25:27 2019

        *************************************************************
        *                                                           *
        *  Thank you very much for using Q-Chem.  Have a nice day.  *
        *                                                           *
        *************************************************************


