
Running Job 1 of 1 scan_ch4.xyz.data/inputs/bond_singlet_1.2.in
qchem scan_ch4.xyz.data/inputs/bond_singlet_1.2.in_30822.0 /staging/scratch/2851581/qchem30822/ 1
/usr/usc/qchem/5.1.1/exe/qcprog.exe_s scan_ch4.xyz.data/inputs/bond_singlet_1.2.in_30822.0 /staging/scratch/2851581/qchem30822/
Check license passed

                  Welcome to Q-Chem
     A Quantum Leap Into The Future Of Chemistry


 Q-Chem 5.1, Q-Chem, Inc., Pleasanton, CA (2018)

 Yihan Shao,  Zhengting Gan,  E. Epifanovsky,  A. T. B. Gilbert,  M. Wormit,  
 J. Kussmann,  A. W. Lange,  A. Behn,  Jia Deng,  Xintian Feng,  D. Ghosh,  
 M. Goldey,  P. R. Horn,  L. D. Jacobson,  I. Kaliman,  T. Kus,  A. Landau,  
 Jie Liu,  E. I. Proynov,  R. M. Richard,  R. P. Steele,  E. J. Sundstrom,  
 H. L. Woodcock III,  P. M. Zimmerman,  D. Zuev,  B. Albrecht,  E. Alguire,  
 S. A. Baeppler,  D. Barton,  Z. Benda,  Y. A. Bernard,  E. J. Berquist,  
 K. B. Bravaya,  H. Burton,  D. Casanova,  Chun-Min Chang,  Yunqing Chen,  
 A. Chien,  K. D. Closser,  M. P. Coons,  S. Coriani,  S. Dasgupta,  
 A. L. Dempwolff,  M. Diedenhofen,  Hainam Do,  R. G. Edgar,  Po-Tung Fang,  
 S. Faraji,  S. Fatehi,  Qingguo Feng,  K. D. Fenk,  J. Fosso-Tande,  
 Qinghui Ge,  A. Ghysels,  G. Gidofalvi,  J. Gomes,  J. Gonthier,  A. Gunina,  
 D. Hait,  M. W. D. Hanson-Heine,  P. H. P. Harbach,  A. W. Hauser,  
 J. E. Herr,  E. G. Hohenstein,  Z. C. Holden,  Kerwin Hui,  B. C. Huynh,  
 T.-C. Jagau,  Hyunjun Ji,  B. Kaduk,  K. Khistyaev,  Jaehoon Kim,  
 P. Klunzinger,  K. Koh,  D. Kosenkov,  L. Koulias,  T. Kowalczyk,  
 C. M. Krauter,  A. Kunitsa,  Ka Un Lao,  A. Laurent,  K. V. Lawler,  
 Joonho Lee,  D. Lefrancois,  S. Lehtola,  D. S. Levine,  Yi-Pei Li,  
 You-Sheng Lin,  Fenglai Liu,  E. Livshits,  A. Luenser,  P. Manohar,  
 E. Mansoor,  S. F. Manzer,  Shan-Ping Mao,  Yuezhi Mao,  N. Mardirossian,  
 A. V. Marenich,  T. Markovich,  L. A. Martinez-Martinez,  S. A. Maurer,  
 N. J. Mayhall,  S. C. McKenzie,  J.-M. Mewes,  A. F. Morrison,  
 J. W. Mullinax,  K. Nanda,  T. S. Nguyen-Beck,  R. Olivares-Amaya,  
 J. A. Parkhill,  T. M. Perrine,  F. Plasser,  P. Pokhilko,  S. Prager,  
 A. Prociuk,  E. Ramos,  D. R. Rehn,  F. Rob,  M. Schneider,  N. Sergueev,  
 S. M. Sharada,  S. Sharma,  D. W. Small,  T. Stauch,  T. Stein,  
 Yu-Chuan Su,  A. J. W. Thom,  A. Tkatchenko,  T. Tsuchimochi,  N. M. Tubman,  
 L. Vogt,  M. L. Vidal,  O. Vydrov,  M. A. Watson,  J. Wenzel,  
 M. de Wergifosse,  T. A. Wesolowski,  A. White,  J. Witte,  A. Yamada,  
 Jun Yang,  K. Yao,  S. Yeganeh,  S. R. Yost,  Zhi-Qiang You,  A. Zech,  
 Igor Ying Zhang,  Xing Zhang,  Yan Zhao,  Ying Zhu,  B. R. Brooks,  
 G. K. L. Chan,  C. J. Cramer,  M. S. Gordon,  W. J. Hehre,  A. Klamt,  
 M. W. Schmidt,  C. D. Sherrill,  D. G. Truhlar,  A. Aspuru-Guzik,  R. Baer,  
 A. T. Bell,  N. A. Besley,  Jeng-Da Chai,  A. E. DePrince, III,  
 R. A. DiStasio Jr.,  A. Dreuw,  B. D. Dunietz,  T. R. Furlani,  
 Chao-Ping Hsu,  Yousung Jung,  Jing Kong,  D. S. Lambrecht,  WanZhen Liang,  
 C. Ochsenfeld,  V. A. Rassolov,  L. V. Slipchenko,  J. E. Subotnik,  
 T. Van Voorhis,  J. M. Herbert,  A. I. Krylov,  P. M. W. Gill,  M. Head-Gordon

 Contributors to earlier versions of Q-Chem not listed above: 
 R. D. Adamson,  B. Austin,  J. Baker,  G. J. O. Beran,  K. Brandhorst,  
 S. T. Brown,  E. F. C. Byrd,  A. K. Chakraborty,  C.-L. Cheng,  
 Siu Hung Chien,  D. M. Chipman,  D. L. Crittenden,  H. Dachsel,  
 R. J. Doerksen,  A. D. Dutoi,  L. Fusti-Molnar,  W. A. Goddard III,  
 A. Golubeva-Zadorozhnaya,  S. R. Gwaltney,  G. Hawkins,  A. Heyden,  
 S. Hirata,  G. Kedziora,  F. J. Keil,  C. Kelley,  Jihan Kim,  R. A. King,  
 R. Z. Khaliullin,  P. P. Korambath,  W. Kurlancheek,  A. M. Lee,  M. S. Lee,  
 S. V. Levchenko,  Ching Yeh Lin,  D. Liotard,  R. C. Lochan,  I. Lotan,  
 P. E. Maslen,  N. Nair,  D. P. O'Neill,  D. Neuhauser,  E. Neuscamman,  
 C. M. Oana,  R. Olson,  B. Peters,  R. Peverati,  P. A. Pieniazek,  
 Y. M. Rhee,  J. Ritchie,  M. A. Rohrdanz,  E. Rosta,  N. J. Russ,  
 H. F. Schaefer III,  N. E. Schultz,  N. Shenvi,  A. C. Simmonett,  A. Sodt,  
 D. Stuck,  K. S. Thanthiriwatte,  V. Vanovschi,  Tao Wang,  A. Warshel,  
 C. F. Williams,  Q. Wu,  X. Xu,  W. Zhang

 Please cite Q-Chem as follows:
 Y. Shao et al., Mol. Phys. 113, 184-215 (2015)
 DOI: 10.1080/00268976.2014.952696

 Q-Chem 5.1.1 for Intel X86 EM64T Linux

 Parts of Q-Chem use Armadillo 8.300.2 (Tropical Shenanigans).
 http://arma.sourceforge.net/

 Q-Chem begins on Mon Mar 11 16:18:14 2019  

Host: 
0

     Scratch files written to /staging/scratch/2851581/qchem30822//
 Aug318 |scratch|qcdevops|jenkins|workspace|build_RNUM 6013   
Processing $rem in /usr/usc/qchem/5.1.1/config/preferences.
 MEM_TOTAL  2000 
Input Ideriv = 2
Curr. Ideriv = -1
Max.  Ideriv = 2

Checking the input file for inconsistencies... 	...done.

--------------------------------------------------------------
User input:
--------------------------------------------------------------

$comment
potential surface scanner
$end

$rem
JOBTYPE  PES_SCAN
UNRESTRICTED TRUE
SYM_IGNORE  TRUE
GEOM_OPT_MAX_CYCLES 400
SCF_MAX_CYCLES 400
METHOD   B3LYP
BASIS   6-31G**
PDB_PRINT 2
SCF_CONVERGENCE 6
THRESH 14
SCF_PRINT 1
$end
$molecule
0 1
H 0.534022 0.162631 0.945132
C -0.001148 -0.000345 -0.001985
H 0.205647 0.827814 -0.682782
H 0.335612 -0.936055 -0.452722
H -1.074233 -0.054145 0.192157
$end
$scan
stre 1 2 1.200000 1.201000 0.100000
$end
--------------------------------------------------------------
 ----------------------------------------------------------------
             Standard Nuclear Orientation (Angstroms)
    I     Atom           X                Y                Z
 ----------------------------------------------------------------
    1      H       0.5340220000     0.1626310000     0.9451320000
    2      C      -0.0011480000    -0.0003450000    -0.0019850000
    3      H       0.2056470000     0.8278140000    -0.6827820000
    4      H       0.3356120000    -0.9360550000    -0.4527220000
    5      H      -1.0742330000    -0.0541450000     0.1921570000
 ----------------------------------------------------------------
 Nuclear Repulsion Energy =    13.3878960998 hartrees
 There are        5 alpha and        5 beta electrons
 Requested basis set is 6-31G(d,p)
 There are 16 shells and 35 basis functions

 Total QAlloc Memory Limit   2000 MB
 Mega-Array Size       188 MB
 MEM_STATIC part       192 MB
A total of 1 constraints
  
            1
    1   1.0100000
    2   1.0100000
    3   2.0100000
    4   1.2000000
    5   1.2010000
    6   0.1000000
    7   0.0000000
    8   0.0000000
    9   0.0000000
   10   0.0000000

                       Distance Matrix (Angstroms)
             H (  1)   C (  2)   H (  3)   H (  4)
   C (  2)  1.099999
   H (  3)  1.788967  1.091832
   H (  4)  1.788987  1.091844  1.783550
   H (  5)  1.788979  1.091832  1.783666  1.783619
 
 A cutoff of  1.0D-14 yielded    136 shell pairs
 There are       669 function pairs
 
 -------------------------------------------------------
 OpenMP Integral Computing Module                       
 Release: version 1.0, May 2013, Q-Chem Inc. Pittsburgh 
 -------------------------------------------------------
 Integral Job Info:
 Integral job number is                      11
 Integral operator is                         1
 short-range coefficients                     0
 long-range coefficients              100000000
 Omega coefficients                           0
 if combine SR and LR in K                    0
 Integral screening is                        0
 Integral computing path is                   2
 max size of driver memory is            800000
 size of driver memory is                593474
 size of scratch memory is              2361544
 max col of scratch BK array               1296
 max len of scratch array in speh3          155
 max len of scratch index in speh4           18
 max int batch size is                      520
 min int batch size is                       52
 fixed nKL is                                52
 max L of basis functions is                  2
 order of int derivative is                   0
 number of shells is                         16
 number of basis is                          35
 number of cartesian basis is                35
 number of contracted shell pairs           136
 number of primitive shell pairs            504
 maxK2 (contraction) of shell pair           36
 max number of K2 of shell pair               1
 max number of CS2 of shell pair             16
 max number of PS2 of shell pair             56
 mem total for path MDJ                  507880
 -------------------------------------------------------
 Smallest overlap matrix eigenvalue = 1.80E-02

 Scale SEOQF with 1.000000e+00/1.000000e+00/1.000000e+00

 Standard Electronic Orientation quadrupole field applied
 Guess from superposition of atomic densities
 Warning:  Energy on first SCF cycle will be non-variational
 SAD guess density has 10.000000 electrons

 -----------------------------------------------------------------------
  General SCF calculation program by
  Eric Jon Sundstrom, Paul Horn, Yuezhi Mao, Dmitri Zuev, Alec White,
  David Stuck, Shaama M.S., Shane Yost, Joonho Lee, David Small,
  Daniel Levine, Susi Lehtola, Hugh Burton, Evgeny Epifanovsky
 -----------------------------------------------------------------------
 Exchange:     0.2000 Hartree-Fock + 0.0800 Slater + 0.7200 B88
 Correlation:  0.1900 VWN1RPA + 0.8100 LYP
 Using SG-1 standard quadrature grid
 using 12 threads for integral computing
 -------------------------------------------------------
 OpenMP Integral computing Module                
 Release: version 1.0, May 2013, Q-Chem Inc. Pittsburgh 
 -------------------------------------------------------
 -------------------------------------------------------
 OpenMP BLAS3 based DFT computing Module                
 Release: version 1.0, May 2013, Q-Chem Inc. Pittsburgh 
 -------------------------------------------------------
 A unrestricted SCF calculation will be
 performed using DIIS
 SCF converges when DIIS error is below 1.0e-06
 Alpha HF Exchange    Energy =  -0.64761175336604
 Beta HF Exchange     Energy =  -0.64761175336604
 DFT Correlation      Energy =  -0.37840564136568
 DFT Exchange         Energy =  -5.01689937356804
 One-Electron (alpha) Energy = -39.15822255294163
 One-Electron (beta)  Energy = -39.15822255294163
 Total Coulomb        Energy =  31.18089125274343
 ---------------------------------------
  Cycle       Energy         DIIS error
 ---------------------------------------
    1     -40.4381862750      4.73e-02  
 Alpha HF Exchange    Energy =  -0.67293275597039
 Beta HF Exchange     Energy =  -0.67293275597039
 DFT Correlation      Energy =  -0.39482017197492
 DFT Exchange         Energy =  -5.32683866021613
 One-Electron (alpha) Energy = -40.50864334315886
 One-Electron (beta)  Energy = -40.50864334315886
 Total Coulomb        Energy =  34.22856604094769
    2     -40.4683488897      9.28e-03  
 Alpha HF Exchange    Energy =  -0.64421110264986
 Beta HF Exchange     Energy =  -0.64421110264986
 DFT Correlation      Energy =  -0.37984115642369
 DFT Exchange         Energy =  -5.08741572086177
 One-Electron (alpha) Energy = -39.21845654908845
 One-Electron (beta)  Energy = -39.21845654908845
 Total Coulomb        Energy =  31.33719235643666
    3     -40.4675037245      9.31e-03  
 Alpha HF Exchange    Energy =  -0.65785248634693
 Beta HF Exchange     Energy =  -0.65785248634693
 DFT Correlation      Energy =  -0.38737095890854
 DFT Exchange         Energy =  -5.20193870951832
 One-Electron (alpha) Energy = -39.87993556021209
 One-Electron (beta)  Energy = -39.87993556021210
 Total Coulomb        Energy =  32.75302601736077
    4     -40.5239636444      4.26e-05  
 Alpha HF Exchange    Energy =  -0.65781538553628
 Beta HF Exchange     Energy =  -0.65781538553628
 DFT Correlation      Energy =  -0.38735452441993
 DFT Exchange         Energy =  -5.20167112799048
 One-Electron (alpha) Energy = -39.87875435676127
 One-Electron (beta)  Energy = -39.87875435676131
 Total Coulomb        Energy =  32.75030446366409
    5     -40.5239645735      1.22e-05  
 Alpha HF Exchange    Energy =  -0.65783455720952
 Beta HF Exchange     Energy =  -0.65783455720952
 DFT Correlation      Energy =  -0.38736365705695
 DFT Exchange         Energy =  -5.20183071616111
 One-Electron (alpha) Energy = -39.87955222395609
 One-Electron (beta)  Energy = -39.87955222395615
 Total Coulomb        Energy =  32.75210717066214
    6     -40.5239646651      3.24e-07  Convergence criterion met
 ---------------------------------------
 SCF time:   CPU 13.15s  wall 2.00s 
<S^2> =          0.000000000
 Alpha HF Exchange    Energy =  -0.65783455720952
 Beta HF Exchange     Energy =  -0.65783455720952
 DFT Correlation      Energy =  -0.38736365705695
 DFT Exchange         Energy =  -5.20183071616111
 One-Electron (alpha) Energy = -39.87955222395609
 One-Electron (beta)  Energy = -39.87955222395615
 Total Coulomb        Energy =  32.75210717066214
 Nuclear repulsion Energy =  13.38789609981893
 SCF   energy in the final basis set =      -40.5239646651
 Total energy in the final basis set =      -40.5239646651
 
 --------------------------------------------------------------
 
                    Orbital Energies (a.u.)
 --------------------------------------------------------------
 
 Alpha MOs
 -- Occupied --
-10.168  -0.690  -0.389  -0.389  -0.387
 -- Virtual --
  0.118   0.175   0.177   0.177   0.529   0.529   0.531   0.871
  0.875   0.875   0.920   1.100   1.364   1.364   2.043   2.047
  2.047   2.048   2.052   2.052   2.627   2.627   2.628   2.907
  2.907   3.109   3.410   3.420   3.420   4.422
 
 Beta MOs
 -- Occupied --
-10.168  -0.690  -0.389  -0.389  -0.387
 -- Virtual --
  0.118   0.175   0.177   0.177   0.529   0.529   0.531   0.871
  0.875   0.875   0.920   1.100   1.364   1.364   2.043   2.047
  2.047   2.048   2.052   2.052   2.627   2.627   2.628   2.907
  2.907   3.109   3.410   3.420   3.420   4.422
 --------------------------------------------------------------
 
          Ground-State Mulliken Net Atomic Charges

     Atom                 Charge (a.u.)    Spin (a.u.)
  --------------------------------------------------------
      1 H                     0.116122       0.000000
      2 C                    -0.469734       0.000000
      3 H                     0.117874      -0.000000
      4 H                     0.117866       0.000000
      5 H                     0.117873      -0.000000
  --------------------------------------------------------
  Sum of atomic charges =     0.000000
  Sum of spin   charges =    -0.000000

 -----------------------------------------------------------------
                    Cartesian Multipole Moments
 -----------------------------------------------------------------
    Charge (ESU x 10^10)
                -0.0000
    Dipole Moment (Debye)
         X      -0.0022      Y      -0.0007      Z      -0.0040
       Tot       0.0046
    Quadrupole Moments (Debye-Ang)
        XX      -8.2508     XY      -0.0000     YY      -8.2507
        XZ      -0.0008     YZ      -0.0002     ZZ      -8.2516
    Octopole Moments (Debye-Ang^2)
       XXX      -0.6819    XXY      -0.0567    XYY       0.2946
       YYY      -0.1625    XXZ       0.2720    XYZ       0.0783
       YYZ      -0.5503    XZZ       0.3963    YZZ       0.2221
       ZZZ       0.2934
    Hexadecapole Moments (Debye-Ang^3)
      XXXX     -15.0281   XXXY       0.0636   XXYY      -5.3676
      XYYY      -0.1735   YYYY     -15.2016   XXXZ      -0.1554
      XXYZ       0.0572   XYYZ      -0.2433   YYYZ      -0.0222
      XXZZ      -5.1659   XYZZ       0.1009   YYZZ      -4.9658
      XZZZ       0.3469   YZZZ      -0.0510   ZZZZ     -15.4929
 -----------------------------------------------------------------
 Calculating analytic gradient of the SCF energy
 Gradient of SCF Energy
            1           2           3           4           5
    1   0.0025059  -0.0025049  -0.0000095   0.0000074   0.0000012
    2   0.0007754  -0.0007619  -0.0000053   0.0000019  -0.0000100
    3   0.0044393  -0.0044343  -0.0000060   0.0000050  -0.0000040
 Max gradient component =       4.439E-03
 RMS gradient           =       1.882E-03
 Gradient time:  CPU 6.69 s  wall 1.13 s
 Geometry Optimization Parameters
   NAtoms,    NIC,     NZ,  NCons,   NDum,   NFix, NCnnct, MaxDiis
        5      20       0       1       0       0       0       0


** CONSTRAINED OPTIMIZATION IN DELOCALIZED INTERNAL COORDINATES **
   Searching for a Minimum

   Optimization Cycle:   1

                       Coordinates (Angstroms)
     ATOM                X               Y               Z
      1  H         0.5340220000    0.1626310000    0.9451320000
      2  C        -0.0011480000   -0.0003450000   -0.0019850000
      3  H         0.2056470000    0.8278140000   -0.6827820000
      4  H         0.3356120000   -0.9360550000   -0.4527220000
      5  H        -1.0742330000   -0.0541450000    0.1921570000
   Point Group: c1    Number of degrees of freedom:     9


   Energy is    -40.523964665

              Constraints and their Current Values
                                        Value     Constraint
   Distance(Angs):        1   2             1.099999     1.200000

 Attempting to Generate Delocalized Internal Coordinates

   Using Lagrange Multiplier Algorithm


 10 Hessian modes will be used to form the next step
  Hessian Eigenvalues:
    -0.845671    0.160000    0.160000    0.160000    0.160000    0.160000
     0.346004    0.346018    0.346018    1.182493

 Minimum Search - Taking P-RFO Step
 Searching for Lamda that Maximizes Along the Constraint modes Only
 Value Taken    Lamda =   0.02502906
 Searching for Lamda that Minimizes Along All other modes
 Value Taken    Lamda =  -0.01167744
 Step Taken.  Stepsize is  0.184988

                             Maximum     Tolerance    Cnvgd?
         Gradient            0.188974       0.000300      NO
         Displacement        0.184988       0.001200      NO
         Energy change     *********       0.000001      NO


 New Cartesian Coordinates Obtained by Inverse Iteration

 Displacement from previous Coordinates is:  0.165436
 ----------------------------------------------------------------
             Standard Nuclear Orientation (Angstroms)
    I     Atom           X                Y                Z
 ----------------------------------------------------------------
    1      H       0.5721168394     0.1742329465     1.0125520980
    2      C      -0.0106786428    -0.0032481907    -0.0188508812
    3      H       0.1961286198     0.8249213267    -0.6996362674
    4      H       0.3260958095    -0.9389619474    -0.4695743447
    5      H      -1.0837626258    -0.0570441351     0.1753093952
 ----------------------------------------------------------------
 Nuclear Repulsion Energy =    13.1136045389 hartrees
 There are        5 alpha and        5 beta electrons

                       Distance Matrix (Angstroms)
             H (  1)   C (  2)   H (  3)   H (  4)
   C (  2)  1.197891
   H (  3)  1.869853  1.091835
   H (  4)  1.869874  1.091847  1.783565
   H (  5)  1.869867  1.091834  1.783680  1.783635
 
 Applying Cartesian multipole field
    Component          Value
    ---------          -----
     (2,0,0)        1.00000E-10
     (0,2,0)        2.00000E-10
     (0,0,2)       -3.00000E-10
 Nucleus-field energy     =    -0.0000000002 hartrees
 Requested basis set is 6-31G(d,p)
 There are 16 shells and 35 basis functions
 A cutoff of  1.0D-14 yielded    136 shell pairs
 There are       669 function pairs
 Smallest overlap matrix eigenvalue = 1.91E-02
 Guess from superposition of atomic densities
 Warning:  Energy on first SCF cycle will be non-variational
 SAD guess density has 10.000000 electrons

 -----------------------------------------------------------------------
  General SCF calculation program by
  Eric Jon Sundstrom, Paul Horn, Yuezhi Mao, Dmitri Zuev, Alec White,
  David Stuck, Shaama M.S., Shane Yost, Joonho Lee, David Small,
  Daniel Levine, Susi Lehtola, Hugh Burton, Evgeny Epifanovsky
 -----------------------------------------------------------------------
 Exchange:     0.2000 Hartree-Fock + 0.0800 Slater + 0.7200 B88
 Correlation:  0.1900 VWN1RPA + 0.8100 LYP
 Using SG-1 standard quadrature grid
 using 12 threads for integral computing
 -------------------------------------------------------
 OpenMP Integral computing Module                
 Release: version 1.0, May 2013, Q-Chem Inc. Pittsburgh 
 -------------------------------------------------------
 -------------------------------------------------------
 OpenMP BLAS3 based DFT computing Module                
 Release: version 1.0, May 2013, Q-Chem Inc. Pittsburgh 
 -------------------------------------------------------
 A unrestricted SCF calculation will be
 performed using DIIS
 SCF converges when DIIS error is below 1.0e-06
 Alpha HF Exchange    Energy =  -0.64210545709568
 Beta HF Exchange     Energy =  -0.64210545709568
 DFT Correlation      Energy =  -0.37721055087145
 DFT Exchange         Energy =  -5.00511119075489
 One-Electron (alpha) Energy = -38.92396639897247
 One-Electron (beta)  Energy = -38.92396639897247
 Total Coulomb        Energy =  31.00144149449355
 ---------------------------------------
  Cycle       Energy         DIIS error
 ---------------------------------------
    1     -40.3994194205      4.51e-02  
 Alpha HF Exchange    Energy =  -0.66862342121587
 Beta HF Exchange     Energy =  -0.66862342121587
 DFT Correlation      Energy =  -0.39297400978815
 DFT Exchange         Energy =  -5.29576008543619
 One-Electron (alpha) Energy = -40.22037327866338
 One-Electron (beta)  Energy = -40.22037327866337
 Total Coulomb        Energy =  33.88617525139378
    2     -40.4669477048      8.85e-03  
 Alpha HF Exchange    Energy =  -0.64132308842632
 Beta HF Exchange     Energy =  -0.64132308842632
 DFT Correlation      Energy =  -0.37829465148804
 DFT Exchange         Energy =  -5.06696750542204
 One-Electron (alpha) Energy = -38.96177309688914
 One-Electron (beta)  Energy = -38.96177309688913
 Total Coulomb        Energy =  31.07532891723899
    3     -40.4625210716      9.18e-03  
 Alpha HF Exchange    Energy =  -0.65445878736829
 Beta HF Exchange     Energy =  -0.65445878736829
 DFT Correlation      Energy =  -0.38578390117402
 DFT Exchange         Energy =  -5.17791946582994
 One-Electron (alpha) Energy = -39.61709745828535
 One-Electron (beta)  Energy = -39.61709745828534
 Total Coulomb        Energy =  32.47493830108318
    4     -40.5182730185      4.60e-05  
 Alpha HF Exchange    Energy =  -0.65442252722626
 Beta HF Exchange     Energy =  -0.65442252722626
 DFT Correlation      Energy =  -0.38576323796847
 DFT Exchange         Energy =  -5.17765191028785
 One-Electron (alpha) Energy = -39.61557895745718
 One-Electron (beta)  Energy = -39.61557895745717
 Total Coulomb        Energy =  32.47153927049250
    5     -40.5182743084      1.49e-05  
 Alpha HF Exchange    Energy =  -0.65443879929724
 Beta HF Exchange     Energy =  -0.65443879929724
 DFT Correlation      Energy =  -0.38577148363498
 DFT Exchange         Energy =  -5.17778871664561
 One-Electron (alpha) Energy = -39.61629485886198
 One-Electron (beta)  Energy = -39.61629485886199
 Total Coulomb        Energy =  32.47314854075478
    6     -40.5182744371      2.91e-06  
 Alpha HF Exchange    Energy =  -0.65444084934782
 Beta HF Exchange     Energy =  -0.65444084934782
 DFT Correlation      Energy =  -0.38577251438929
 DFT Exchange         Energy =  -5.17780555064641
 One-Electron (alpha) Energy = -39.61638463819195
 One-Electron (beta)  Energy = -39.61638463819199
 Total Coulomb        Energy =  32.47335005851343
    7     -40.5182744429      1.77e-07  Convergence criterion met
 ---------------------------------------
 SCF time:   CPU 15.90s  wall 2.00s 
<S^2> =         -0.000000000
 Alpha HF Exchange    Energy =  -0.65444084934782
 Beta HF Exchange     Energy =  -0.65444084934782
 DFT Correlation      Energy =  -0.38577251438929
 DFT Exchange         Energy =  -5.17780555064641
 One-Electron (alpha) Energy = -39.61638463819195
 One-Electron (beta)  Energy = -39.61638463819199
 Total Coulomb        Energy =  32.47335005851343
 Nuclear repulsion Energy =  13.11360453874110
 SCF   energy in the final basis set =      -40.5182744429
 Total energy in the final basis set =      -40.5182744429
 
 --------------------------------------------------------------
 
                    Orbital Energies (a.u.)
 --------------------------------------------------------------
 
 Alpha MOs
 -- Occupied --
-10.178  -0.684  -0.390  -0.390  -0.373
 -- Virtual --
  0.108   0.155   0.177   0.177   0.527   0.527   0.553   0.824
  0.874   0.874   0.904   1.092   1.370   1.370   1.933   2.035
  2.035   2.046   2.059   2.059   2.574   2.574   2.614   2.864
  2.864   3.014   3.323   3.419   3.419   4.409
 
 Beta MOs
 -- Occupied --
-10.178  -0.684  -0.390  -0.390  -0.373
 -- Virtual --
  0.108   0.155   0.177   0.177   0.527   0.527   0.553   0.824
  0.874   0.874   0.904   1.092   1.370   1.370   1.933   2.035
  2.035   2.046   2.059   2.059   2.574   2.574   2.614   2.864
  2.864   3.014   3.323   3.419   3.419   4.409
 --------------------------------------------------------------
 
          Ground-State Mulliken Net Atomic Charges

     Atom                 Charge (a.u.)    Spin (a.u.)
  --------------------------------------------------------
      1 H                     0.097219      -0.000000
      2 C                    -0.459444       0.000000
      3 H                     0.120746       0.000000
      4 H                     0.120733       0.000000
      5 H                     0.120745      -0.000000
  --------------------------------------------------------
  Sum of atomic charges =    -0.000000
  Sum of spin   charges =     0.000000

 -----------------------------------------------------------------
                    Cartesian Multipole Moments
 -----------------------------------------------------------------
    Charge (ESU x 10^10)
                -0.0000
    Dipole Moment (Debye)
         X      -0.0408      Y      -0.0124      Z      -0.0722
       Tot       0.0838
    Quadrupole Moments (Debye-Ang)
        XX      -8.3168     XY       0.0035     YY      -8.3273
        XZ       0.0198     YZ       0.0061     ZZ      -8.2928
    Octopole Moments (Debye-Ang^2)
       XXX      -0.7451    XXY      -0.0567    XYY       0.2749
       YYY      -0.1894    XXZ       0.2817    XYZ       0.0960
       YYZ      -0.6030    XZZ       0.4706    YZZ       0.2464
       ZZZ       0.3210
    Hexadecapole Moments (Debye-Ang^3)
      XXXX     -15.4655   XXXY       0.0128   XXYY      -5.4747
      XYYY      -0.2398   YYYY     -15.3119   XXXZ      -0.4732
      XXYZ       0.0350   XYYZ      -0.3658   YYYZ      -0.1273
      XXZZ      -5.4034   XYZZ       0.1038   YYZZ      -5.1901
      XZZZ       0.1234   YZZZ      -0.1259   ZZZZ     -16.6127
 -----------------------------------------------------------------
 Calculating analytic gradient of the SCF energy
 Gradient of SCF Energy
            1           2           3           4           5
    1   0.0252107  -0.0227741  -0.0008781  -0.0008894  -0.0006691
    2   0.0076770  -0.0069177  -0.0003921  -0.0001137  -0.0002535
    3   0.0446150  -0.0402882  -0.0013843  -0.0014223  -0.0015202
 Max gradient component =       4.462E-02
 RMS gradient           =       1.804E-02
 Gradient time:  CPU 4.68 s  wall 0.62 s
 Geometry Optimization Parameters
   NAtoms,    NIC,     NZ,  NCons,   NDum,   NFix, NCnnct, MaxDiis
        5      20       0       1       0       0       0       0

 Cartesian Hessian Update
 Hessian Updated using BFGS Update


** CONSTRAINED OPTIMIZATION IN DELOCALIZED INTERNAL COORDINATES **
   Searching for a Minimum

   Optimization Cycle:   2

                       Coordinates (Angstroms)
     ATOM                X               Y               Z
      1  H         0.5721168394    0.1742329465    1.0125520980
      2  C        -0.0106786428   -0.0032481907   -0.0188508812
      3  H         0.1961286198    0.8249213267   -0.6996362674
      4  H         0.3260958095   -0.9389619474   -0.4695743447
      5  H        -1.0837626258   -0.0570441351    0.1753093952
   Point Group: c1    Number of degrees of freedom:     9


   Energy is    -40.518274443

              Constraints and their Current Values
                                        Value     Constraint
   Distance(Angs):        1   2             1.197891     1.200000
 Hessian Updated using BFGS Update

   Using Lagrange Multiplier Algorithm


  8 Hessian modes will be used to form the next step
  Hessian Eigenvalues:
    -0.882015    0.160000    0.160000    0.161891    0.346008    0.346018
     0.346066    1.134342

 Minimum Search - Taking P-RFO Step
 Searching for Lamda that Maximizes Along the Constraint modes Only
 Value Taken    Lamda =   0.00004345
 Searching for Lamda that Minimizes Along All other modes
 Value Taken    Lamda =  -0.00026059
 Step Taken.  Stepsize is  0.026396

                             Maximum     Tolerance    Cnvgd?
         Gradient            0.013789       0.000300      NO
         Displacement        0.023451       0.001200      NO
         Energy change      0.005690       0.000001      NO


 New Cartesian Coordinates Obtained by Inverse Iteration

 Displacement from previous Coordinates is:  0.023746
 ----------------------------------------------------------------
             Standard Nuclear Orientation (Angstroms)
    I     Atom           X                Y                Z
 ----------------------------------------------------------------
    1      H       0.5696603077     0.1734939283     1.0081987871
    2      C      -0.0141563312    -0.0043222280    -0.0250181089
    3      H       0.1993099307     0.8282989333    -0.6972772126
    4      H       0.3296830095    -0.9411321967    -0.4665038992
    5      H      -1.0845969166    -0.0564384369     0.1804004336
 ----------------------------------------------------------------
 Nuclear Repulsion Energy =    13.1137824663 hartrees
 There are        5 alpha and        5 beta electrons

                       Distance Matrix (Angstroms)
             H (  1)   C (  2)   H (  3)   H (  4)
   C (  2)  1.199999
   H (  3)  1.864022  1.091219
   H (  4)  1.864062  1.091214  1.789173
   H (  5)  1.864051  1.091218  1.789272  1.789233
 
 Applying Cartesian multipole field
    Component          Value
    ---------          -----
     (2,0,0)        1.00000E-10
     (0,2,0)        2.00000E-10
     (0,0,2)       -3.00000E-10
 Nucleus-field energy     =    -0.0000000001 hartrees
 Requested basis set is 6-31G(d,p)
 There are 16 shells and 35 basis functions
 A cutoff of  1.0D-14 yielded    136 shell pairs
 There are       669 function pairs
 Smallest overlap matrix eigenvalue = 1.91E-02
 Guess from superposition of atomic densities
 Warning:  Energy on first SCF cycle will be non-variational
 SAD guess density has 10.000000 electrons

 -----------------------------------------------------------------------
  General SCF calculation program by
  Eric Jon Sundstrom, Paul Horn, Yuezhi Mao, Dmitri Zuev, Alec White,
  David Stuck, Shaama M.S., Shane Yost, Joonho Lee, David Small,
  Daniel Levine, Susi Lehtola, Hugh Burton, Evgeny Epifanovsky
 -----------------------------------------------------------------------
 Exchange:     0.2000 Hartree-Fock + 0.0800 Slater + 0.7200 B88
 Correlation:  0.1900 VWN1RPA + 0.8100 LYP
 Using SG-1 standard quadrature grid
 using 12 threads for integral computing
 -------------------------------------------------------
 OpenMP Integral computing Module                
 Release: version 1.0, May 2013, Q-Chem Inc. Pittsburgh 
 -------------------------------------------------------
 -------------------------------------------------------
 OpenMP BLAS3 based DFT computing Module                
 Release: version 1.0, May 2013, Q-Chem Inc. Pittsburgh 
 -------------------------------------------------------
 A unrestricted SCF calculation will be
 performed using DIIS
 SCF converges when DIIS error is below 1.0e-06
 Alpha HF Exchange    Energy =  -0.64209613899669
 Beta HF Exchange     Energy =  -0.64209613899669
 DFT Correlation      Energy =  -0.37720826946264
 DFT Exchange         Energy =  -5.00510571688822
 One-Electron (alpha) Energy = -38.92389213613090
 One-Electron (beta)  Energy = -38.92389213613090
 Total Coulomb        Energy =  31.00124142719348
 ---------------------------------------
  Cycle       Energy         DIIS error
 ---------------------------------------
    1     -40.3992666432      4.51e-02  
 Alpha HF Exchange    Energy =  -0.66861961246064
 Beta HF Exchange     Energy =  -0.66861961246064
 DFT Correlation      Energy =  -0.39297067851300
 DFT Exchange         Energy =  -5.29575972818952
 One-Electron (alpha) Energy = -40.22019837136177
 One-Electron (beta)  Energy = -40.22019837136176
 Total Coulomb        Energy =  33.88577754721092
    2     -40.4668063610      8.85e-03  
 Alpha HF Exchange    Energy =  -0.64132748113637
 Beta HF Exchange     Energy =  -0.64132748113637
 DFT Correlation      Energy =  -0.37828773693784
 DFT Exchange         Energy =  -5.06700539812033
 One-Electron (alpha) Energy = -38.96124103951213
 One-Electron (beta)  Energy = -38.96124103951213
 Total Coulomb        Energy =  31.07434913447350
    3     -40.4622985757      9.18e-03  
 Alpha HF Exchange    Energy =  -0.65446032054743
 Beta HF Exchange     Energy =  -0.65446032054743
 DFT Correlation      Energy =  -0.38578066520890
 DFT Exchange         Energy =  -5.17794823236936
 One-Electron (alpha) Energy = -39.61691956493033
 One-Electron (beta)  Energy = -39.61691956493033
 Total Coulomb        Energy =  32.47457043039700
    4     -40.5181357720      4.32e-05  
 Alpha HF Exchange    Energy =  -0.65442404029100
 Beta HF Exchange     Energy =  -0.65442404029100
 DFT Correlation      Energy =  -0.38575989029234
 DFT Exchange         Energy =  -5.17768143725471
 One-Electron (alpha) Energy = -39.61539374187408
 One-Electron (beta)  Energy = -39.61539374187408
 Total Coulomb        Energy =  32.47115747999215
    5     -40.5181369457      1.33e-05  
 Alpha HF Exchange    Energy =  -0.65444152770431
 Beta HF Exchange     Energy =  -0.65444152770431
 DFT Correlation      Energy =  -0.38576876978902
 DFT Exchange         Energy =  -5.17782782040984
 One-Electron (alpha) Energy = -39.61616335506051
 One-Electron (beta)  Energy = -39.61616335506047
 Total Coulomb        Energy =  32.47288683807566
    6     -40.5181370515      1.87e-06  
 Alpha HF Exchange    Energy =  -0.65444248824770
 Beta HF Exchange     Energy =  -0.65444248824770
 DFT Correlation      Energy =  -0.38576924505052
 DFT Exchange         Energy =  -5.17783566860275
 One-Electron (alpha) Energy = -39.61620525931939
 One-Electron (beta)  Energy = -39.61620525931941
 Total Coulomb        Energy =  32.47298088897497
    7     -40.5181370536      1.89e-07  Convergence criterion met
 ---------------------------------------
 SCF time:   CPU 15.86s  wall 2.00s 
<S^2> =         -0.000000000
 Alpha HF Exchange    Energy =  -0.65444248824770
 Beta HF Exchange     Energy =  -0.65444248824770
 DFT Correlation      Energy =  -0.38576924505052
 DFT Exchange         Energy =  -5.17783566860275
 One-Electron (alpha) Energy = -39.61620525931939
 One-Electron (beta)  Energy = -39.61620525931941
 Total Coulomb        Energy =  32.47298088897497
 Nuclear repulsion Energy =  13.11378246617825
 SCF   energy in the final basis set =      -40.5181370536
 Total energy in the final basis set =      -40.5181370536
 
 --------------------------------------------------------------
 
                    Orbital Energies (a.u.)
 --------------------------------------------------------------
 
 Alpha MOs
 -- Occupied --
-10.178  -0.684  -0.391  -0.391  -0.370
 -- Virtual --
  0.108   0.154   0.177   0.177   0.527   0.527   0.552   0.823
  0.875   0.875   0.902   1.092   1.370   1.370   1.936   2.030
  2.030   2.044   2.063   2.063   2.580   2.581   2.602   2.864
  2.864   3.011   3.327   3.419   3.419   4.408
 
 Beta MOs
 -- Occupied --
-10.178  -0.684  -0.391  -0.391  -0.370
 -- Virtual --
  0.108   0.154   0.177   0.177   0.527   0.527   0.552   0.823
  0.875   0.875   0.902   1.092   1.370   1.370   1.936   2.030
  2.030   2.044   2.063   2.063   2.580   2.581   2.602   2.864
  2.864   3.011   3.327   3.419   3.419   4.408
 --------------------------------------------------------------
 
          Ground-State Mulliken Net Atomic Charges

     Atom                 Charge (a.u.)    Spin (a.u.)
  --------------------------------------------------------
      1 H                     0.095658      -0.000000
      2 C                    -0.459179      -0.000000
      3 H                     0.121177      -0.000000
      4 H                     0.121168       0.000000
      5 H                     0.121176      -0.000000
  --------------------------------------------------------
  Sum of atomic charges =    -0.000000
  Sum of spin   charges =    -0.000000

 -----------------------------------------------------------------
                    Cartesian Multipole Moments
 -----------------------------------------------------------------
    Charge (ESU x 10^10)
                -0.0000
    Dipole Moment (Debye)
         X      -0.0379      Y      -0.0116      Z      -0.0671
       Tot       0.0780
    Quadrupole Moments (Debye-Ang)
        XX      -8.3113     XY      -0.0011     YY      -8.3079
        XZ      -0.0072     YZ      -0.0021     ZZ      -8.3199
    Octopole Moments (Debye-Ang^2)
       XXX      -0.7037    XXY      -0.0542    XYY       0.3046
       YYY      -0.1726    XXZ       0.3113    XYZ       0.0924
       YYZ      -0.5779    XZZ       0.4713    YZZ       0.2492
       ZZZ       0.3937
    Hexadecapole Moments (Debye-Ang^3)
      XXXX     -15.4689   XXXY       0.0101   XXYY      -5.4711
      XYYY      -0.2415   YYYY     -15.2990   XXXZ      -0.4854
      XXYZ       0.0340   XYYZ      -0.3694   YYYZ      -0.1320
      XXZZ      -5.4048   XYZZ       0.1040   YYZZ      -5.1954
      XZZZ       0.1149   YZZZ      -0.1274   ZZZZ     -16.6362
 -----------------------------------------------------------------
 Calculating analytic gradient of the SCF energy
 Gradient of SCF Energy
            1           2           3           4           5
    1   0.0252666  -0.0245747  -0.0002124  -0.0002019  -0.0002776
    2   0.0076948  -0.0074785  -0.0000252  -0.0001170  -0.0000741
    3   0.0447128  -0.0434882  -0.0004280  -0.0004178  -0.0003789
 Max gradient component =       4.471E-02
 RMS gradient           =       1.871E-02
 Gradient time:  CPU 4.51 s  wall 0.63 s
 Geometry Optimization Parameters
   NAtoms,    NIC,     NZ,  NCons,   NDum,   NFix, NCnnct, MaxDiis
        5      20       0       1       0       0       0       0

 Cartesian Hessian Update
 Hessian Updated using BFGS Update


** CONSTRAINED OPTIMIZATION IN DELOCALIZED INTERNAL COORDINATES **
   Searching for a Minimum

   Optimization Cycle:   3

                       Coordinates (Angstroms)
     ATOM                X               Y               Z
      1  H         0.5696603077    0.1734939283    1.0081987871
      2  C        -0.0141563312   -0.0043222280   -0.0250181089
      3  H         0.1993099307    0.8282989333   -0.6972772126
      4  H         0.3296830095   -0.9411321967   -0.4665038992
      5  H        -1.0845969166   -0.0564384369    0.1804004336
   Point Group: c1    Number of degrees of freedom:     9


   Energy is    -40.518137054

              Constraints and their Current Values
                                        Value     Constraint
   Distance(Angs):        1   2             1.199999     1.200000
 Hessian Updated using BFGS Update

   Using Lagrange Multiplier Algorithm


  8 Hessian modes will be used to form the next step
  Hessian Eigenvalues:
    -0.882922    0.121678    0.160000    0.160000    0.343865    0.346009
     0.346018    1.133900

 Minimum Search - Taking P-RFO Step
 Searching for Lamda that Maximizes Along the Constraint modes Only
 Value Taken    Lamda =   0.00000006
 Searching for Lamda that Minimizes Along All other modes
 Value Taken    Lamda =  -0.00001064
 Step Taken.  Stepsize is  0.009251

                             Maximum     Tolerance    Cnvgd?
         Gradient            0.000897       0.000300      NO
         Displacement        0.008007       0.001200      NO
         Energy change      0.000137       0.000001      NO


 New Cartesian Coordinates Obtained by Inverse Iteration

 Displacement from previous Coordinates is:  0.008920
 ----------------------------------------------------------------
             Standard Nuclear Orientation (Angstroms)
    I     Atom           X                Y                Z
 ----------------------------------------------------------------
    1      H       0.5684799842     0.1731374295     1.0061045875
    2      C      -0.0153360206    -0.0046901408    -0.0271118573
    3      H       0.2004372645     0.8293389909    -0.6962073718
    4      H       0.3309341768    -0.9416937183    -0.4652322689
    5      H      -1.0846154049    -0.0561925614     0.1822469105
 ----------------------------------------------------------------
 Nuclear Repulsion Energy =    13.1176397206 hartrees
 There are        5 alpha and        5 beta electrons

                       Distance Matrix (Angstroms)
             H (  1)   C (  2)   H (  3)   H (  4)
   C (  2)  1.200000
   H (  3)  1.861161  1.090803
   H (  4)  1.861212  1.090792  1.790792
   H (  5)  1.861198  1.090799  1.790868  1.790844
 
 Applying Cartesian multipole field
    Component          Value
    ---------          -----
     (2,0,0)        1.00000E-10
     (0,2,0)        2.00000E-10
     (0,0,2)       -3.00000E-10
 Nucleus-field energy     =    -0.0000000001 hartrees
 Requested basis set is 6-31G(d,p)
 There are 16 shells and 35 basis functions
 A cutoff of  1.0D-14 yielded    136 shell pairs
 There are       669 function pairs
 Smallest overlap matrix eigenvalue = 1.91E-02
 Guess from superposition of atomic densities
 Warning:  Energy on first SCF cycle will be non-variational
 SAD guess density has 10.000000 electrons

 -----------------------------------------------------------------------
  General SCF calculation program by
  Eric Jon Sundstrom, Paul Horn, Yuezhi Mao, Dmitri Zuev, Alec White,
  David Stuck, Shaama M.S., Shane Yost, Joonho Lee, David Small,
  Daniel Levine, Susi Lehtola, Hugh Burton, Evgeny Epifanovsky
 -----------------------------------------------------------------------
 Exchange:     0.2000 Hartree-Fock + 0.0800 Slater + 0.7200 B88
 Correlation:  0.1900 VWN1RPA + 0.8100 LYP
 Using SG-1 standard quadrature grid
 using 12 threads for integral computing
 -------------------------------------------------------
 OpenMP Integral computing Module                
 Release: version 1.0, May 2013, Q-Chem Inc. Pittsburgh 
 -------------------------------------------------------
 -------------------------------------------------------
 OpenMP BLAS3 based DFT computing Module                
 Release: version 1.0, May 2013, Q-Chem Inc. Pittsburgh 
 -------------------------------------------------------
 A unrestricted SCF calculation will be
 performed using DIIS
 SCF converges when DIIS error is below 1.0e-06
 Alpha HF Exchange    Energy =  -0.64216899829625
 Beta HF Exchange     Energy =  -0.64216899829625
 DFT Correlation      Energy =  -0.37722413317906
 DFT Exchange         Energy =  -5.00526661252773
 One-Electron (alpha) Energy = -38.92710389522527
 One-Electron (beta)  Energy = -38.92710389522527
 Total Coulomb        Energy =  31.00365292306351
 ---------------------------------------
  Cycle       Energy         DIIS error
 ---------------------------------------
    1     -40.3997438892      4.52e-02  
 Alpha HF Exchange    Energy =  -0.66867700056321
 Beta HF Exchange     Energy =  -0.66867700056321
 DFT Correlation      Energy =  -0.39299529157258
 DFT Exchange         Energy =  -5.29618592647024
 One-Electron (alpha) Energy = -40.22412144937248
 One-Electron (beta)  Energy = -40.22412144937251
 Total Coulomb        Energy =  33.89039085225112
    2     -40.4667475452      8.85e-03  
 Alpha HF Exchange    Energy =  -0.64136736751236
 Beta HF Exchange     Energy =  -0.64136736751236
 DFT Correlation      Energy =  -0.37830612854061
 DFT Exchange         Energy =  -5.06729113151402
 One-Electron (alpha) Energy = -38.96453377191713
 One-Electron (beta)  Energy = -38.96453377191715
 Total Coulomb        Energy =  31.07750487354578
    3     -40.4622549449      9.19e-03  
 Alpha HF Exchange    Energy =  -0.65450666874264
 Beta HF Exchange     Energy =  -0.65450666874265
 DFT Correlation      Energy =  -0.38580147635516
 DFT Exchange         Energy =  -5.17828488588281
 One-Electron (alpha) Energy = -39.62047324757870
 One-Electron (beta)  Energy = -39.62047324757873
 Total Coulomb        Energy =  32.47826547690066
    4     -40.5181409975      4.25e-05  
 Alpha HF Exchange    Energy =  -0.65447033868435
 Beta HF Exchange     Energy =  -0.65447033868435
 DFT Correlation      Energy =  -0.38578065243268
 DFT Exchange         Energy =  -5.17801798526537
 One-Electron (alpha) Energy = -39.61894364678141
 One-Electron (beta)  Energy = -39.61894364678145
 Total Coulomb        Energy =  32.47484474016307
    5     -40.5181421480      1.29e-05  
 Alpha HF Exchange    Energy =  -0.65448819499104
 Beta HF Exchange     Energy =  -0.65448819499104
 DFT Correlation      Energy =  -0.38578973812548
 DFT Exchange         Energy =  -5.17816726717447
 One-Electron (alpha) Energy = -39.61973083973570
 One-Electron (beta)  Energy = -39.61973083973572
 Total Coulomb        Energy =  32.47661310391763
    6     -40.5181422504      1.37e-06  
 Alpha HF Exchange    Energy =  -0.65448882857608
 Beta HF Exchange     Energy =  -0.65448882857608
 DFT Correlation      Energy =  -0.38579003849748
 DFT Exchange         Energy =  -5.17817243007945
 One-Electron (alpha) Energy = -39.61975772005177
 One-Electron (beta)  Energy = -39.61975772005176
 Total Coulomb        Energy =  32.47667359391583
    7     -40.5181422514      1.78e-07  Convergence criterion met
 ---------------------------------------
 SCF time:   CPU 15.68s  wall 1.00s 
<S^2> =          0.000000000
 Alpha HF Exchange    Energy =  -0.65448882857608
 Beta HF Exchange     Energy =  -0.65448882857608
 DFT Correlation      Energy =  -0.38579003849748
 DFT Exchange         Energy =  -5.17817243007945
 One-Electron (alpha) Energy = -39.61975772005177
 One-Electron (beta)  Energy = -39.61975772005176
 Total Coulomb        Energy =  32.47667359391583
 Nuclear repulsion Energy =  13.11763972047795
 SCF   energy in the final basis set =      -40.5181422514
 Total energy in the final basis set =      -40.5181422514
 
 --------------------------------------------------------------
 
                    Orbital Energies (a.u.)
 --------------------------------------------------------------
 
 Alpha MOs
 -- Occupied --
-10.178  -0.684  -0.391  -0.391  -0.370
 -- Virtual --
  0.108   0.153   0.177   0.177   0.527   0.527   0.551   0.823
  0.876   0.876   0.902   1.093   1.370   1.370   1.938   2.028
  2.028   2.043   2.064   2.064   2.583   2.583   2.598   2.865
  2.865   3.011   3.330   3.419   3.419   4.409
 
 Beta MOs
 -- Occupied --
-10.178  -0.684  -0.391  -0.391  -0.370
 -- Virtual --
  0.108   0.153   0.177   0.177   0.527   0.527   0.551   0.823
  0.876   0.876   0.902   1.093   1.370   1.370   1.938   2.028
  2.028   2.043   2.064   2.064   2.583   2.583   2.598   2.865
  2.865   3.011   3.330   3.419   3.419   4.409
 --------------------------------------------------------------
 
          Ground-State Mulliken Net Atomic Charges

     Atom                 Charge (a.u.)    Spin (a.u.)
  --------------------------------------------------------
      1 H                     0.095245       0.000000
      2 C                    -0.459235      -0.000000
      3 H                     0.121332       0.000000
      4 H                     0.121325      -0.000000
      5 H                     0.121332      -0.000000
  --------------------------------------------------------
  Sum of atomic charges =     0.000000
  Sum of spin   charges =    -0.000000

 -----------------------------------------------------------------
                    Cartesian Multipole Moments
 -----------------------------------------------------------------
    Charge (ESU x 10^10)
                 0.0000
    Dipole Moment (Debye)
         X      -0.0366      Y      -0.0112      Z      -0.0648
       Tot       0.0753
    Quadrupole Moments (Debye-Ang)
        XX      -8.3086     XY      -0.0028     YY      -8.3003
        XZ      -0.0167     YZ      -0.0050     ZZ      -8.3288
    Octopole Moments (Debye-Ang^2)
       XXX      -0.6879    XXY      -0.0532    XYY       0.3151
       YYY      -0.1662    XXZ       0.3216    XYZ       0.0909
       YYZ      -0.5681    XZZ       0.4708    YZZ       0.2500
       ZZZ       0.4195
    Hexadecapole Moments (Debye-Ang^3)
      XXXX     -15.4636   XXXY       0.0093   XXYY      -5.4675
      XYYY      -0.2416   YYYY     -15.2896   XXXZ      -0.4878
      XXYZ       0.0337   XYYZ      -0.3697   YYYZ      -0.1331
      XXZZ      -5.4025   XYZZ       0.1039   YYZZ      -5.1947
      XZZZ       0.1129   YZZZ      -0.1274   ZZZZ     -16.6337
 -----------------------------------------------------------------
 Calculating analytic gradient of the SCF energy
 Gradient of SCF Energy
            1           2           3           4           5
    1   0.0251583  -0.0251585  -0.0000034  -0.0000008   0.0000045
    2   0.0076624  -0.0076621  -0.0000025   0.0000042  -0.0000020
    3   0.0445201  -0.0445236   0.0000026  -0.0000003   0.0000012
 Max gradient component =       4.452E-02
 RMS gradient           =       1.888E-02
 Gradient time:  CPU 4.67 s  wall 0.61 s
 Geometry Optimization Parameters
   NAtoms,    NIC,     NZ,  NCons,   NDum,   NFix, NCnnct, MaxDiis
        5      20       0       1       0       0       0       0

 Cartesian Hessian Update
 Hessian Updated using BFGS Update


** CONSTRAINED OPTIMIZATION IN DELOCALIZED INTERNAL COORDINATES **
   Searching for a Minimum

   Optimization Cycle:   4

                       Coordinates (Angstroms)
     ATOM                X               Y               Z
      1  H         0.5684799842    0.1731374295    1.0061045875
      2  C        -0.0153360206   -0.0046901408   -0.0271118573
      3  H         0.2004372645    0.8293389909   -0.6962073718
      4  H         0.3309341768   -0.9416937183   -0.4652322689
      5  H        -1.0846154049   -0.0561925614    0.1822469105
   Point Group: c1    Number of degrees of freedom:     9


   Energy is    -40.518142251

              Constraints and their Current Values
                                        Value     Constraint
   Distance(Angs):        1   2             1.200000     1.200000
 Hessian Updated using BFGS Update

  7 Hessian modes will be used to form the next step
  Hessian Eigenvalues:
     0.121725    0.160000    0.160000    0.160000    0.344260    0.346009
     0.346018

 Minimum Search - Taking Simple RFO Step
 Searching for Lamda that Minimizes Along All modes
 Value Taken    Lamda =   0.00000000
 Step Taken.  Stepsize is  0.000021

                             Maximum     Tolerance    Cnvgd?
         Gradient           0.000006      0.000300     YES
         Displacement       0.000018      0.001200     YES
         Energy change     -0.000005      0.000001      NO


                       Distance Matrix (Angstroms)
             H (  1)   C (  2)   H (  3)   H (  4)
   C (  2)  1.200000
   H (  3)  1.861161  1.090803
   H (  4)  1.861212  1.090792  1.790792
   H (  5)  1.861198  1.090799  1.790868  1.790844
 
 Final energy is   -40.5181422514388     


 ******************************
 **  OPTIMIZATION CONVERGED  **
 ******************************

                       Coordinates (Angstroms)
     ATOM                X               Y               Z
      1  H         0.5684799842    0.1731374295    1.0061045875
      2  C        -0.0153360206   -0.0046901408   -0.0271118573
      3  H         0.2004372645    0.8293389909   -0.6962073718
      4  H         0.3309341768   -0.9416937183   -0.4652322689
      5  H        -1.0846154049   -0.0561925614    0.1822469105

Z-matrix Print:
$molecule
0 1
C 
H  1 1.090792
H  1 1.090799 2 110.347744
H  1 1.090803 2 110.342628 3 -122.211934 0
H  1 1.200000 2 108.583287 3 118.897634 0
$end

PES scan, value:    1.2000 energy:  -40.5181422514
------- Summary of potential scan: ------ 
    1.2000       -40.5181422514
----------------------------------------- 
Archival summary:
1\1\hpc0243\JobtypUnspecified\ProcedureUnspecified\6-31G**\14\knomura\MonMar1116:18:262019MonMar1116:18:262019\0\\#,JobtypUnspecified,ProcedureUnspecified,6-31G**,\\0,1\C\H,1,1.09079\H,1,1.0908,2,110.348\H,1,1.0908,2,110.343,3,-122.212,0\H,1,1.2,2,108.583,3,118.898,0\\\@

 Total job time:  12.40s(wall), 98.47s(cpu) 
 Mon Mar 11 16:18:26 2019

        *************************************************************
        *                                                           *
        *  Thank you very much for using Q-Chem.  Have a nice day.  *
        *                                                           *
        *************************************************************


