
Running Job 1 of 1 scan_ch4.xyz.data/inputs/bond_triplet_2.8.in
qchem scan_ch4.xyz.data/inputs/bond_triplet_2.8.in_31932.0 /staging/scratch/2851581/qchem31932/ 1
/usr/usc/qchem/5.1.1/exe/qcprog.exe_s scan_ch4.xyz.data/inputs/bond_triplet_2.8.in_31932.0 /staging/scratch/2851581/qchem31932/
Check license passed

                  Welcome to Q-Chem
     A Quantum Leap Into The Future Of Chemistry


 Q-Chem 5.1, Q-Chem, Inc., Pleasanton, CA (2018)

 Yihan Shao,  Zhengting Gan,  E. Epifanovsky,  A. T. B. Gilbert,  M. Wormit,  
 J. Kussmann,  A. W. Lange,  A. Behn,  Jia Deng,  Xintian Feng,  D. Ghosh,  
 M. Goldey,  P. R. Horn,  L. D. Jacobson,  I. Kaliman,  T. Kus,  A. Landau,  
 Jie Liu,  E. I. Proynov,  R. M. Richard,  R. P. Steele,  E. J. Sundstrom,  
 H. L. Woodcock III,  P. M. Zimmerman,  D. Zuev,  B. Albrecht,  E. Alguire,  
 S. A. Baeppler,  D. Barton,  Z. Benda,  Y. A. Bernard,  E. J. Berquist,  
 K. B. Bravaya,  H. Burton,  D. Casanova,  Chun-Min Chang,  Yunqing Chen,  
 A. Chien,  K. D. Closser,  M. P. Coons,  S. Coriani,  S. Dasgupta,  
 A. L. Dempwolff,  M. Diedenhofen,  Hainam Do,  R. G. Edgar,  Po-Tung Fang,  
 S. Faraji,  S. Fatehi,  Qingguo Feng,  K. D. Fenk,  J. Fosso-Tande,  
 Qinghui Ge,  A. Ghysels,  G. Gidofalvi,  J. Gomes,  J. Gonthier,  A. Gunina,  
 D. Hait,  M. W. D. Hanson-Heine,  P. H. P. Harbach,  A. W. Hauser,  
 J. E. Herr,  E. G. Hohenstein,  Z. C. Holden,  Kerwin Hui,  B. C. Huynh,  
 T.-C. Jagau,  Hyunjun Ji,  B. Kaduk,  K. Khistyaev,  Jaehoon Kim,  
 P. Klunzinger,  K. Koh,  D. Kosenkov,  L. Koulias,  T. Kowalczyk,  
 C. M. Krauter,  A. Kunitsa,  Ka Un Lao,  A. Laurent,  K. V. Lawler,  
 Joonho Lee,  D. Lefrancois,  S. Lehtola,  D. S. Levine,  Yi-Pei Li,  
 You-Sheng Lin,  Fenglai Liu,  E. Livshits,  A. Luenser,  P. Manohar,  
 E. Mansoor,  S. F. Manzer,  Shan-Ping Mao,  Yuezhi Mao,  N. Mardirossian,  
 A. V. Marenich,  T. Markovich,  L. A. Martinez-Martinez,  S. A. Maurer,  
 N. J. Mayhall,  S. C. McKenzie,  J.-M. Mewes,  A. F. Morrison,  
 J. W. Mullinax,  K. Nanda,  T. S. Nguyen-Beck,  R. Olivares-Amaya,  
 J. A. Parkhill,  T. M. Perrine,  F. Plasser,  P. Pokhilko,  S. Prager,  
 A. Prociuk,  E. Ramos,  D. R. Rehn,  F. Rob,  M. Schneider,  N. Sergueev,  
 S. M. Sharada,  S. Sharma,  D. W. Small,  T. Stauch,  T. Stein,  
 Yu-Chuan Su,  A. J. W. Thom,  A. Tkatchenko,  T. Tsuchimochi,  N. M. Tubman,  
 L. Vogt,  M. L. Vidal,  O. Vydrov,  M. A. Watson,  J. Wenzel,  
 M. de Wergifosse,  T. A. Wesolowski,  A. White,  J. Witte,  A. Yamada,  
 Jun Yang,  K. Yao,  S. Yeganeh,  S. R. Yost,  Zhi-Qiang You,  A. Zech,  
 Igor Ying Zhang,  Xing Zhang,  Yan Zhao,  Ying Zhu,  B. R. Brooks,  
 G. K. L. Chan,  C. J. Cramer,  M. S. Gordon,  W. J. Hehre,  A. Klamt,  
 M. W. Schmidt,  C. D. Sherrill,  D. G. Truhlar,  A. Aspuru-Guzik,  R. Baer,  
 A. T. Bell,  N. A. Besley,  Jeng-Da Chai,  A. E. DePrince, III,  
 R. A. DiStasio Jr.,  A. Dreuw,  B. D. Dunietz,  T. R. Furlani,  
 Chao-Ping Hsu,  Yousung Jung,  Jing Kong,  D. S. Lambrecht,  WanZhen Liang,  
 C. Ochsenfeld,  V. A. Rassolov,  L. V. Slipchenko,  J. E. Subotnik,  
 T. Van Voorhis,  J. M. Herbert,  A. I. Krylov,  P. M. W. Gill,  M. Head-Gordon

 Contributors to earlier versions of Q-Chem not listed above: 
 R. D. Adamson,  B. Austin,  J. Baker,  G. J. O. Beran,  K. Brandhorst,  
 S. T. Brown,  E. F. C. Byrd,  A. K. Chakraborty,  C.-L. Cheng,  
 Siu Hung Chien,  D. M. Chipman,  D. L. Crittenden,  H. Dachsel,  
 R. J. Doerksen,  A. D. Dutoi,  L. Fusti-Molnar,  W. A. Goddard III,  
 A. Golubeva-Zadorozhnaya,  S. R. Gwaltney,  G. Hawkins,  A. Heyden,  
 S. Hirata,  G. Kedziora,  F. J. Keil,  C. Kelley,  Jihan Kim,  R. A. King,  
 R. Z. Khaliullin,  P. P. Korambath,  W. Kurlancheek,  A. M. Lee,  M. S. Lee,  
 S. V. Levchenko,  Ching Yeh Lin,  D. Liotard,  R. C. Lochan,  I. Lotan,  
 P. E. Maslen,  N. Nair,  D. P. O'Neill,  D. Neuhauser,  E. Neuscamman,  
 C. M. Oana,  R. Olson,  B. Peters,  R. Peverati,  P. A. Pieniazek,  
 Y. M. Rhee,  J. Ritchie,  M. A. Rohrdanz,  E. Rosta,  N. J. Russ,  
 H. F. Schaefer III,  N. E. Schultz,  N. Shenvi,  A. C. Simmonett,  A. Sodt,  
 D. Stuck,  K. S. Thanthiriwatte,  V. Vanovschi,  Tao Wang,  A. Warshel,  
 C. F. Williams,  Q. Wu,  X. Xu,  W. Zhang

 Please cite Q-Chem as follows:
 Y. Shao et al., Mol. Phys. 113, 184-215 (2015)
 DOI: 10.1080/00268976.2014.952696

 Q-Chem 5.1.1 for Intel X86 EM64T Linux

 Parts of Q-Chem use Armadillo 8.300.2 (Tropical Shenanigans).
 http://arma.sourceforge.net/

 Q-Chem begins on Mon Mar 11 16:26:34 2019  

Host: 
0

     Scratch files written to /staging/scratch/2851581/qchem31932//
 Aug318 |scratch|qcdevops|jenkins|workspace|build_RNUM 6013   
Processing $rem in /usr/usc/qchem/5.1.1/config/preferences.
 MEM_TOTAL  2000 
Input Ideriv = 2
Curr. Ideriv = -1
Max.  Ideriv = 2

Checking the input file for inconsistencies... 	...done.

--------------------------------------------------------------
User input:
--------------------------------------------------------------

$comment
potential surface scanner
$end

$rem
JOBTYPE  PES_SCAN
UNRESTRICTED TRUE
SYM_IGNORE  TRUE
GEOM_OPT_MAX_CYCLES 400
SCF_MAX_CYCLES 400
METHOD   B3LYP
BASIS   6-31G**
PDB_PRINT 2
SCF_CONVERGENCE 6
THRESH 14
SCF_PRINT 1
$end
$molecule
0 3
H 1.116918 0.350036 1.987506
C -0.287424 -0.090016 -0.511330
H 0.130849 0.841278 -0.869873
H 0.251738 -1.016777 -0.656913
H -1.212183 -0.084620 0.050409
$end
$scan
stre 1 2 2.800000 2.801000 0.100000
$end
--------------------------------------------------------------
 ----------------------------------------------------------------
             Standard Nuclear Orientation (Angstroms)
    I     Atom           X                Y                Z
 ----------------------------------------------------------------
    1      H       1.1169180000     0.3500360000     1.9875060000
    2      C      -0.2874240000    -0.0900160000    -0.5113300000
    3      H       0.1308490000     0.8412780000    -0.8698730000
    4      H       0.2517380000    -1.0167770000    -0.6569130000
    5      H      -1.2121830000    -0.0846200000     0.0504090000
 ----------------------------------------------------------------
 Nuclear Repulsion Energy =    11.2616194123 hartrees
 There are        6 alpha and        4 beta electrons
 Requested basis set is 6-31G(d,p)
 There are 16 shells and 35 basis functions

 Total QAlloc Memory Limit   2000 MB
 Mega-Array Size       188 MB
 MEM_STATIC part       192 MB
A total of 1 constraints
  
            1
    1   1.0100000
    2   1.0100000
    3   2.0100000
    4   2.8000000
    5   2.8010000
    6   0.1000000
    7   0.0000000
    8   0.0000000
    9   0.0000000
   10   0.0000000

                       Distance Matrix (Angstroms)
             H (  1)   C (  2)   H (  3)   H (  4)
   C (  2)  2.900001
   H (  3)  3.062395  1.082042
   H (  4)  3.099946  1.082024  1.874122
   H (  5)  3.060389  1.082016  1.872950  1.874109
 
 A cutoff of  1.0D-14 yielded    136 shell pairs
 There are       669 function pairs
 
 -------------------------------------------------------
 OpenMP Integral Computing Module                       
 Release: version 1.0, May 2013, Q-Chem Inc. Pittsburgh 
 -------------------------------------------------------
 Integral Job Info:
 Integral job number is                      11
 Integral operator is                         1
 short-range coefficients                     0
 long-range coefficients              100000000
 Omega coefficients                           0
 if combine SR and LR in K                    0
 Integral screening is                        0
 Integral computing path is                   2
 max size of driver memory is            800000
 size of driver memory is                593474
 size of scratch memory is              2361544
 max col of scratch BK array               1296
 max len of scratch array in speh3          155
 max len of scratch index in speh4           18
 max int batch size is                      520
 min int batch size is                       52
 fixed nKL is                                52
 max L of basis functions is                  2
 order of int derivative is                   0
 number of shells is                         16
 number of basis is                          35
 number of cartesian basis is                35
 number of contracted shell pairs           136
 number of primitive shell pairs            469
 maxK2 (contraction) of shell pair           36
 max number of K2 of shell pair               1
 max number of CS2 of shell pair             16
 max number of PS2 of shell pair             48
 mem total for path MDJ                  507868
 -------------------------------------------------------
 Smallest overlap matrix eigenvalue = 2.73E-02

 Scale SEOQF with 1.000000e+00/1.000000e+00/1.000000e-01

 Standard Electronic Orientation quadrupole field applied
 Nucleus-field energy     =     0.0000000018 hartrees
 Guess from superposition of atomic densities
 Warning:  Energy on first SCF cycle will be non-variational
 SAD guess density has 10.000000 electrons

 -----------------------------------------------------------------------
  General SCF calculation program by
  Eric Jon Sundstrom, Paul Horn, Yuezhi Mao, Dmitri Zuev, Alec White,
  David Stuck, Shaama M.S., Shane Yost, Joonho Lee, David Small,
  Daniel Levine, Susi Lehtola, Hugh Burton, Evgeny Epifanovsky
 -----------------------------------------------------------------------
 Exchange:     0.2000 Hartree-Fock + 0.0800 Slater + 0.7200 B88
 Correlation:  0.1900 VWN1RPA + 0.8100 LYP
 Using SG-1 standard quadrature grid
 using 12 threads for integral computing
 -------------------------------------------------------
 OpenMP Integral computing Module                
 Release: version 1.0, May 2013, Q-Chem Inc. Pittsburgh 
 -------------------------------------------------------
 -------------------------------------------------------
 OpenMP BLAS3 based DFT computing Module                
 Release: version 1.0, May 2013, Q-Chem Inc. Pittsburgh 
 -------------------------------------------------------
 A unrestricted SCF calculation will be
 performed using DIIS
 SCF converges when DIIS error is below 1.0e-06
 Alpha HF Exchange    Energy =  -0.61671028948793
 Beta HF Exchange     Energy =  -0.61671028948793
 DFT Correlation      Energy =  -0.36602281357588
 DFT Exchange         Energy =  -4.95252154086453
 One-Electron (alpha) Energy = -37.13230410498948
 One-Electron (beta)  Energy = -37.13230410498948
 Total Coulomb        Energy =  29.35935482414162
 ---------------------------------------
  Cycle       Energy         DIIS error
 ---------------------------------------
    1     -40.1955989051      3.84e-02  
 Alpha HF Exchange    Energy =  -0.73701752885074
 Beta HF Exchange     Energy =  -0.58767184807393
 DFT Correlation      Energy =  -0.35637604101006
 DFT Exchange         Energy =  -5.23545255598455
 One-Electron (alpha) Energy = -41.56793153638792
 One-Electron (beta)  Energy = -34.59015798914729
 Total Coulomb        Energy =  31.50180838793348
    2     -40.3111796974      6.37e-03  
 Alpha HF Exchange    Energy =  -0.71734117648035
 Beta HF Exchange     Energy =  -0.57236285358351
 DFT Correlation      Energy =  -0.34651272868780
 DFT Exchange         Energy =  -5.09118045496302
 One-Electron (alpha) Energy = -40.75627586452057
 One-Electron (beta)  Energy = -33.89532817382011
 Total Coulomb        Energy =  29.79700353244354
    3     -40.3203783055      5.48e-03  
 Alpha HF Exchange    Energy =  -0.72881794631394
 Beta HF Exchange     Energy =  -0.57888110244082
 DFT Correlation      Energy =  -0.35082499134018
 DFT Exchange         Energy =  -5.16489759029930
 One-Electron (alpha) Energy = -41.19217710482786
 One-Electron (beta)  Energy = -34.19175546709412
 Total Coulomb        Energy =  30.60523152830827
    4     -40.3405032599      2.08e-04  
 Alpha HF Exchange    Energy =  -0.72909768560956
 Beta HF Exchange     Energy =  -0.57860140317980
 DFT Correlation      Energy =  -0.35063303258747
 DFT Exchange         Energy =  -5.16476676032173
 One-Electron (alpha) Energy = -41.20286291135682
 One-Electron (beta)  Energy = -34.16975738416853
 Total Coulomb        Energy =  30.59353943151343
    5     -40.3405603316      5.16e-05  
 Alpha HF Exchange    Energy =  -0.72921691013735
 Beta HF Exchange     Energy =  -0.57848343799285
 DFT Correlation      Energy =  -0.35058427978476
 DFT Exchange         Energy =  -5.16473651785561
 One-Electron (alpha) Energy = -41.20910038667812
 One-Electron (beta)  Energy = -34.16200435942112
 Total Coulomb        Energy =  30.59194110408677
    6     -40.3405653736      8.32e-06  
 Alpha HF Exchange    Energy =  -0.72924742207785
 Beta HF Exchange     Energy =  -0.57847097729981
 DFT Correlation      Energy =  -0.35058073377797
 DFT Exchange         Energy =  -5.16480532346620
 One-Electron (alpha) Energy = -41.21044273441756
 One-Electron (beta)  Energy = -34.16098082849276
 Total Coulomb        Energy =  30.59234310298682
    7     -40.3405655024      9.22e-07  Convergence criterion met
 ---------------------------------------
 SCF time:   CPU 11.63s  wall 1.00s 
<S^2> =          2.003682907
 Alpha HF Exchange    Energy =  -0.72924742207785
 Beta HF Exchange     Energy =  -0.57847097729981
 DFT Correlation      Energy =  -0.35058073377797
 DFT Exchange         Energy =  -5.16480532346620
 One-Electron (alpha) Energy = -41.21044273441756
 One-Electron (beta)  Energy = -34.16098082849276
 Total Coulomb        Energy =  30.59234310298682
 Nuclear repulsion Energy =  11.26161941413706
 SCF   energy in the final basis set =      -40.3405655024
 Total energy in the final basis set =      -40.3405655024
 
 --------------------------------------------------------------
 
                    Orbital Energies (a.u.)
 --------------------------------------------------------------
 
 Alpha MOs
 -- Occupied --
-10.190  -0.681  -0.415  -0.415  -0.315  -0.219
 -- Virtual --
  0.115   0.182   0.182   0.534   0.539   0.540   0.643   0.818
  0.890   0.890   0.951   1.436   1.436   1.913   1.914   1.939
  1.958   1.958   1.992   2.007   2.294   2.558   2.559   2.718
  2.720   3.249   3.457   3.458   4.283
 
 Beta MOs
 -- Occupied --
-10.176  -0.639  -0.405  -0.405
 -- Virtual --
 -0.069  -0.001   0.132   0.187   0.188   0.546   0.547   0.623
  0.703   0.894   0.894   0.965   1.041   1.483   1.483   1.918
  1.919   2.002   2.042   2.218   2.221   2.222   2.312   2.588
  2.589   2.719   2.720   3.256   3.465   3.466   4.320
 --------------------------------------------------------------
 
          Ground-State Mulliken Net Atomic Charges

     Atom                 Charge (a.u.)    Spin (a.u.)
  --------------------------------------------------------
      1 H                     0.000519       0.999102
      2 C                    -0.367001       1.145267
      3 H                     0.122131      -0.048126
      4 H                     0.122227      -0.048116
      5 H                     0.122123      -0.048128
  --------------------------------------------------------
  Sum of atomic charges =    -0.000000
  Sum of spin   charges =     2.000000

 -----------------------------------------------------------------
                    Cartesian Multipole Moments
 -----------------------------------------------------------------
    Charge (ESU x 10^10)
                -0.0000
    Dipole Moment (Debye)
         X       0.0262      Y       0.0068      Z       0.0451
       Tot       0.0526
    Quadrupole Moments (Debye-Ang)
        XX      -8.7201     XY      -0.1162     YY      -8.3211
        XZ      -0.7384     YZ      -0.1966     ZZ      -9.5699
    Octopole Moments (Debye-Ang^2)
       XXX       1.5656    XXY       0.1796    XYY       1.2897
       YYY       0.5544    XXZ       1.8677    XYZ       0.0882
       YYZ       0.6989    XZZ       1.3069    YZZ       0.5169
       ZZZ       4.7798
    Hexadecapole Moments (Debye-Ang^3)
      XXXX     -27.2492   XXXY      -1.8644   XXYY      -7.7518
      XYYY      -2.1183   YYYY     -16.6409   XXXZ     -11.1373
      XXYZ      -1.1717   XYYZ      -3.8797   YYYZ      -3.3673
      XXZZ     -14.2268   XYZZ      -0.7174   YYZZ     -11.5206
      XZZZ     -11.3238   YZZZ      -3.7981   ZZZZ     -55.6838
 -----------------------------------------------------------------
 Calculating analytic gradient of the SCF energy
 Gradient of SCF Energy
            1           2           3           4           5
    1  -0.0018007   0.0019064  -0.0000848   0.0000088  -0.0000298
    2  -0.0005756   0.0004157   0.0000610  -0.0000015   0.0001003
    3  -0.0032215   0.0031873   0.0000239   0.0000337  -0.0000235
 Max gradient component =       3.221E-03
 RMS gradient           =       1.365E-03
 Gradient time:  CPU 4.77 s  wall 0.58 s
 Geometry Optimization Parameters
   NAtoms,    NIC,     NZ,  NCons,   NDum,   NFix, NCnnct, MaxDiis
        5      50       0       1       0       0       0       0


** CONSTRAINED OPTIMIZATION IN DELOCALIZED INTERNAL COORDINATES **
   Searching for a Minimum

   Optimization Cycle:   1

                       Coordinates (Angstroms)
     ATOM                X               Y               Z
      1  H         1.1169180000    0.3500360000    1.9875060000
      2  C        -0.2874240000   -0.0900160000   -0.5113300000
      3  H         0.1308490000    0.8412780000   -0.8698730000
      4  H         0.2517380000   -1.0167770000   -0.6569130000
      5  H        -1.2121830000   -0.0846200000    0.0504090000
   Point Group: c1    Number of degrees of freedom:     9


   Energy is    -40.340565502

              Constraints and their Current Values
                                        Value     Constraint
   Distance(Angs):        1   2             2.900001     2.800000

 Attempting to Generate Delocalized Internal Coordinates

   Using Lagrange Multiplier Algorithm


 10 Hessian modes will be used to form the next step
  Hessian Eigenvalues:
    -0.993592    0.051223    0.053948    0.054071    0.078284    0.078289
     0.304125    0.305384    0.316966    1.006449

 Minimum Search - Taking P-RFO Step
 Searching for Lamda that Maximizes Along the Constraint modes Only
 Value Taken    Lamda =   0.01846108
 Searching for Lamda that Minimizes Along All other modes
 Value Taken    Lamda =  -0.01665671
 Step Taken.  Stepsize is  0.185710

                             Maximum     Tolerance    Cnvgd?
         Gradient            0.188974       0.000300      NO
         Displacement        0.185707       0.001200      NO
         Energy change     *********       0.000001      NO


 New Cartesian Coordinates Obtained by Inverse Iteration

 Displacement from previous Coordinates is:  0.143657
 ----------------------------------------------------------------
             Standard Nuclear Orientation (Angstroms)
    I     Atom           X                Y                Z
 ----------------------------------------------------------------
    1      H       1.0873974719     0.3407380027     1.9349417565
    2      C      -0.2695998019    -0.0840075752    -0.4791487795
    3      H       0.1394352275     0.8532301822    -0.8675132311
    4      H       0.2618934893    -1.0266102841    -0.6519822553
    5      H      -1.2192283868    -0.0834493256     0.0635015094
 ----------------------------------------------------------------
 Nuclear Repulsion Energy =    11.2003060817 hartrees
 There are        6 alpha and        4 beta electrons

                       Distance Matrix (Angstroms)
             H (  1)   C (  2)   H (  3)   H (  4)
   C (  2)  2.801729
   H (  3)  3.002505  1.093870
   H (  4)  3.040275  1.095836  1.896114
   H (  5)  3.000458  1.093739  1.894762  1.896099
 
 Applying Cartesian multipole field
    Component          Value
    ---------          -----
     (2,0,0)        1.00000E-10
     (0,2,0)        2.00000E-10
     (0,0,2)       -3.00000E-11
 Nucleus-field energy     =     0.0000000019 hartrees
 Requested basis set is 6-31G(d,p)
 There are 16 shells and 35 basis functions
 A cutoff of  1.0D-14 yielded    136 shell pairs
 There are       669 function pairs
 Smallest overlap matrix eigenvalue = 2.82E-02
 Guess from superposition of atomic densities
 Warning:  Energy on first SCF cycle will be non-variational
 SAD guess density has 10.000000 electrons

 -----------------------------------------------------------------------
  General SCF calculation program by
  Eric Jon Sundstrom, Paul Horn, Yuezhi Mao, Dmitri Zuev, Alec White,
  David Stuck, Shaama M.S., Shane Yost, Joonho Lee, David Small,
  Daniel Levine, Susi Lehtola, Hugh Burton, Evgeny Epifanovsky
 -----------------------------------------------------------------------
 Exchange:     0.2000 Hartree-Fock + 0.0800 Slater + 0.7200 B88
 Correlation:  0.1900 VWN1RPA + 0.8100 LYP
 Using SG-1 standard quadrature grid
 using 12 threads for integral computing
 -------------------------------------------------------
 OpenMP Integral computing Module                
 Release: version 1.0, May 2013, Q-Chem Inc. Pittsburgh 
 -------------------------------------------------------
 -------------------------------------------------------
 OpenMP BLAS3 based DFT computing Module                
 Release: version 1.0, May 2013, Q-Chem Inc. Pittsburgh 
 -------------------------------------------------------
 A unrestricted SCF calculation will be
 performed using DIIS
 SCF converges when DIIS error is below 1.0e-06
 Alpha HF Exchange    Energy =  -0.61471858759905
 Beta HF Exchange     Energy =  -0.61471858759905
 DFT Correlation      Energy =  -0.36580377307177
 DFT Exchange         Energy =  -4.94796581261415
 One-Electron (alpha) Energy = -37.09045390515668
 One-Electron (beta)  Energy = -37.09045390515668
 Total Coulomb        Energy =  29.34109500441166
 ---------------------------------------
  Cycle       Energy         DIIS error
 ---------------------------------------
    1     -40.1827134832      3.74e-02  
 Alpha HF Exchange    Energy =  -0.73539538562973
 Beta HF Exchange     Energy =  -0.58595804126088
 DFT Correlation      Energy =  -0.35580194954889
 DFT Exchange         Energy =  -5.22340586048405
 One-Electron (alpha) Energy = -41.52825474882042
 One-Electron (beta)  Energy = -34.50724394699911
 Total Coulomb        Energy =  31.42462346806550
    2     -40.3111303811      6.23e-03  
 Alpha HF Exchange    Energy =  -0.71636938411657
 Beta HF Exchange     Energy =  -0.57103523712842
 DFT Correlation      Energy =  -0.34605409601940
 DFT Exchange         Energy =  -5.08309345278829
 One-Electron (alpha) Energy = -40.73399874531227
 One-Electron (beta)  Energy = -33.81884158484071
 Total Coulomb        Energy =  29.74949858246230
    3     -40.3195878342      5.42e-03  
 Alpha HF Exchange    Energy =  -0.72767165229553
 Beta HF Exchange     Energy =  -0.57741001331644
 DFT Correlation      Energy =  -0.35033014577222
 DFT Exchange         Energy =  -5.15560811224381
 One-Electron (alpha) Energy = -41.16639265977755
 One-Electron (beta)  Energy = -34.11284756271152
 Total Coulomb        Energy =  30.55059472157131
    4     -40.3393593410      2.15e-04  
 Alpha HF Exchange    Energy =  -0.72796234383663
 Beta HF Exchange     Energy =  -0.57711311544577
 DFT Correlation      Energy =  -0.35012696607086
 DFT Exchange         Energy =  -5.15544264974744
 One-Electron (alpha) Energy = -41.17753324036107
 One-Electron (beta)  Energy = -34.08958346161779
 Total Coulomb        Energy =  30.53803479289848
    5     -40.3394209006      5.34e-05  
 Alpha HF Exchange    Energy =  -0.72809063627923
 Beta HF Exchange     Energy =  -0.57698951653755
 DFT Correlation      Energy =  -0.35007557960438
 DFT Exchange         Energy =  -5.15542317902406
 One-Electron (alpha) Energy = -41.18420516048705
 One-Electron (beta)  Energy = -34.08139590405391
 Total Coulomb        Energy =  30.53644745230268
    6     -40.3394264401      9.13e-06  
 Alpha HF Exchange    Energy =  -0.72812247444402
 Beta HF Exchange     Energy =  -0.57697608114147
 DFT Correlation      Energy =  -0.35007139861444
 DFT Exchange         Energy =  -5.15549292699758
 One-Electron (alpha) Energy = -41.18561831008173
 One-Electron (beta)  Energy = -34.08028339985633
 Total Coulomb        Energy =  30.53683191632512
    7     -40.3394265913      1.63e-06  
 Alpha HF Exchange    Energy =  -0.72812433847122
 Beta HF Exchange     Energy =  -0.57697435562694
 DFT Correlation      Energy =  -0.35007107443703
 DFT Exchange         Energy =  -5.15549334949550
 One-Electron (alpha) Energy = -41.18571482107433
 One-Electron (beta)  Energy = -34.08019441178877
 Total Coulomb        Energy =  30.53683967346795
    8     -40.3394265939      3.22e-07  Convergence criterion met
 ---------------------------------------
 SCF time:   CPU 13.93s  wall 2.00s 
<S^2> =          2.003855915
 Alpha HF Exchange    Energy =  -0.72812433847122
 Beta HF Exchange     Energy =  -0.57697435562694
 DFT Correlation      Energy =  -0.35007107443703
 DFT Exchange         Energy =  -5.15549334949550
 One-Electron (alpha) Energy = -41.18571482107433
 One-Electron (beta)  Energy = -34.08019441178877
 Total Coulomb        Energy =  30.53683967346795
 Nuclear repulsion Energy =  11.20030608356043
 SCF   energy in the final basis set =      -40.3394265939
 Total energy in the final basis set =      -40.3394265939
 
 --------------------------------------------------------------
 
                    Orbital Energies (a.u.)
 --------------------------------------------------------------
 
 Alpha MOs
 -- Occupied --
-10.194  -0.677  -0.413  -0.412  -0.315  -0.217
 -- Virtual --
  0.110   0.178   0.179   0.539   0.543   0.543   0.642   0.823
  0.882   0.883   0.943   1.437   1.437   1.899   1.901   1.934
  1.960   1.960   1.991   2.005   2.289   2.544   2.546   2.691
  2.691   3.217   3.427   3.429   4.286
 
 Beta MOs
 -- Occupied --
-10.179  -0.636  -0.403  -0.402
 -- Virtual --
 -0.071   0.003   0.127   0.184   0.184   0.550   0.550   0.625
  0.702   0.885   0.886   0.958   1.044   1.484   1.485   1.905
  1.906   2.000   2.031   2.212   2.222   2.222   2.314   2.574
  2.576   2.691   2.691   3.224   3.435   3.436   4.323
 --------------------------------------------------------------
 
          Ground-State Mulliken Net Atomic Charges

     Atom                 Charge (a.u.)    Spin (a.u.)
  --------------------------------------------------------
      1 H                     0.000421       0.999104
      2 C                    -0.365892       1.147164
      3 H                     0.121907      -0.048725
      4 H                     0.121644      -0.048821
      5 H                     0.121920      -0.048722
  --------------------------------------------------------
  Sum of atomic charges =    -0.000000
  Sum of spin   charges =     2.000000

 -----------------------------------------------------------------
                    Cartesian Multipole Moments
 -----------------------------------------------------------------
    Charge (ESU x 10^10)
                -0.0000
    Dipole Moment (Debye)
         X      -0.0072      Y      -0.0018      Z      -0.0124
       Tot       0.0144
    Quadrupole Moments (Debye-Ang)
        XX      -8.7296     XY      -0.1151     YY      -8.3315
        XZ      -0.7420     YZ      -0.1988     ZZ      -9.5838
    Octopole Moments (Debye-Ang^2)
       XXX       1.2842    XXY       0.1436    XYY       1.2393
       YYY       0.4811    XXZ       1.7031    XYZ       0.0734
       YYZ       0.5388    XZZ       1.1525    YZZ       0.4765
       ZZZ       4.2422
    Hexadecapole Moments (Debye-Ang^3)
      XXXX     -26.5647   XXXY      -1.7158   XXYY      -7.6891
      XYYY      -1.9848   YYYY     -16.7997   XXXZ     -10.3565
      XXYZ      -1.0920   XYYZ      -3.6289   YYYZ      -3.1156
      XXZZ     -13.7220   XYZZ      -0.6761   YYZZ     -11.0972
      XZZZ     -10.5639   YZZZ      -3.5773   ZZZZ     -53.1844
 -----------------------------------------------------------------
 Calculating analytic gradient of the SCF energy
 Gradient of SCF Energy
            1           2           3           4           5
    1  -0.0023680   0.0023621   0.0028292   0.0043642  -0.0071876
    2  -0.0007563   0.0020209   0.0068902  -0.0081034  -0.0000515
    3  -0.0042344   0.0056120  -0.0032349  -0.0017742   0.0036316
 Max gradient component =       8.103E-03
 RMS gradient           =       4.351E-03
 Gradient time:  CPU 4.77 s  wall 0.59 s
 Geometry Optimization Parameters
   NAtoms,    NIC,     NZ,  NCons,   NDum,   NFix, NCnnct, MaxDiis
        5      50       0       1       0       0       0       0

 Cartesian Hessian Update
 Hessian Updated using BFGS Update


** CONSTRAINED OPTIMIZATION IN DELOCALIZED INTERNAL COORDINATES **
   Searching for a Minimum

   Optimization Cycle:   2

                       Coordinates (Angstroms)
     ATOM                X               Y               Z
      1  H         1.0873974719    0.3407380027    1.9349417565
      2  C        -0.2695998019   -0.0840075752   -0.4791487795
      3  H         0.1394352275    0.8532301822   -0.8675132311
      4  H         0.2618934893   -1.0266102841   -0.6519822553
      5  H        -1.2192283868   -0.0834493256    0.0635015094
   Point Group: c1    Number of degrees of freedom:     9


   Energy is    -40.339426594

              Constraints and their Current Values
                                        Value     Constraint
   Distance(Angs):        1   2             2.801729     2.800000
 Hessian Updated using BFGS Update

   Using Lagrange Multiplier Algorithm


 10 Hessian modes will be used to form the next step
  Hessian Eigenvalues:
    -0.988956    0.051575    0.053948    0.054073    0.078278    0.078288
     0.304408    0.305386    0.513086    1.018100

 Minimum Search - Taking P-RFO Step
 Searching for Lamda that Maximizes Along the Constraint modes Only
 Value Taken    Lamda =   0.00001396
 Searching for Lamda that Minimizes Along All other modes
 Value Taken    Lamda =  -0.00035476
 Step Taken.  Stepsize is  0.027672

                             Maximum     Tolerance    Cnvgd?
         Gradient            0.013238       0.000300      NO
         Displacement        0.025702       0.001200      NO
         Energy change      0.001139       0.000001      NO


 New Cartesian Coordinates Obtained by Inverse Iteration

 Displacement from previous Coordinates is:  0.023218
 ----------------------------------------------------------------
             Standard Nuclear Orientation (Angstroms)
    I     Atom           X                Y                Z
 ----------------------------------------------------------------
    1      H       1.0866657969     0.3405728612     1.9337201670
    2      C      -0.2693329762    -0.0841563155    -0.4789286934
    3      H       0.1373489106     0.8472976530    -0.8649074294
    4      H       0.2583695809    -1.0201007796    -0.6506198025
    5      H      -1.2131533122    -0.0837124192     0.0605347583
 ----------------------------------------------------------------
 Nuclear Repulsion Energy =    11.2633048789 hartrees
 There are        6 alpha and        4 beta electrons

                       Distance Matrix (Angstroms)
             H (  1)   C (  2)   H (  3)   H (  4)
   C (  2)  2.800000
   H (  3)  2.998381  1.087187
   H (  4)  3.035839  1.088090  1.883545
   H (  5)  2.996333  1.087114  1.883369  1.883599
 
 Applying Cartesian multipole field
    Component          Value
    ---------          -----
     (2,0,0)        1.00000E-10
     (0,2,0)        2.00000E-10
     (0,0,2)       -3.00000E-11
 Nucleus-field energy     =     0.0000000018 hartrees
 Requested basis set is 6-31G(d,p)
 There are 16 shells and 35 basis functions
 A cutoff of  1.0D-14 yielded    136 shell pairs
 There are       669 function pairs
 Smallest overlap matrix eigenvalue = 2.77E-02
 Guess from superposition of atomic densities
 Warning:  Energy on first SCF cycle will be non-variational
 SAD guess density has 10.000000 electrons

 -----------------------------------------------------------------------
  General SCF calculation program by
  Eric Jon Sundstrom, Paul Horn, Yuezhi Mao, Dmitri Zuev, Alec White,
  David Stuck, Shaama M.S., Shane Yost, Joonho Lee, David Small,
  Daniel Levine, Susi Lehtola, Hugh Burton, Evgeny Epifanovsky
 -----------------------------------------------------------------------
 Exchange:     0.2000 Hartree-Fock + 0.0800 Slater + 0.7200 B88
 Correlation:  0.1900 VWN1RPA + 0.8100 LYP
 Using SG-1 standard quadrature grid
 using 12 threads for integral computing
 -------------------------------------------------------
 OpenMP Integral computing Module                
 Release: version 1.0, May 2013, Q-Chem Inc. Pittsburgh 
 -------------------------------------------------------
 -------------------------------------------------------
 OpenMP BLAS3 based DFT computing Module                
 Release: version 1.0, May 2013, Q-Chem Inc. Pittsburgh 
 -------------------------------------------------------
 A unrestricted SCF calculation will be
 performed using DIIS
 SCF converges when DIIS error is below 1.0e-06
 Alpha HF Exchange    Energy =  -0.61589245414269
 Beta HF Exchange     Energy =  -0.61589245414269
 DFT Correlation      Energy =  -0.36606169271117
 DFT Exchange         Energy =  -4.95061154421955
 One-Electron (alpha) Energy = -37.14261590263560
 One-Electron (beta)  Energy = -37.14261590263560
 Total Coulomb        Energy =  29.37994772264929
 ---------------------------------------
  Cycle       Energy         DIIS error
 ---------------------------------------
    1     -40.1904373471      3.79e-02  
 Alpha HF Exchange    Energy =  -0.73647595775439
 Beta HF Exchange     Energy =  -0.58691024814770
 DFT Correlation      Energy =  -0.35620658885531
 DFT Exchange         Energy =  -5.23078629238806
 One-Electron (alpha) Energy = -41.59711011435775
 One-Electron (beta)  Energy = -34.56601183449094
 Total Coulomb        Energy =  31.49950573029368
    2     -40.3106904250      6.31e-03  
 Alpha HF Exchange    Energy =  -0.71706957675418
 Beta HF Exchange     Energy =  -0.57174861885043
 DFT Correlation      Energy =  -0.34638273293300
 DFT Exchange         Energy =  -5.08809418132172
 One-Electron (alpha) Energy = -40.79204795884056
 One-Electron (beta)  Energy = -33.87262303718028
 Total Coulomb        Energy =  29.80507818106900
    3     -40.3195830441      5.46e-03  
 Alpha HF Exchange    Energy =  -0.72847139373850
 Beta HF Exchange     Energy =  -0.57821085191266
 DFT Correlation      Energy =  -0.35067980208323
 DFT Exchange         Energy =  -5.16131404405240
 One-Electron (alpha) Energy = -41.22704137342061
 One-Electron (beta)  Energy = -34.16844666220168
 Total Coulomb        Energy =  30.61126654574345
    4     -40.3395927009      2.12e-04  
 Alpha HF Exchange    Energy =  -0.72875766267757
 Beta HF Exchange     Energy =  -0.57792347994700
 DFT Correlation      Energy =  -0.35048236667712
 DFT Exchange         Energy =  -5.16117360469673
 One-Electron (alpha) Energy = -41.23800111116191
 One-Electron (beta)  Energy = -34.14582315012037
 Total Coulomb        Energy =  30.59920460981551
    5     -40.3396518847      5.25e-05  
 Alpha HF Exchange    Energy =  -0.72888103871914
 Beta HF Exchange     Energy =  -0.57780297627048
 DFT Correlation      Energy =  -0.35043252761559
 DFT Exchange         Energy =  -5.16114859493315
 One-Electron (alpha) Energy = -41.24443758886428
 One-Electron (beta)  Energy = -34.13787915421423
 Total Coulomb        Energy =  30.59761985214713
    6     -40.3396571477      8.94e-06  
 Alpha HF Exchange    Energy =  -0.72891186320185
 Beta HF Exchange     Energy =  -0.57779000005820
 DFT Correlation      Energy =  -0.35042857188991
 DFT Exchange         Energy =  -5.16121626678839
 One-Electron (alpha) Energy = -41.24580133974461
 One-Electron (beta)  Energy = -34.13680834525904
 Total Coulomb        Energy =  30.59799421613367
    7     -40.3396572901      1.64e-06  
 Alpha HF Exchange    Energy =  -0.72891373514559
 Beta HF Exchange     Energy =  -0.57778830728525
 DFT Correlation      Energy =  -0.35042826731561
 DFT Exchange         Energy =  -5.16121686181240
 One-Electron (alpha) Energy = -41.24589675079680
 One-Electron (beta)  Energy = -34.13672135922541
 Total Coulomb        Energy =  30.59800310818189
    8     -40.3396572927      3.14e-07  Convergence criterion met
 ---------------------------------------
 SCF time:   CPU 13.60s  wall 1.00s 
<S^2> =          2.003770372
 Alpha HF Exchange    Energy =  -0.72891373514559
 Beta HF Exchange     Energy =  -0.57778830728525
 DFT Correlation      Energy =  -0.35042826731561
 DFT Exchange         Energy =  -5.16121686181240
 One-Electron (alpha) Energy = -41.24589675079680
 One-Electron (beta)  Energy = -34.13672135922541
 Total Coulomb        Energy =  30.59800310818189
 Nuclear repulsion Energy =  11.26330488073900
 SCF   energy in the final basis set =      -40.3396572927
 Total energy in the final basis set =      -40.3396572927
 
 --------------------------------------------------------------
 
                    Orbital Energies (a.u.)
 --------------------------------------------------------------
 
 Alpha MOs
 -- Occupied --
-10.192  -0.679  -0.414  -0.414  -0.315  -0.217
 -- Virtual --
  0.113   0.181   0.181   0.539   0.541   0.541   0.642   0.824
  0.887   0.887   0.948   1.437   1.437   1.906   1.907   1.939
  1.960   1.960   1.994   2.006   2.293   2.553   2.555   2.706
  2.706   3.236   3.445   3.445   4.286
 
 Beta MOs
 -- Occupied --
-10.177  -0.638  -0.404  -0.404
 -- Virtual --
 -0.072   0.003   0.130   0.186   0.186   0.548   0.548   0.626
  0.703   0.890   0.890   0.962   1.044   1.484   1.484   1.912
  1.912   2.001   2.038   2.214   2.222   2.222   2.318   2.583
  2.584   2.706   2.706   3.242   3.453   3.453   4.323
 --------------------------------------------------------------
 
          Ground-State Mulliken Net Atomic Charges

     Atom                 Charge (a.u.)    Spin (a.u.)
  --------------------------------------------------------
      1 H                     0.000432       0.999102
      2 C                    -0.366680       1.146066
      3 H                     0.122123      -0.048375
      4 H                     0.121998      -0.048418
      5 H                     0.122128      -0.048375
  --------------------------------------------------------
  Sum of atomic charges =    -0.000000
  Sum of spin   charges =     2.000000

 -----------------------------------------------------------------
                    Cartesian Multipole Moments
 -----------------------------------------------------------------
    Charge (ESU x 10^10)
                 0.0000
    Dipole Moment (Debye)
         X      -0.0068      Y      -0.0022      Z      -0.0121
       Tot       0.0140
    Quadrupole Moments (Debye-Ang)
        XX      -8.7193     XY      -0.1132     YY      -8.3256
        XZ      -0.7352     YZ      -0.1970     ZZ      -9.5650
    Octopole Moments (Debye-Ang^2)
       XXX       1.2873    XXY       0.1440    XYY       1.2202
       YYY       0.4806    XXZ       1.6861    XYZ       0.0723
       YYZ       0.5452    XZZ       1.1434    YZZ       0.4705
       ZZZ       4.2101
    Hexadecapole Moments (Debye-Ang^3)
      XXXX     -26.4399   XXXY      -1.7209   XXYY      -7.6337
      XYYY      -1.9816   YYYY     -16.6614   XXXZ     -10.3522
      XXYZ      -1.0930   XYYZ      -3.6211   YYYZ      -3.1162
      XXZZ     -13.6718   XYZZ      -0.6784   YYZZ     -11.0579
      XZZZ     -10.5691   YZZZ      -3.5723   ZZZZ     -53.0379
 -----------------------------------------------------------------
 Calculating analytic gradient of the SCF energy
 Gradient of SCF Energy
            1           2           3           4           5
    1  -0.0023786   0.0026854   0.0011688   0.0018496  -0.0033252
    2  -0.0007603   0.0014780   0.0030206  -0.0036506  -0.0000877
    3  -0.0042543   0.0054779  -0.0016651  -0.0009713   0.0014128
 Max gradient component =       5.478E-03
 RMS gradient           =       2.680E-03
 Gradient time:  CPU 4.76 s  wall 0.60 s
 Geometry Optimization Parameters
   NAtoms,    NIC,     NZ,  NCons,   NDum,   NFix, NCnnct, MaxDiis
        5      50       0       1       0       0       0       0

 Cartesian Hessian Update
 Hessian Updated using BFGS Update


** CONSTRAINED OPTIMIZATION IN DELOCALIZED INTERNAL COORDINATES **
   Searching for a Minimum

   Optimization Cycle:   3

                       Coordinates (Angstroms)
     ATOM                X               Y               Z
      1  H         1.0866657969    0.3405728612    1.9337201670
      2  C        -0.2693329762   -0.0841563155   -0.4789286934
      3  H         0.1373489106    0.8472976530   -0.8649074294
      4  H         0.2583695809   -1.0201007796   -0.6506198025
      5  H        -1.2131533122   -0.0837124192    0.0605347583
   Point Group: c1    Number of degrees of freedom:     9


   Energy is    -40.339657293

              Constraints and their Current Values
                                        Value     Constraint
   Distance(Angs):        1   2             2.800000     2.800000
 Hessian Updated using BFGS Update

  8 Hessian modes will be used to form the next step
  Hessian Eigenvalues:
     0.049949    0.053948    0.054074    0.078286    0.078289    0.297348
     0.305257    0.305414

 Minimum Search - Taking Simple RFO Step
 Searching for Lamda that Minimizes Along All modes
 Value Taken    Lamda =  -0.00012853
 Step Taken.  Stepsize is  0.025662

                             Maximum     Tolerance    Cnvgd?
         Gradient           0.005850      0.000300      NO
         Displacement       0.019885      0.001200      NO
         Energy change     -0.000231      0.000001      NO


 New Cartesian Coordinates Obtained by Inverse Iteration

 Displacement from previous Coordinates is:  0.019187
 ----------------------------------------------------------------
             Standard Nuclear Orientation (Angstroms)
    I     Atom           X                Y                Z
 ----------------------------------------------------------------
    1      H       1.0859849321     0.3404997986     1.9326736800
    2      C      -0.2697961034    -0.0845617485    -0.4800390121
    3      H       0.1358662779     0.8425670265    -0.8622403560
    4      H       0.2557237524    -1.0148355467    -0.6492056738
    5      H      -1.2078808590    -0.0837685299     0.0586103619
 ----------------------------------------------------------------
 Nuclear Repulsion Energy =    11.3147088764 hartrees
 There are        6 alpha and        4 beta electrons

                       Distance Matrix (Angstroms)
             H (  1)   C (  2)   H (  3)   H (  4)
   C (  2)  2.800000
   H (  3)  2.994385  1.081761
   H (  4)  3.031892  1.081757  1.873418
   H (  5)  2.992313  1.081733  1.873958  1.873507
 
 Applying Cartesian multipole field
    Component          Value
    ---------          -----
     (2,0,0)        1.00000E-10
     (0,2,0)        2.00000E-10
     (0,0,2)       -3.00000E-11
 Nucleus-field energy     =     0.0000000018 hartrees
 Requested basis set is 6-31G(d,p)
 There are 16 shells and 35 basis functions
 A cutoff of  1.0D-14 yielded    136 shell pairs
 There are       669 function pairs
 Smallest overlap matrix eigenvalue = 2.72E-02
 Guess from superposition of atomic densities
 Warning:  Energy on first SCF cycle will be non-variational
 SAD guess density has 10.000000 electrons

 -----------------------------------------------------------------------
  General SCF calculation program by
  Eric Jon Sundstrom, Paul Horn, Yuezhi Mao, Dmitri Zuev, Alec White,
  David Stuck, Shaama M.S., Shane Yost, Joonho Lee, David Small,
  Daniel Levine, Susi Lehtola, Hugh Burton, Evgeny Epifanovsky
 -----------------------------------------------------------------------
 Exchange:     0.2000 Hartree-Fock + 0.0800 Slater + 0.7200 B88
 Correlation:  0.1900 VWN1RPA + 0.8100 LYP
 Using SG-1 standard quadrature grid
 using 12 threads for integral computing
 -------------------------------------------------------
 OpenMP Integral computing Module                
 Release: version 1.0, May 2013, Q-Chem Inc. Pittsburgh 
 -------------------------------------------------------
 -------------------------------------------------------
 OpenMP BLAS3 based DFT computing Module                
 Release: version 1.0, May 2013, Q-Chem Inc. Pittsburgh 
 -------------------------------------------------------
 A unrestricted SCF calculation will be
 performed using DIIS
 SCF converges when DIIS error is below 1.0e-06
 Alpha HF Exchange    Energy =  -0.61685606569756
 Beta HF Exchange     Energy =  -0.61685606569756
 DFT Correlation      Energy =  -0.36626988780051
 DFT Exchange         Energy =  -4.95278236925674
 One-Electron (alpha) Energy = -37.18494610141111
 One-Electron (beta)  Energy = -37.18494610141111
 Total Coulomb        Energy =  29.41125121975336
 ---------------------------------------
  Cycle       Energy         DIIS error
 ---------------------------------------
    1     -40.1966964933      3.84e-02  
 Alpha HF Exchange    Energy =  -0.73735952184667
 Beta HF Exchange     Energy =  -0.58769275928920
 DFT Correlation      Energy =  -0.35653734994082
 DFT Exchange         Energy =  -5.23684196894781
 One-Electron (alpha) Energy = -41.65284566617535
 One-Electron (beta)  Energy = -34.61410752538700
 Total Coulomb        Energy =  31.56048340377265
    2     -40.3101925096      6.38e-03  
 Alpha HF Exchange    Energy =  -0.71763916711018
 Beta HF Exchange     Energy =  -0.57233342857812
 DFT Correlation      Energy =  -0.34665115610863
 DFT Exchange         Energy =  -5.09218570677302
 One-Electron (alpha) Energy = -40.83887559610550
 One-Electron (beta)  Energy = -33.91662787010125
 Total Coulomb        Energy =  29.85015258086109
    3     -40.3194514657      5.50e-03  
 Alpha HF Exchange    Energy =  -0.72912386942327
 Beta HF Exchange     Energy =  -0.57886817196457
 DFT Correlation      Energy =  -0.35096557405229
 DFT Exchange         Energy =  -5.16599110497378
 One-Electron (alpha) Energy = -41.27601595081774
 One-Electron (beta)  Energy = -34.21394727188555
 Total Coulomb        Energy =  30.66054421359949
    4     -40.3396588513      2.09e-04  
 Alpha HF Exchange    Energy =  -0.72940658250117
 Beta HF Exchange     Energy =  -0.57858846064684
 DFT Correlation      Energy =  -0.35077280797358
 DFT Exchange         Energy =  -5.16587074028745
 One-Electron (alpha) Energy = -41.28683005896693
 One-Electron (beta)  Energy = -34.19184275385533
 Total Coulomb        Energy =  30.64888637935298
    5     -40.3397161466      5.17e-05  
 Alpha HF Exchange    Energy =  -0.72952609074692
 Beta HF Exchange     Energy =  -0.57847040841089
 DFT Correlation      Energy =  -0.35072417698772
 DFT Exchange         Energy =  -5.16584141747952
 One-Electron (alpha) Energy = -41.29308101891811
 One-Electron (beta)  Energy = -34.18408978524035
 Total Coulomb        Energy =  30.64730282515576
    6     -40.3397211944      8.74e-06  
 Alpha HF Exchange    Energy =  -0.72955618528335
 Beta HF Exchange     Energy =  -0.57845779630816
 DFT Correlation      Energy =  -0.35072041730859
 DFT Exchange         Energy =  -5.16590774642061
 One-Electron (alpha) Energy = -41.29440841352174
 One-Electron (beta)  Energy = -34.18305221483874
 Total Coulomb        Energy =  30.64767256631547
    7     -40.3397213291      1.57e-06  
 Alpha HF Exchange    Energy =  -0.72955795408870
 Beta HF Exchange     Energy =  -0.57845614887541
 DFT Correlation      Energy =  -0.35072012868541
 DFT Exchange         Energy =  -5.16590812434622
 One-Electron (alpha) Energy = -41.29449848391246
 One-Electron (beta)  Energy = -34.18296909126434
 Total Coulomb        Energy =  30.64767972144737
    8     -40.3397213315      3.09e-07  Convergence criterion met
 ---------------------------------------
 SCF time:   CPU 13.67s  wall 1.00s 
<S^2> =          2.003702678
 Alpha HF Exchange    Energy =  -0.72955795408870
 Beta HF Exchange     Energy =  -0.57845614887541
 DFT Correlation      Energy =  -0.35072012868541
 DFT Exchange         Energy =  -5.16590812434622
 One-Electron (alpha) Energy = -41.29449848391246
 One-Electron (beta)  Energy = -34.18296909126434
 Total Coulomb        Energy =  30.64767972144737
 Nuclear repulsion Energy =  11.31470887825148
 SCF   energy in the final basis set =      -40.3397213315
 Total energy in the final basis set =      -40.3397213315
 
 --------------------------------------------------------------
 
                    Orbital Energies (a.u.)
 --------------------------------------------------------------
 
 Alpha MOs
 -- Occupied --
-10.190  -0.681  -0.415  -0.415  -0.315  -0.217
 -- Virtual --
  0.115   0.182   0.182   0.539   0.539   0.539   0.642   0.825
  0.890   0.891   0.951   1.436   1.436   1.912   1.912   1.942
  1.960   1.960   1.997   2.007   2.297   2.561   2.561   2.718
  2.718   3.251   3.459   3.459   4.286
 
 Beta MOs
 -- Occupied --
-10.176  -0.639  -0.405  -0.405
 -- Virtual --
 -0.072   0.003   0.132   0.188   0.188   0.546   0.546   0.626
  0.704   0.894   0.894   0.967   1.045   1.483   1.483   1.918
  1.918   2.002   2.043   2.215   2.222   2.222   2.321   2.591
  2.591   2.718   2.718   3.257   3.467   3.467   4.323
 --------------------------------------------------------------
 
          Ground-State Mulliken Net Atomic Charges

     Atom                 Charge (a.u.)    Spin (a.u.)
  --------------------------------------------------------
      1 H                     0.000444       0.999097
      2 C                    -0.367250       1.145216
      3 H                     0.122269      -0.048103
      4 H                     0.122271      -0.048104
      5 H                     0.122267      -0.048105
  --------------------------------------------------------
  Sum of atomic charges =    -0.000000
  Sum of spin   charges =     2.000000

 -----------------------------------------------------------------
                    Cartesian Multipole Moments
 -----------------------------------------------------------------
    Charge (ESU x 10^10)
                -0.0000
    Dipole Moment (Debye)
         X      -0.0042      Y      -0.0018      Z      -0.0081
       Tot       0.0093
    Quadrupole Moments (Debye-Ang)
        XX      -8.7119     XY      -0.1122     YY      -8.3203
        XZ      -0.7314     YZ      -0.1956     ZZ      -9.5526
    Octopole Moments (Debye-Ang^2)
       XXX       1.3040    XXY       0.1464    XYY       1.2093
       YYY       0.4848    XXZ       1.6816    XYZ       0.0720
       YYZ       0.5582    XZZ       1.1423    YZZ       0.4675
       ZZZ       4.2121
    Hexadecapole Moments (Debye-Ang^3)
      XXXX     -26.3519   XXXY      -1.7281   XXYY      -7.5903
      XYYY      -1.9813   YYYY     -16.5510   XXXZ     -10.3592
      XXYZ      -1.0953   XYYZ      -3.6180   YYYZ      -3.1218
      XXZZ     -13.6381   XYZZ      -0.6809   YYZZ     -11.0345
      XZZZ     -10.5824   YZZZ      -3.5718   ZZZZ     -52.9580
 -----------------------------------------------------------------
 Calculating analytic gradient of the SCF energy
 Gradient of SCF Energy
            1           2           3           4           5
    1  -0.0023761   0.0029527  -0.0002331  -0.0002746  -0.0000690
    2  -0.0007603   0.0009338  -0.0002149   0.0001338  -0.0000924
    3  -0.0042508   0.0052678  -0.0003163  -0.0002667  -0.0004339
 Max gradient component =       5.268E-03
 RMS gradient           =       2.036E-03
 Gradient time:  CPU 4.78 s  wall 0.59 s
 Geometry Optimization Parameters
   NAtoms,    NIC,     NZ,  NCons,   NDum,   NFix, NCnnct, MaxDiis
        5      50       0       1       0       0       0       0

 Cartesian Hessian Update
 Hessian Updated using BFGS Update


** CONSTRAINED OPTIMIZATION IN DELOCALIZED INTERNAL COORDINATES **
   Searching for a Minimum

   Optimization Cycle:   4

                       Coordinates (Angstroms)
     ATOM                X               Y               Z
      1  H         1.0859849321    0.3404997986    1.9326736800
      2  C        -0.2697961034   -0.0845617485   -0.4800390121
      3  H         0.1358662779    0.8425670265   -0.8622403560
      4  H         0.2557237524   -1.0148355467   -0.6492056738
      5  H        -1.2078808590   -0.0837685299    0.0586103619
   Point Group: c1    Number of degrees of freedom:     9


   Energy is    -40.339721331

              Constraints and their Current Values
                                        Value     Constraint
   Distance(Angs):        1   2             2.800000     2.800000
 Hessian Updated using BFGS Update

  8 Hessian modes will be used to form the next step
  Hessian Eigenvalues:
     0.045170    0.053948    0.054074    0.078267    0.078288    0.304256
     0.305386    0.333071

 Minimum Search - Taking Simple RFO Step
 Searching for Lamda that Minimizes Along All modes
 Value Taken    Lamda =  -0.00000349
 Step Taken.  Stepsize is  0.008222

                             Maximum     Tolerance    Cnvgd?
         Gradient           0.000396      0.000300      NO
         Displacement       0.008165      0.001200      NO
         Energy change     -0.000064      0.000001      NO


 New Cartesian Coordinates Obtained by Inverse Iteration

 Displacement from previous Coordinates is:  0.003187
 ----------------------------------------------------------------
             Standard Nuclear Orientation (Angstroms)
    I     Atom           X                Y                Z
 ----------------------------------------------------------------
    1      H       1.0854902127     0.3404431524     1.9319050852
    2      C      -0.2702178349    -0.0847279356    -0.4808293191
    3      H       0.1361707092     0.8427062867    -0.8616410947
    4      H       0.2560046228    -1.0148972825    -0.6488503439
    5      H      -1.2075497099    -0.0836232210     0.0592146726
 ----------------------------------------------------------------
 Nuclear Repulsion Energy =    11.3144726079 hartrees
 There are        6 alpha and        4 beta electrons

                       Distance Matrix (Angstroms)
             H (  1)   C (  2)   H (  3)   H (  4)
   C (  2)  2.800000
   H (  3)  2.992888  1.081806
   H (  4)  3.030725  1.081830  1.873588
   H (  5)  2.990791  1.081776  1.873939  1.873665
 
 Applying Cartesian multipole field
    Component          Value
    ---------          -----
     (2,0,0)        1.00000E-10
     (0,2,0)        2.00000E-10
     (0,0,2)       -3.00000E-11
 Nucleus-field energy     =     0.0000000018 hartrees
 Requested basis set is 6-31G(d,p)
 There are 16 shells and 35 basis functions
 A cutoff of  1.0D-14 yielded    136 shell pairs
 There are       669 function pairs
 Smallest overlap matrix eigenvalue = 2.72E-02
 Guess from superposition of atomic densities
 Warning:  Energy on first SCF cycle will be non-variational
 SAD guess density has 10.000000 electrons

 -----------------------------------------------------------------------
  General SCF calculation program by
  Eric Jon Sundstrom, Paul Horn, Yuezhi Mao, Dmitri Zuev, Alec White,
  David Stuck, Shaama M.S., Shane Yost, Joonho Lee, David Small,
  Daniel Levine, Susi Lehtola, Hugh Burton, Evgeny Epifanovsky
 -----------------------------------------------------------------------
 Exchange:     0.2000 Hartree-Fock + 0.0800 Slater + 0.7200 B88
 Correlation:  0.1900 VWN1RPA + 0.8100 LYP
 Using SG-1 standard quadrature grid
 using 12 threads for integral computing
 -------------------------------------------------------
 OpenMP Integral computing Module                
 Release: version 1.0, May 2013, Q-Chem Inc. Pittsburgh 
 -------------------------------------------------------
 -------------------------------------------------------
 OpenMP BLAS3 based DFT computing Module                
 Release: version 1.0, May 2013, Q-Chem Inc. Pittsburgh 
 -------------------------------------------------------
 A unrestricted SCF calculation will be
 performed using DIIS
 SCF converges when DIIS error is below 1.0e-06
 Alpha HF Exchange    Energy =  -0.61684743734459
 Beta HF Exchange     Energy =  -0.61684743734459
 DFT Correlation      Energy =  -0.36626936833830
 DFT Exchange         Energy =  -4.95276200380390
 One-Electron (alpha) Energy = -37.18479593429858
 One-Electron (beta)  Energy = -37.18479593429858
 Total Coulomb        Energy =  29.41120457384489
 ---------------------------------------
  Cycle       Energy         DIIS error
 ---------------------------------------
    1     -40.1966409318      3.84e-02  
 Alpha HF Exchange    Energy =  -0.73735008396671
 Beta HF Exchange     Energy =  -0.58768523002256
 DFT Correlation      Energy =  -0.35653553267513
 DFT Exchange         Energy =  -5.23678012901847
 One-Electron (alpha) Energy = -41.65264002435183
 One-Electron (beta)  Energy = -34.61378195772937
 Total Coulomb        Energy =  31.56010003484197
    2     -40.3102003132      6.38e-03  
 Alpha HF Exchange    Energy =  -0.71763318044985
 Beta HF Exchange     Energy =  -0.57232748895465
 DFT Correlation      Energy =  -0.34665004583468
 DFT Exchange         Energy =  -5.09214293132301
 One-Electron (alpha) Energy = -40.83875157480416
 One-Electron (beta)  Energy = -33.91635441252639
 Total Coulomb        Energy =  29.84993067123833
    3     -40.3194563529      5.50e-03  
 Alpha HF Exchange    Energy =  -0.72911722511634
 Beta HF Exchange     Energy =  -0.57886167764890
 DFT Correlation      Energy =  -0.35096423669395
 DFT Exchange         Energy =  -5.16594383752563
 One-Electron (alpha) Energy = -41.27587088087540
 One-Electron (beta)  Energy = -34.21365645818882
 Total Coulomb        Energy =  30.66027946984952
    4     -40.3396622364      2.09e-04  
 Alpha HF Exchange    Energy =  -0.72939999237695
 Beta HF Exchange     Energy =  -0.57858187169756
 DFT Correlation      Energy =  -0.35077145586051
 DFT Exchange         Energy =  -5.16582327194002
 One-Electron (alpha) Energy = -41.28668651623707
 One-Electron (beta)  Energy = -34.19154885009990
 Total Coulomb        Energy =  30.64861979918003
    5     -40.3397195493      5.17e-05  
 Alpha HF Exchange    Energy =  -0.72951956347858
 Beta HF Exchange     Energy =  -0.57846376905895
 DFT Correlation      Energy =  -0.35072280073152
 DFT Exchange         Energy =  -5.16579396981541
 One-Electron (alpha) Energy = -41.29294007078677
 One-Electron (beta)  Energy = -34.18379215768483
 Total Coulomb        Energy =  30.64703512218377
    6     -40.3397245996      8.70e-06  
 Alpha HF Exchange    Energy =  -0.72954972241732
 Beta HF Exchange     Energy =  -0.57845115317632
 DFT Correlation      Energy =  -0.35071905230762
 DFT Exchange         Energy =  -5.16586054562747
 One-Electron (alpha) Energy = -41.29426997608451
 One-Electron (beta)  Energy = -34.18275431336335
 Total Coulomb        Energy =  30.64740741930347
    7     -40.3397247339      1.51e-06  
 Alpha HF Exchange    Energy =  -0.72955141635490
 Beta HF Exchange     Energy =  -0.57844951711599
 DFT Correlation      Energy =  -0.35071876356461
 DFT Exchange         Energy =  -5.16586067400796
 One-Electron (alpha) Energy = -41.29435701845760
 One-Electron (beta)  Energy = -34.18267267443230
 Total Coulomb        Energy =  30.64741271804502
    8     -40.3397247361      3.09e-07  Convergence criterion met
 ---------------------------------------
 SCF time:   CPU 13.31s  wall 1.00s 
<S^2> =          2.003703633
 Alpha HF Exchange    Energy =  -0.72955141635490
 Beta HF Exchange     Energy =  -0.57844951711599
 DFT Correlation      Energy =  -0.35071876356461
 DFT Exchange         Energy =  -5.16586067400796
 One-Electron (alpha) Energy = -41.29435701845760
 One-Electron (beta)  Energy = -34.18267267443230
 Total Coulomb        Energy =  30.64741271804502
 Nuclear repulsion Energy =  11.31447260975709
 SCF   energy in the final basis set =      -40.3397247361
 Total energy in the final basis set =      -40.3397247361
 
 --------------------------------------------------------------
 
                    Orbital Energies (a.u.)
 --------------------------------------------------------------
 
 Alpha MOs
 -- Occupied --
-10.190  -0.681  -0.415  -0.415  -0.315  -0.217
 -- Virtual --
  0.115   0.182   0.182   0.539   0.539   0.539   0.642   0.825
  0.890   0.890   0.951   1.436   1.436   1.912   1.912   1.942
  1.960   1.960   1.998   2.007   2.297   2.561   2.561   2.717
  2.718   3.251   3.459   3.459   4.286
 
 Beta MOs
 -- Occupied --
-10.176  -0.639  -0.405  -0.405
 -- Virtual --
 -0.072   0.003   0.132   0.188   0.188   0.546   0.546   0.626
  0.704   0.894   0.894   0.967   1.044   1.483   1.483   1.918
  1.918   2.002   2.043   2.215   2.222   2.222   2.321   2.591
  2.591   2.718   2.718   3.257   3.467   3.467   4.323
 --------------------------------------------------------------
 
          Ground-State Mulliken Net Atomic Charges

     Atom                 Charge (a.u.)    Spin (a.u.)
  --------------------------------------------------------
      1 H                     0.000445       0.999094
      2 C                    -0.367244       1.145245
      3 H                     0.122264      -0.048112
      4 H                     0.122273      -0.048114
      5 H                     0.122262      -0.048113
  --------------------------------------------------------
  Sum of atomic charges =     0.000000
  Sum of spin   charges =     2.000000

 -----------------------------------------------------------------
                    Cartesian Multipole Moments
 -----------------------------------------------------------------
    Charge (ESU x 10^10)
                 0.0000
    Dipole Moment (Debye)
         X      -0.0026      Y      -0.0013      Z      -0.0052
       Tot       0.0060
    Quadrupole Moments (Debye-Ang)
        XX      -8.7131     XY      -0.1127     YY      -8.3202
        XZ      -0.7329     YZ      -0.1958     ZZ      -9.5554
    Octopole Moments (Debye-Ang^2)
       XXX       1.3142    XXY       0.1477    XYY       1.2127
       YYY       0.4879    XXZ       1.6880    XYZ       0.0722
       YYZ       0.5639    XZZ       1.1462    YZZ       0.4685
       ZZZ       4.2311
    Hexadecapole Moments (Debye-Ang^3)
      XXXX     -26.3538   XXXY      -1.7289   XXYY      -7.5900
      XYYY      -1.9816   YYYY     -16.5529   XXXZ     -10.3593
      XXYZ      -1.0958   XYYZ      -3.6178   YYYZ      -3.1234
      XXZZ     -13.6376   XYZZ      -0.6810   YYZZ     -11.0366
      XZZZ     -10.5816   YZZZ      -3.5725   ZZZZ     -52.9610
 -----------------------------------------------------------------
 Calculating analytic gradient of the SCF energy
 Gradient of SCF Energy
            1           2           3           4           5
    1  -0.0023742   0.0029247  -0.0002235  -0.0002387  -0.0000882
    2  -0.0007600   0.0009272  -0.0001774   0.0000865  -0.0000763
    3  -0.0042479   0.0052195  -0.0003070  -0.0002597  -0.0004048
 Max gradient component =       5.219E-03
 RMS gradient           =       2.023E-03
 Gradient time:  CPU 4.68 s  wall 0.54 s
 Geometry Optimization Parameters
   NAtoms,    NIC,     NZ,  NCons,   NDum,   NFix, NCnnct, MaxDiis
        5      50       0       1       0       0       0       0

 Cartesian Hessian Update
 Hessian Updated using BFGS Update


** CONSTRAINED OPTIMIZATION IN DELOCALIZED INTERNAL COORDINATES **
   Searching for a Minimum

   Optimization Cycle:   5

                       Coordinates (Angstroms)
     ATOM                X               Y               Z
      1  H         1.0854902127    0.3404431524    1.9319050852
      2  C        -0.2702178349   -0.0847279356   -0.4808293191
      3  H         0.1361707092    0.8427062867   -0.8616410947
      4  H         0.2560046228   -1.0148972825   -0.6488503439
      5  H        -1.2075497099   -0.0836232210    0.0592146726
   Point Group: c1    Number of degrees of freedom:     9


   Energy is    -40.339724736

              Constraints and their Current Values
                                        Value     Constraint
   Distance(Angs):        1   2             2.800000     2.800000
 Hessian Updated using BFGS Update

  8 Hessian modes will be used to form the next step
  Hessian Eigenvalues:
     0.002322    0.053948    0.054069    0.078288    0.078890    0.304948
     0.305391    0.318511

 Minimum Search - Taking Simple RFO Step
 Searching for Lamda that Minimizes Along All modes
 Value Taken    Lamda =  -0.00006594
 Step Taken.  Stepsize is  0.165914

                             Maximum     Tolerance    Cnvgd?
         Gradient           0.000380      0.000300      NO
         Displacement       0.164988      0.001200      NO
         Energy change     -0.000003      0.000001      NO


 New Cartesian Coordinates Obtained by Inverse Iteration

 Displacement from previous Coordinates is:  0.063900
 ----------------------------------------------------------------
             Standard Nuclear Orientation (Angstroms)
    I     Atom           X                Y                Z
 ----------------------------------------------------------------
    1      H       1.0754615796     0.3394357454     1.9164955307
    2      C      -0.2787508550    -0.0879750652    -0.4966830269
    3      H       0.1423907994     0.8443062409    -0.8493463497
    4      H       0.2606807253    -1.0146450842    -0.6416999787
    5      H      -1.1998842494    -0.0812208369     0.0710328246
 ----------------------------------------------------------------
 Nuclear Repulsion Energy =    11.3176698625 hartrees
 There are        6 alpha and        4 beta electrons

                       Distance Matrix (Angstroms)
             H (  1)   C (  2)   H (  3)   H (  4)
   C (  2)  2.800000
   H (  3)  2.962330  1.082072
   H (  4)  3.006953  1.082004  1.874249
   H (  5)  2.959710  1.082051  1.872271  1.874172
 
 Applying Cartesian multipole field
    Component          Value
    ---------          -----
     (2,0,0)        1.00000E-10
     (0,2,0)        2.00000E-10
     (0,0,2)       -3.00000E-11
 Nucleus-field energy     =     0.0000000018 hartrees
 Requested basis set is 6-31G(d,p)
 There are 16 shells and 35 basis functions
 A cutoff of  1.0D-14 yielded    136 shell pairs
 There are       669 function pairs
 Smallest overlap matrix eigenvalue = 2.72E-02
 Guess from superposition of atomic densities
 Warning:  Energy on first SCF cycle will be non-variational
 SAD guess density has 10.000000 electrons

 -----------------------------------------------------------------------
  General SCF calculation program by
  Eric Jon Sundstrom, Paul Horn, Yuezhi Mao, Dmitri Zuev, Alec White,
  David Stuck, Shaama M.S., Shane Yost, Joonho Lee, David Small,
  Daniel Levine, Susi Lehtola, Hugh Burton, Evgeny Epifanovsky
 -----------------------------------------------------------------------
 Exchange:     0.2000 Hartree-Fock + 0.0800 Slater + 0.7200 B88
 Correlation:  0.1900 VWN1RPA + 0.8100 LYP
 Using SG-1 standard quadrature grid
 using 12 threads for integral computing
 -------------------------------------------------------
 OpenMP Integral computing Module                
 Release: version 1.0, May 2013, Q-Chem Inc. Pittsburgh 
 -------------------------------------------------------
 -------------------------------------------------------
 OpenMP BLAS3 based DFT computing Module                
 Release: version 1.0, May 2013, Q-Chem Inc. Pittsburgh 
 -------------------------------------------------------
 A unrestricted SCF calculation will be
 performed using DIIS
 SCF converges when DIIS error is below 1.0e-06
 Alpha HF Exchange    Energy =  -0.61682504054750
 Beta HF Exchange     Energy =  -0.61682504054750
 DFT Correlation      Energy =  -0.36629252622633
 DFT Exchange         Energy =  -4.95268350792842
 One-Electron (alpha) Energy = -37.18837097041843
 One-Electron (beta)  Energy = -37.18837097041843
 Total Coulomb        Energy =  29.41520117190582
 ---------------------------------------
  Cycle       Energy         DIIS error
 ---------------------------------------
    1     -40.1964970198      3.84e-02  
 Alpha HF Exchange    Energy =  -0.73729636507871
 Beta HF Exchange     Energy =  -0.58764644690730
 DFT Correlation      Energy =  -0.35654056319596
 DFT Exchange         Energy =  -5.23643720461261
 One-Electron (alpha) Energy = -41.65665971320650
 One-Electron (beta)  Energy = -34.61448900097347
 Total Coulomb        Energy =  31.56115376773658
    2     -40.3102456619      6.38e-03  
 Alpha HF Exchange    Energy =  -0.71761826034956
 Beta HF Exchange     Energy =  -0.57229380811033
 DFT Correlation      Energy =  -0.34665992140352
 DFT Exchange         Energy =  -5.09195737122147
 One-Electron (alpha) Energy = -40.84329425843746
 One-Electron (beta)  Energy = -33.91765538796956
 Total Coulomb        Energy =  29.85231284013264
    3     -40.3194963030      5.49e-03  
 Alpha HF Exchange    Energy =  -0.72909554386498
 Beta HF Exchange     Energy =  -0.57882776940877
 DFT Correlation      Energy =  -0.35097146627805
 DFT Exchange         Energy =  -5.16573560243292
 One-Electron (alpha) Energy = -41.28018353742621
 One-Electron (beta)  Energy = -34.21484617210039
 Total Coulomb        Energy =  30.66229423718784
    4     -40.3396959900      2.09e-04  
 Alpha HF Exchange    Energy =  -0.72937807174238
 Beta HF Exchange     Energy =  -0.57854783573958
 DFT Correlation      Energy =  -0.35077858201032
 DFT Exchange         Energy =  -5.16561306697262
 One-Electron (alpha) Energy = -41.29095773733384
 One-Electron (beta)  Energy = -34.19277896847800
 Total Coulomb        Energy =  30.65063095032291
    5     -40.3397534476      5.17e-05  
 Alpha HF Exchange    Energy =  -0.72949780113256
 Beta HF Exchange     Energy =  -0.57842963511163
 DFT Correlation      Energy =  -0.35072982656936
 DFT Exchange         Energy =  -5.16558376878917
 One-Electron (alpha) Energy = -41.29720368918584
 One-Electron (beta)  Energy = -34.18502016990772
 Total Coulomb        Energy =  30.64903651914061
    6     -40.3397585072      8.37e-06  
 Alpha HF Exchange    Energy =  -0.72952849439052
 Beta HF Exchange     Energy =  -0.57841702469369
 DFT Correlation      Energy =  -0.35072619584610
 DFT Exchange         Energy =  -5.16565262729095
 One-Electron (alpha) Energy = -41.29855824139596
 One-Electron (beta)  Energy = -34.18398257693249
 Total Coulomb        Energy =  30.64943665797615
    7     -40.3397586382      8.21e-07  Convergence criterion met
 ---------------------------------------
 SCF time:   CPU 11.78s  wall 1.00s 
<S^2> =          2.003694367
 Alpha HF Exchange    Energy =  -0.72952849439052
 Beta HF Exchange     Energy =  -0.57841702469369
 DFT Correlation      Energy =  -0.35072619584610
 DFT Exchange         Energy =  -5.16565262729095
 One-Electron (alpha) Energy = -41.29855824139596
 One-Electron (beta)  Energy = -34.18398257693249
 Total Coulomb        Energy =  30.64943665797615
 Nuclear repulsion Energy =  11.31766986436163
 SCF   energy in the final basis set =      -40.3397586382
 Total energy in the final basis set =      -40.3397586382
 
 --------------------------------------------------------------
 
                    Orbital Energies (a.u.)
 --------------------------------------------------------------
 
 Alpha MOs
 -- Occupied --
-10.190  -0.681  -0.415  -0.415  -0.315  -0.217
 -- Virtual --
  0.115   0.182   0.182   0.539   0.539   0.540   0.642   0.826
  0.890   0.890   0.950   1.436   1.436   1.911   1.913   1.935
  1.959   1.959   2.003   2.007   2.298   2.557   2.558   2.719
  2.721   3.249   3.457   3.458   4.286
 
 Beta MOs
 -- Occupied --
-10.176  -0.640  -0.405  -0.405
 -- Virtual --
 -0.072   0.001   0.132   0.187   0.188   0.546   0.546   0.626
  0.705   0.893   0.894   0.967   1.043   1.483   1.483   1.918
  1.919   2.002   2.040   2.218   2.221   2.221   2.321   2.586
  2.588   2.720   2.722   3.256   3.465   3.466   4.323
 --------------------------------------------------------------
 
          Ground-State Mulliken Net Atomic Charges

     Atom                 Charge (a.u.)    Spin (a.u.)
  --------------------------------------------------------
      1 H                     0.000471       0.999030
      2 C                    -0.366940       1.145123
      3 H                     0.122105      -0.048054
      4 H                     0.122274      -0.048043
      5 H                     0.122090      -0.048056
  --------------------------------------------------------
  Sum of atomic charges =    -0.000000
  Sum of spin   charges =     2.000000

 -----------------------------------------------------------------
                    Cartesian Multipole Moments
 -----------------------------------------------------------------
    Charge (ESU x 10^10)
                -0.0000
    Dipole Moment (Debye)
         X       0.0302      Y       0.0075      Z       0.0515
       Tot       0.0601
    Quadrupole Moments (Debye-Ang)
        XX      -8.7362     XY      -0.1193     YY      -8.3204
        XZ      -0.7617     YZ      -0.1986     ZZ      -9.6074
    Octopole Moments (Debye-Ang^2)
       XXX       1.5240    XXY       0.1732    XYY       1.2784
       YYY       0.5485    XXZ       1.8134    XYZ       0.0751
       YYZ       0.6805    XZZ       1.2214    YZZ       0.4860
       ZZZ       4.6066
    Hexadecapole Moments (Debye-Ang^3)
      XXXX     -26.3851   XXXY      -1.7493   XXYY      -7.5770
      XYYY      -1.9883   YYYY     -16.5754   XXXZ     -10.3627
      XXYZ      -1.1068   XYYZ      -3.6125   YYYZ      -3.1567
      XXZZ     -13.6254   XYZZ      -0.6838   YYZZ     -11.0776
      XZZZ     -10.5698   YZZZ      -3.5852   ZZZZ     -53.0177
 -----------------------------------------------------------------
 Calculating analytic gradient of the SCF energy
 Gradient of SCF Energy
            1           2           3           4           5
    1  -0.0023375   0.0025285  -0.0001457   0.0000012  -0.0000465
    2  -0.0007539   0.0004846   0.0001012   0.0000014   0.0001666
    3  -0.0041894   0.0041521   0.0000381   0.0000372  -0.0000380
 Max gradient component =       4.189E-03
 RMS gradient           =       1.780E-03
 Gradient time:  CPU 4.76 s  wall 0.60 s
 Geometry Optimization Parameters
   NAtoms,    NIC,     NZ,  NCons,   NDum,   NFix, NCnnct, MaxDiis
        5      50       0       1       0       0       0       0

 Cartesian Hessian Update
 Hessian Updated using BFGS Update


** CONSTRAINED OPTIMIZATION IN DELOCALIZED INTERNAL COORDINATES **
   Searching for a Minimum

   Optimization Cycle:   6

                       Coordinates (Angstroms)
     ATOM                X               Y               Z
      1  H         1.0754615796    0.3394357454    1.9164955307
      2  C        -0.2787508550   -0.0879750652   -0.4966830269
      3  H         0.1423907994    0.8443062409   -0.8493463497
      4  H         0.2606807253   -1.0146450842   -0.6416999787
      5  H        -1.1998842494   -0.0812208369    0.0710328246
   Point Group: c1    Number of degrees of freedom:     9


   Energy is    -40.339758638

              Constraints and their Current Values
                                        Value     Constraint
   Distance(Angs):        1   2             2.800000     2.800000
 Hessian Updated using BFGS Update

  8 Hessian modes will be used to form the next step
  Hessian Eigenvalues:
     0.002330    0.053949    0.054087    0.078288    0.079300    0.304986
     0.305392    0.318632

 Minimum Search - Taking Simple RFO Step
 Searching for Lamda that Minimizes Along All modes
 Value Taken    Lamda =   0.00000000
 Step Taken.  Stepsize is  0.004576

                             Maximum     Tolerance    Cnvgd?
         Gradient           0.000140      0.000300     YES
         Displacement       0.003989      0.001200      NO
         Energy change     -0.000034      0.000001      NO


 New Cartesian Coordinates Obtained by Inverse Iteration

 Displacement from previous Coordinates is:  0.001949
 ----------------------------------------------------------------
             Standard Nuclear Orientation (Angstroms)
    I     Atom           X                Y                Z
 ----------------------------------------------------------------
    1      H       1.0751442745     0.3395170049     1.9161483373
    2      C      -0.2790569007    -0.0878993260    -0.4970355611
    3      H       0.1428562074     0.8442334667    -0.8491088240
    4      H       0.2606184642    -1.0145078236    -0.6416999189
    5      H      -1.1996640454    -0.0814423221     0.0714949667
 ----------------------------------------------------------------
 Nuclear Repulsion Energy =    11.3178683344 hartrees
 There are        6 alpha and        4 beta electrons

                       Distance Matrix (Angstroms)
             H (  1)   C (  2)   H (  3)   H (  4)
   C (  2)  2.800000
   H (  3)  2.961511  1.082053
   H (  4)  3.006563  1.082026  1.873981
   H (  5)  2.958835  1.082029  1.872631  1.873949
 
 Applying Cartesian multipole field
    Component          Value
    ---------          -----
     (2,0,0)        1.00000E-10
     (0,2,0)        2.00000E-10
     (0,0,2)       -3.00000E-11
 Nucleus-field energy     =     0.0000000018 hartrees
 Requested basis set is 6-31G(d,p)
 There are 16 shells and 35 basis functions
 A cutoff of  1.0D-14 yielded    136 shell pairs
 There are       669 function pairs
 Smallest overlap matrix eigenvalue = 2.72E-02
 Guess from superposition of atomic densities
 Warning:  Energy on first SCF cycle will be non-variational
 SAD guess density has 10.000000 electrons

 -----------------------------------------------------------------------
  General SCF calculation program by
  Eric Jon Sundstrom, Paul Horn, Yuezhi Mao, Dmitri Zuev, Alec White,
  David Stuck, Shaama M.S., Shane Yost, Joonho Lee, David Small,
  Daniel Levine, Susi Lehtola, Hugh Burton, Evgeny Epifanovsky
 -----------------------------------------------------------------------
 Exchange:     0.2000 Hartree-Fock + 0.0800 Slater + 0.7200 B88
 Correlation:  0.1900 VWN1RPA + 0.8100 LYP
 Using SG-1 standard quadrature grid
 using 12 threads for integral computing
 -------------------------------------------------------
 OpenMP Integral computing Module                
 Release: version 1.0, May 2013, Q-Chem Inc. Pittsburgh 
 -------------------------------------------------------
 -------------------------------------------------------
 OpenMP BLAS3 based DFT computing Module                
 Release: version 1.0, May 2013, Q-Chem Inc. Pittsburgh 
 -------------------------------------------------------
 A unrestricted SCF calculation will be
 performed using DIIS
 SCF converges when DIIS error is below 1.0e-06
 Alpha HF Exchange    Energy =  -0.61682681044678
 Beta HF Exchange     Energy =  -0.61682681044678
 DFT Correlation      Energy =  -0.36629362135060
 DFT Exchange         Energy =  -4.95268662312381
 One-Electron (alpha) Energy = -37.18855854440204
 One-Electron (beta)  Energy = -37.18855854440204
 Total Coulomb        Energy =  29.41537416972773
 ---------------------------------------
  Cycle       Energy         DIIS error
 ---------------------------------------
    1     -40.1965084483      3.84e-02  
 Alpha HF Exchange    Energy =  -0.73729712661214
 Beta HF Exchange     Energy =  -0.58764714252659
 DFT Correlation      Energy =  -0.35654125548527
 DFT Exchange         Energy =  -5.23644224241311
 One-Electron (alpha) Energy = -41.65687734951386
 One-Electron (beta)  Energy = -34.61461486140166
 Total Coulomb        Energy =  31.56130646253833
    2     -40.3102451792      6.38e-03  
 Alpha HF Exchange    Energy =  -0.71761966361576
 Beta HF Exchange     Energy =  -0.57229425310275
 DFT Correlation      Energy =  -0.34666059868736
 DFT Exchange         Energy =  -5.09196351518997
 One-Electron (alpha) Energy = -40.84351010114919
 One-Electron (beta)  Energy = -33.91779052259764
 Total Coulomb        Energy =  29.85247384882018
    3     -40.3194964693      5.49e-03  
 Alpha HF Exchange    Energy =  -0.72909682267080
 Beta HF Exchange     Energy =  -0.57882837565217
 DFT Correlation      Energy =  -0.35097209594980
 DFT Exchange         Energy =  -5.16574201820105
 One-Electron (alpha) Energy = -41.28039536080964
 One-Electron (beta)  Energy = -34.21498223655041
 Total Coulomb        Energy =  30.66245227906323
    4     -40.3396962946      2.09e-04  
 Alpha HF Exchange    Energy =  -0.72937931731709
 Beta HF Exchange     Energy =  -0.57854847122063
 DFT Correlation      Energy =  -0.35077920755430
 DFT Exchange         Energy =  -5.16561945653266
 One-Electron (alpha) Energy = -41.29116701175608
 One-Electron (beta)  Energy = -34.19291778473138
 Total Coulomb        Energy =  30.65078915973683
    5     -40.3397537532      5.17e-05  
 Alpha HF Exchange    Energy =  -0.72949902982471
 Beta HF Exchange     Energy =  -0.57843028619542
 DFT Correlation      Energy =  -0.35073045674055
 DFT Exchange         Energy =  -5.16559015347856
 One-Electron (alpha) Energy = -41.29741163178937
 One-Electron (beta)  Energy = -34.18516036238881
 Total Coulomb        Energy =  30.64919477197626
    6     -40.3397588123      8.37e-06  
 Alpha HF Exchange    Energy =  -0.72952971698826
 Beta HF Exchange     Energy =  -0.57841767856779
 DFT Correlation      Energy =  -0.35072682658296
 DFT Exchange         Energy =  -5.16565900295462
 One-Electron (alpha) Energy = -41.29876612063821
 One-Electron (beta)  Energy = -34.18412295663129
 Total Coulomb        Energy =  30.64959502286832
    7     -40.3397589433      8.31e-07  Convergence criterion met
 ---------------------------------------
 SCF time:   CPU 11.69s  wall 1.00s 
<S^2> =          2.003693561
 Alpha HF Exchange    Energy =  -0.72952971698826
 Beta HF Exchange     Energy =  -0.57841767856779
 DFT Correlation      Energy =  -0.35072682658296
 DFT Exchange         Energy =  -5.16565900295462
 One-Electron (alpha) Energy = -41.29876612063821
 One-Electron (beta)  Energy = -34.18412295663129
 Total Coulomb        Energy =  30.64959502286832
 Nuclear repulsion Energy =  11.31786833618309
 SCF   energy in the final basis set =      -40.3397589433
 Total energy in the final basis set =      -40.3397589433
 
 --------------------------------------------------------------
 
                    Orbital Energies (a.u.)
 --------------------------------------------------------------
 
 Alpha MOs
 -- Occupied --
-10.190  -0.681  -0.415  -0.415  -0.316  -0.217
 -- Virtual --
  0.115   0.182   0.182   0.539   0.539   0.540   0.642   0.826
  0.890   0.890   0.950   1.436   1.436   1.912   1.913   1.935
  1.959   1.959   2.003   2.007   2.298   2.557   2.558   2.719
  2.721   3.249   3.457   3.458   4.286
 
 Beta MOs
 -- Occupied --
-10.176  -0.640  -0.405  -0.405
 -- Virtual --
 -0.072   0.001   0.132   0.187   0.188   0.546   0.546   0.626
  0.705   0.893   0.894   0.967   1.043   1.483   1.483   1.918
  1.919   2.002   2.039   2.218   2.221   2.221   2.321   2.586
  2.587   2.720   2.722   3.256   3.465   3.466   4.323
 --------------------------------------------------------------
 
          Ground-State Mulliken Net Atomic Charges

     Atom                 Charge (a.u.)    Spin (a.u.)
  --------------------------------------------------------
      1 H                     0.000472       0.999028
      2 C                    -0.366927       1.145105
      3 H                     0.122113      -0.048048
      4 H                     0.122242      -0.048035
      5 H                     0.122101      -0.048050
  --------------------------------------------------------
  Sum of atomic charges =     0.000000
  Sum of spin   charges =     2.000000

 -----------------------------------------------------------------
                    Cartesian Multipole Moments
 -----------------------------------------------------------------
    Charge (ESU x 10^10)
                 0.0000
    Dipole Moment (Debye)
         X       0.0311      Y       0.0075      Z       0.0528
       Tot       0.0617
    Quadrupole Moments (Debye-Ang)
        XX      -8.7366     XY      -0.1182     YY      -8.3212
        XZ      -0.7629     YZ      -0.1988     ZZ      -9.6081
    Octopole Moments (Debye-Ang^2)
       XXX       1.5305    XXY       0.1726    XYY       1.2803
       YYY       0.5481    XXZ       1.8165    XYZ       0.0747
       YYZ       0.6835    XZZ       1.2241    YZZ       0.4858
       ZZZ       4.6146
    Hexadecapole Moments (Debye-Ang^3)
      XXXX     -26.3856   XXXY      -1.7497   XXYY      -7.5764
      XYYY      -1.9887   YYYY     -16.5761   XXXZ     -10.3627
      XXYZ      -1.1073   XYYZ      -3.6123   YYYZ      -3.1576
      XXZZ     -13.6251   XYZZ      -0.6837   YYZZ     -11.0786
      XZZZ     -10.5695   YZZZ      -3.5857   ZZZZ     -53.0194
 -----------------------------------------------------------------
 Calculating analytic gradient of the SCF energy
 Gradient of SCF Energy
            1           2           3           4           5
    1  -0.0023366   0.0024576  -0.0001005   0.0000097  -0.0000302
    2  -0.0007537   0.0005692   0.0000651   0.0000046   0.0001148
    3  -0.0041879   0.0041466   0.0000270   0.0000447  -0.0000304
 Max gradient component =       4.188E-03
 RMS gradient           =       1.773E-03
 Gradient time:  CPU 4.67 s  wall 0.65 s
 Geometry Optimization Parameters
   NAtoms,    NIC,     NZ,  NCons,   NDum,   NFix, NCnnct, MaxDiis
        5      50       0       1       0       0       0       0

 Cartesian Hessian Update
 Hessian Updated using BFGS Update


** CONSTRAINED OPTIMIZATION IN DELOCALIZED INTERNAL COORDINATES **
   Searching for a Minimum

   Optimization Cycle:   7

                       Coordinates (Angstroms)
     ATOM                X               Y               Z
      1  H         1.0751442745    0.3395170049    1.9161483373
      2  C        -0.2790569007   -0.0878993260   -0.4970355611
      3  H         0.1428562074    0.8442334667   -0.8491088240
      4  H         0.2606184642   -1.0145078236   -0.6416999189
      5  H        -1.1996640454   -0.0814423221    0.0714949667
   Point Group: c1    Number of degrees of freedom:     9


   Energy is    -40.339758943

              Constraints and their Current Values
                                        Value     Constraint
   Distance(Angs):        1   2             2.800000     2.800000
 Hessian Updated using BFGS Update

  8 Hessian modes will be used to form the next step
  Hessian Eigenvalues:
     0.002527    0.023049    0.053950    0.060007    0.078288    0.305130
     0.305398    0.318439

 Minimum Search - Taking Simple RFO Step
 Searching for Lamda that Minimizes Along All modes
 Value Taken    Lamda =   0.00000000
 Step Taken.  Stepsize is  0.005783

                             Maximum     Tolerance    Cnvgd?
         Gradient           0.000093      0.000300     YES
         Displacement       0.003828      0.001200      NO
         Energy change     -0.000000      0.000001     YES


                       Distance Matrix (Angstroms)
             H (  1)   C (  2)   H (  3)   H (  4)
   C (  2)  2.800000
   H (  3)  2.961511  1.082053
   H (  4)  3.006563  1.082026  1.873981
   H (  5)  2.958835  1.082029  1.872631  1.873949
 
 Final energy is   -40.3397589433117     


 ******************************
 **  OPTIMIZATION CONVERGED  **
 ******************************

                       Coordinates (Angstroms)
     ATOM                X               Y               Z
      1  H         1.0751442745    0.3395170049    1.9161483373
      2  C        -0.2790569007   -0.0878993260   -0.4970355611
      3  H         0.1428562074    0.8442334667   -0.8491088240
      4  H         0.2606184642   -1.0145078236   -0.6416999189
      5  H        -1.1996640454   -0.0814423221    0.0714949667

Z-matrix Print:
$molecule
0 3
C 
H  1 1.082026
H  1 1.082029 2 119.981158
H  1 1.082053 2 119.982428 3 174.892081 0
H  1 2.800000 2 90.270820 3 87.359754 0
$end

PES scan, value:    2.8000 energy:  -40.3397589433
------- Summary of potential scan: ------ 
    2.8000       -40.3397589433
----------------------------------------- 
Archival summary:
1\1\hpc0243\JobtypUnspecified\ProcedureUnspecified\6-31G**\14(3)\knomura\MonMar1116:26:522019MonMar1116:26:522019\0\\#,JobtypUnspecified,ProcedureUnspecified,6-31G**,\\0,3\C\H,1,1.08203\H,1,1.08203,2,119.981\H,1,1.08205,2,119.982,3,174.892,0\H,1,2.8,2,90.2708,3,87.3598,0\\\@

 Total job time:  17.34s(wall), 156.46s(cpu) 
 Mon Mar 11 16:26:52 2019

        *************************************************************
        *                                                           *
        *  Thank you very much for using Q-Chem.  Have a nice day.  *
        *                                                           *
        *************************************************************


