
Running Job 1 of 1 scan_ch4.xyz.data/inputs/bond_triplet_3.4.in
qchem scan_ch4.xyz.data/inputs/bond_triplet_3.4.in_31623.0 /staging/scratch/2851581/qchem31623/ 1
/usr/usc/qchem/5.1.1/exe/qcprog.exe_s scan_ch4.xyz.data/inputs/bond_triplet_3.4.in_31623.0 /staging/scratch/2851581/qchem31623/
Check license passed

                  Welcome to Q-Chem
     A Quantum Leap Into The Future Of Chemistry


 Q-Chem 5.1, Q-Chem, Inc., Pleasanton, CA (2018)

 Yihan Shao,  Zhengting Gan,  E. Epifanovsky,  A. T. B. Gilbert,  M. Wormit,  
 J. Kussmann,  A. W. Lange,  A. Behn,  Jia Deng,  Xintian Feng,  D. Ghosh,  
 M. Goldey,  P. R. Horn,  L. D. Jacobson,  I. Kaliman,  T. Kus,  A. Landau,  
 Jie Liu,  E. I. Proynov,  R. M. Richard,  R. P. Steele,  E. J. Sundstrom,  
 H. L. Woodcock III,  P. M. Zimmerman,  D. Zuev,  B. Albrecht,  E. Alguire,  
 S. A. Baeppler,  D. Barton,  Z. Benda,  Y. A. Bernard,  E. J. Berquist,  
 K. B. Bravaya,  H. Burton,  D. Casanova,  Chun-Min Chang,  Yunqing Chen,  
 A. Chien,  K. D. Closser,  M. P. Coons,  S. Coriani,  S. Dasgupta,  
 A. L. Dempwolff,  M. Diedenhofen,  Hainam Do,  R. G. Edgar,  Po-Tung Fang,  
 S. Faraji,  S. Fatehi,  Qingguo Feng,  K. D. Fenk,  J. Fosso-Tande,  
 Qinghui Ge,  A. Ghysels,  G. Gidofalvi,  J. Gomes,  J. Gonthier,  A. Gunina,  
 D. Hait,  M. W. D. Hanson-Heine,  P. H. P. Harbach,  A. W. Hauser,  
 J. E. Herr,  E. G. Hohenstein,  Z. C. Holden,  Kerwin Hui,  B. C. Huynh,  
 T.-C. Jagau,  Hyunjun Ji,  B. Kaduk,  K. Khistyaev,  Jaehoon Kim,  
 P. Klunzinger,  K. Koh,  D. Kosenkov,  L. Koulias,  T. Kowalczyk,  
 C. M. Krauter,  A. Kunitsa,  Ka Un Lao,  A. Laurent,  K. V. Lawler,  
 Joonho Lee,  D. Lefrancois,  S. Lehtola,  D. S. Levine,  Yi-Pei Li,  
 You-Sheng Lin,  Fenglai Liu,  E. Livshits,  A. Luenser,  P. Manohar,  
 E. Mansoor,  S. F. Manzer,  Shan-Ping Mao,  Yuezhi Mao,  N. Mardirossian,  
 A. V. Marenich,  T. Markovich,  L. A. Martinez-Martinez,  S. A. Maurer,  
 N. J. Mayhall,  S. C. McKenzie,  J.-M. Mewes,  A. F. Morrison,  
 J. W. Mullinax,  K. Nanda,  T. S. Nguyen-Beck,  R. Olivares-Amaya,  
 J. A. Parkhill,  T. M. Perrine,  F. Plasser,  P. Pokhilko,  S. Prager,  
 A. Prociuk,  E. Ramos,  D. R. Rehn,  F. Rob,  M. Schneider,  N. Sergueev,  
 S. M. Sharada,  S. Sharma,  D. W. Small,  T. Stauch,  T. Stein,  
 Yu-Chuan Su,  A. J. W. Thom,  A. Tkatchenko,  T. Tsuchimochi,  N. M. Tubman,  
 L. Vogt,  M. L. Vidal,  O. Vydrov,  M. A. Watson,  J. Wenzel,  
 M. de Wergifosse,  T. A. Wesolowski,  A. White,  J. Witte,  A. Yamada,  
 Jun Yang,  K. Yao,  S. Yeganeh,  S. R. Yost,  Zhi-Qiang You,  A. Zech,  
 Igor Ying Zhang,  Xing Zhang,  Yan Zhao,  Ying Zhu,  B. R. Brooks,  
 G. K. L. Chan,  C. J. Cramer,  M. S. Gordon,  W. J. Hehre,  A. Klamt,  
 M. W. Schmidt,  C. D. Sherrill,  D. G. Truhlar,  A. Aspuru-Guzik,  R. Baer,  
 A. T. Bell,  N. A. Besley,  Jeng-Da Chai,  A. E. DePrince, III,  
 R. A. DiStasio Jr.,  A. Dreuw,  B. D. Dunietz,  T. R. Furlani,  
 Chao-Ping Hsu,  Yousung Jung,  Jing Kong,  D. S. Lambrecht,  WanZhen Liang,  
 C. Ochsenfeld,  V. A. Rassolov,  L. V. Slipchenko,  J. E. Subotnik,  
 T. Van Voorhis,  J. M. Herbert,  A. I. Krylov,  P. M. W. Gill,  M. Head-Gordon

 Contributors to earlier versions of Q-Chem not listed above: 
 R. D. Adamson,  B. Austin,  J. Baker,  G. J. O. Beran,  K. Brandhorst,  
 S. T. Brown,  E. F. C. Byrd,  A. K. Chakraborty,  C.-L. Cheng,  
 Siu Hung Chien,  D. M. Chipman,  D. L. Crittenden,  H. Dachsel,  
 R. J. Doerksen,  A. D. Dutoi,  L. Fusti-Molnar,  W. A. Goddard III,  
 A. Golubeva-Zadorozhnaya,  S. R. Gwaltney,  G. Hawkins,  A. Heyden,  
 S. Hirata,  G. Kedziora,  F. J. Keil,  C. Kelley,  Jihan Kim,  R. A. King,  
 R. Z. Khaliullin,  P. P. Korambath,  W. Kurlancheek,  A. M. Lee,  M. S. Lee,  
 S. V. Levchenko,  Ching Yeh Lin,  D. Liotard,  R. C. Lochan,  I. Lotan,  
 P. E. Maslen,  N. Nair,  D. P. O'Neill,  D. Neuhauser,  E. Neuscamman,  
 C. M. Oana,  R. Olson,  B. Peters,  R. Peverati,  P. A. Pieniazek,  
 Y. M. Rhee,  J. Ritchie,  M. A. Rohrdanz,  E. Rosta,  N. J. Russ,  
 H. F. Schaefer III,  N. E. Schultz,  N. Shenvi,  A. C. Simmonett,  A. Sodt,  
 D. Stuck,  K. S. Thanthiriwatte,  V. Vanovschi,  Tao Wang,  A. Warshel,  
 C. F. Williams,  Q. Wu,  X. Xu,  W. Zhang

 Please cite Q-Chem as follows:
 Y. Shao et al., Mol. Phys. 113, 184-215 (2015)
 DOI: 10.1080/00268976.2014.952696

 Q-Chem 5.1.1 for Intel X86 EM64T Linux

 Parts of Q-Chem use Armadillo 8.300.2 (Tropical Shenanigans).
 http://arma.sourceforge.net/

 Q-Chem begins on Mon Mar 11 16:24:54 2019  

Host: 
0

     Scratch files written to /staging/scratch/2851581/qchem31623//
 Aug318 |scratch|qcdevops|jenkins|workspace|build_RNUM 6013   
Processing $rem in /usr/usc/qchem/5.1.1/config/preferences.
 MEM_TOTAL  2000 
Input Ideriv = 2
Curr. Ideriv = -1
Max.  Ideriv = 2

Checking the input file for inconsistencies... 	...done.

--------------------------------------------------------------
User input:
--------------------------------------------------------------

$comment
potential surface scanner
$end

$rem
JOBTYPE  PES_SCAN
UNRESTRICTED TRUE
SYM_IGNORE  TRUE
GEOM_OPT_MAX_CYCLES 400
SCF_MAX_CYCLES 400
METHOD   B3LYP
BASIS   6-31G**
PDB_PRINT 2
SCF_CONVERGENCE 6
THRESH 14
SCF_PRINT 1
$end
$molecule
0 3
H 1.358431 0.417715 2.408592
C -0.341624 -0.105160 -0.605777
H 0.065616 0.823063 -0.984314
H 0.195877 -1.032413 -0.754331
H -1.278401 -0.103305 -0.064370
$end
$scan
stre 1 2 3.400000 3.401000 0.100000
$end
--------------------------------------------------------------
 ----------------------------------------------------------------
             Standard Nuclear Orientation (Angstroms)
    I     Atom           X                Y                Z
 ----------------------------------------------------------------
    1      H       1.3584310000     0.4177150000     2.4085920000
    2      C      -0.3416240000    -0.1051600000    -0.6057770000
    3      H       0.0656160000     0.8230630000    -0.9843140000
    4      H       0.1958770000    -1.0324130000    -0.7543310000
    5      H      -1.2784010000    -0.1033050000    -0.0643700000
 ----------------------------------------------------------------
 Nuclear Repulsion Energy =    10.9915504197 hartrees
 There are        6 alpha and        4 beta electrons
 Requested basis set is 6-31G(d,p)
 There are 16 shells and 35 basis functions

 Total QAlloc Memory Limit   2000 MB
 Mega-Array Size       188 MB
 MEM_STATIC part       192 MB
A total of 1 constraints
  
            1
    1   1.0100000
    2   1.0100000
    3   2.0100000
    4   3.4000000
    5   3.4010000
    6   0.1000000
    7   0.0000000
    8   0.0000000
    9   0.0000000
   10   0.0000000

                       Distance Matrix (Angstroms)
             H (  1)   C (  2)   H (  3)   H (  4)
   C (  2)  3.500001
   H (  3)  3.653422  1.082004
   H (  4)  3.668581  1.082023  1.874207
   H (  5)  3.652381  1.081978  1.873723  1.874242
 
 A cutoff of  1.0D-14 yielded    135 shell pairs
 There are       666 function pairs
 
 -------------------------------------------------------
 OpenMP Integral Computing Module                       
 Release: version 1.0, May 2013, Q-Chem Inc. Pittsburgh 
 -------------------------------------------------------
 Integral Job Info:
 Integral job number is                      11
 Integral operator is                         1
 short-range coefficients                     0
 long-range coefficients              100000000
 Omega coefficients                           0
 if combine SR and LR in K                    0
 Integral screening is                        0
 Integral computing path is                   2
 max size of driver memory is            800000
 size of driver memory is                593474
 size of scratch memory is              2361544
 max col of scratch BK array               1296
 max len of scratch array in speh3          155
 max len of scratch index in speh4           18
 max int batch size is                      520
 min int batch size is                       52
 fixed nKL is                                52
 max L of basis functions is                  2
 order of int derivative is                   0
 number of shells is                         16
 number of basis is                          35
 number of cartesian basis is                35
 number of contracted shell pairs           135
 number of primitive shell pairs            457
 maxK2 (contraction) of shell pair           36
 max number of K2 of shell pair               1
 max number of CS2 of shell pair             22
 max number of PS2 of shell pair             48
 mem total for path MDJ                  507868
 -------------------------------------------------------
 Smallest overlap matrix eigenvalue = 2.76E-02

 Scale SEOQF with 1.000000e+00/1.000000e+00/1.000000e-01

 Standard Electronic Orientation quadrupole field applied
 Nucleus-field energy     =     0.0000000019 hartrees
 Guess from superposition of atomic densities
 Warning:  Energy on first SCF cycle will be non-variational
 SAD guess density has 10.000000 electrons

 -----------------------------------------------------------------------
  General SCF calculation program by
  Eric Jon Sundstrom, Paul Horn, Yuezhi Mao, Dmitri Zuev, Alec White,
  David Stuck, Shaama M.S., Shane Yost, Joonho Lee, David Small,
  Daniel Levine, Susi Lehtola, Hugh Burton, Evgeny Epifanovsky
 -----------------------------------------------------------------------
 Exchange:     0.2000 Hartree-Fock + 0.0800 Slater + 0.7200 B88
 Correlation:  0.1900 VWN1RPA + 0.8100 LYP
 Using SG-1 standard quadrature grid
 using 12 threads for integral computing
 -------------------------------------------------------
 OpenMP Integral computing Module                
 Release: version 1.0, May 2013, Q-Chem Inc. Pittsburgh 
 -------------------------------------------------------
 -------------------------------------------------------
 OpenMP BLAS3 based DFT computing Module                
 Release: version 1.0, May 2013, Q-Chem Inc. Pittsburgh 
 -------------------------------------------------------
 A unrestricted SCF calculation will be
 performed using DIIS
 SCF converges when DIIS error is below 1.0e-06
 Alpha HF Exchange    Energy =  -0.61647022713466
 Beta HF Exchange     Energy =  -0.61647022713466
 DFT Correlation      Energy =  -0.36506963640190
 DFT Exchange         Energy =  -4.95250585130749
 One-Electron (alpha) Energy = -36.86220314631399
 One-Electron (beta)  Energy = -36.86220314631399
 Total Coulomb        Energy =  29.08965571486679
 ---------------------------------------
  Cycle       Energy         DIIS error
 ---------------------------------------
    1     -40.1937160981      3.83e-02  
 Alpha HF Exchange    Energy =  -0.73623680341429
 Beta HF Exchange     Energy =  -0.58772314708288
 DFT Correlation      Energy =  -0.35584449618499
 DFT Exchange         Energy =  -5.23268825094403
 One-Electron (alpha) Energy = -41.13613129432941
 One-Electron (beta)  Energy = -34.47158891341110
 Total Coulomb        Energy =  31.21486001542441
    2     -40.3138024683      6.31e-03  
 Alpha HF Exchange    Energy =  -0.71653504062462
 Beta HF Exchange     Energy =  -0.57258817577376
 DFT Correlation      Energy =  -0.34606012058517
 DFT Exchange         Energy =  -5.08915166899911
 One-Electron (alpha) Energy = -40.33298098351945
 One-Electron (beta)  Energy = -33.78476930314390
 Total Coulomb        Energy =  29.52774037927016
    3     -40.3227944918      5.44e-03  
 Alpha HF Exchange    Energy =  -0.72801498639808
 Beta HF Exchange     Energy =  -0.57904690842827
 DFT Correlation      Energy =  -0.35036516257039
 DFT Exchange         Energy =  -5.16263943438691
 One-Electron (alpha) Energy = -40.76479467334663
 One-Electron (beta)  Energy = -34.07809768332986
 Total Coulomb        Energy =  30.32881029638671
    4     -40.3425981304      2.08e-04  
 Alpha HF Exchange    Energy =  -0.72828140359838
 Beta HF Exchange     Energy =  -0.57876712699161
 DFT Correlation      Energy =  -0.35017354120591
 DFT Exchange         Energy =  -5.16246009282027
 One-Electron (alpha) Energy = -40.77497952975656
 One-Electron (beta)  Energy = -34.05626470733316
 Total Coulomb        Energy =  30.31672176360048
    5     -40.3426542165      5.11e-05  
 Alpha HF Exchange    Energy =  -0.72839900089725
 Beta HF Exchange     Energy =  -0.57865106882773
 DFT Correlation      Energy =  -0.35012511695965
 DFT Exchange         Energy =  -5.16243152013228
 One-Electron (alpha) Energy = -40.78118660604110
 One-Electron (beta)  Energy = -34.04859132878349
 Total Coulomb        Energy =  30.31517504865388
    6     -40.3426591714      8.06e-06  
 Alpha HF Exchange    Energy =  -0.72842898758799
 Beta HF Exchange     Energy =  -0.57863895214038
 DFT Correlation      Energy =  -0.35012179168144
 DFT Exchange         Energy =  -5.16249974890024
 One-Electron (alpha) Energy = -40.78248926630297
 One-Electron (beta)  Energy = -34.04760483414127
 Total Coulomb        Energy =  30.31557386740679
    7     -40.3426592917      8.80e-07  Convergence criterion met
 ---------------------------------------
 SCF time:   CPU 11.76s  wall 1.00s 
<S^2> =          2.003640739
 Alpha HF Exchange    Energy =  -0.72842898758799
 Beta HF Exchange     Energy =  -0.57863895214038
 DFT Correlation      Energy =  -0.35012179168144
 DFT Exchange         Energy =  -5.16249974890024
 One-Electron (alpha) Energy = -40.78248926630297
 One-Electron (beta)  Energy = -34.04760483414127
 Total Coulomb        Energy =  30.31557386740679
 Nuclear repulsion Energy =  10.99155042162476
 SCF   energy in the final basis set =      -40.3426592917
 Total energy in the final basis set =      -40.3426592917
 
 --------------------------------------------------------------
 
                    Orbital Energies (a.u.)
 --------------------------------------------------------------
 
 Alpha MOs
 -- Occupied --
-10.191  -0.681  -0.415  -0.415  -0.313  -0.223
 -- Virtual --
  0.115   0.182   0.182   0.527   0.539   0.540   0.661   0.760
  0.890   0.890   0.947   1.436   1.436   1.914   1.915   1.952
  1.953   1.953   1.966   2.007   2.282   2.561   2.561   2.717
  2.717   3.249   3.458   3.458   4.275
 
 Beta MOs
 -- Occupied --
-10.177  -0.640  -0.405  -0.405
 -- Virtual --
 -0.056  -0.011   0.131   0.188   0.188   0.547   0.547   0.612
  0.704   0.893   0.894   0.963   1.019   1.483   1.483   1.918
  1.918   2.002   2.046   2.221   2.221   2.226   2.289   2.590
  2.591   2.717   2.718   3.255   3.466   3.466   4.311
 --------------------------------------------------------------
 
          Ground-State Mulliken Net Atomic Charges

     Atom                 Charge (a.u.)    Spin (a.u.)
  --------------------------------------------------------
      1 H                     0.000272       0.999648
      2 C                    -0.367874       1.145507
      3 H                     0.122529      -0.048382
      4 H                     0.122544      -0.048387
      5 H                     0.122529      -0.048385
  --------------------------------------------------------
  Sum of atomic charges =     0.000000
  Sum of spin   charges =     2.000000

 -----------------------------------------------------------------
                    Cartesian Multipole Moments
 -----------------------------------------------------------------
    Charge (ESU x 10^10)
                 0.0000
    Dipole Moment (Debye)
         X       0.0079      Y       0.0024      Z       0.0139
       Tot       0.0161
    Quadrupole Moments (Debye-Ang)
        XX      -8.6762     XY      -0.1115     YY      -8.3222
        XZ      -0.6739     YZ      -0.1934     ZZ      -9.4711
    Octopole Moments (Debye-Ang^2)
       XXX       1.8594    XXY       0.2242    XYY       1.3733
       YYY       0.6184    XXZ       2.1663    XYZ       0.1451
       YYZ       0.8419    XZZ       1.7012    YZZ       0.6544
       ZZZ       5.7156
    Hexadecapole Moments (Debye-Ang^3)
      XXXX     -33.1570   XXXY      -2.7173   XXYY      -8.9272
      XYYY      -3.0372   YYYY     -17.1432   XXXZ     -16.4958
      XXYZ      -1.6837   XYYZ      -5.6994   YYYZ      -4.8919
      XXZZ     -18.4937   XYZZ      -1.0260   YYZZ     -14.6224
      XZZZ     -16.7635   YZZZ      -5.4331   ZZZZ     -74.6143
 -----------------------------------------------------------------
 Calculating analytic gradient of the SCF energy
 Gradient of SCF Energy
            1           2           3           4           5
    1  -0.0003471   0.0003939  -0.0000285   0.0000084  -0.0000266
    2  -0.0001115   0.0000441   0.0000373  -0.0000148   0.0000449
    3  -0.0006204   0.0006070   0.0000069   0.0000134  -0.0000069
 Max gradient component =       6.204E-04
 RMS gradient           =       2.644E-04
 Gradient time:  CPU 4.56 s  wall 0.63 s
 Geometry Optimization Parameters
   NAtoms,    NIC,     NZ,  NCons,   NDum,   NFix, NCnnct, MaxDiis
        5      50       0       1       0       0       0       0


** CONSTRAINED OPTIMIZATION IN DELOCALIZED INTERNAL COORDINATES **
   Searching for a Minimum

   Optimization Cycle:   1

                       Coordinates (Angstroms)
     ATOM                X               Y               Z
      1  H         1.3584310000    0.4177150000    2.4085920000
      2  C        -0.3416240000   -0.1051600000   -0.6057770000
      3  H         0.0656160000    0.8230630000   -0.9843140000
      4  H         0.1958770000   -1.0324130000   -0.7543310000
      5  H        -1.2784010000   -0.1033050000   -0.0643700000
   Point Group: c1    Number of degrees of freedom:     9


   Energy is    -40.342659292

              Constraints and their Current Values
                                        Value     Constraint
   Distance(Angs):        1   2             3.500001     3.400000

 Attempting to Generate Delocalized Internal Coordinates

   Using Lagrange Multiplier Algorithm


 10 Hessian modes will be used to form the next step
  Hessian Eigenvalues:
    -0.996475    0.050081    0.052446    0.052502    0.078181    0.078183
     0.309423    0.309894    0.326337    1.003537

 Minimum Search - Taking P-RFO Step
 Searching for Lamda that Maximizes Along the Constraint modes Only
 Value Taken    Lamda =   0.01780210
 Searching for Lamda that Minimizes Along All other modes
 Value Taken    Lamda =  -0.01729521
 Step Taken.  Stepsize is  0.185715

                             Maximum     Tolerance    Cnvgd?
         Gradient            0.188974       0.000300      NO
         Displacement        0.185715       0.001200      NO
         Energy change     *********       0.000001      NO


 New Cartesian Coordinates Obtained by Inverse Iteration

 Displacement from previous Coordinates is:  0.142608
 ----------------------------------------------------------------
             Standard Nuclear Orientation (Angstroms)
    I     Atom           X                Y                Z
 ----------------------------------------------------------------
    1      H       1.3291207489     0.4086832617     2.3566191915
    2      C      -0.3232928744    -0.0993522251    -0.5730841460
    3      H       0.0738067120     0.8345932368    -0.9822275908
    4      H       0.2055981168    -1.0418218964    -0.7496072305
    5      H      -1.2853337033    -0.1022023771    -0.0519002242
 ----------------------------------------------------------------
 Nuclear Repulsion Energy =    10.9153307998 hartrees
 There are        6 alpha and        4 beta electrons

                       Distance Matrix (Angstroms)
             H (  1)   C (  2)   H (  3)   H (  4)
   C (  2)  3.401725
   H (  3)  3.592368  1.094231
   H (  4)  3.607618  1.095050  1.895367
   H (  5)  3.591287  1.094150  1.894824  1.895404
 
 Applying Cartesian multipole field
    Component          Value
    ---------          -----
     (2,0,0)        1.00000E-10
     (0,2,0)        2.00000E-10
     (0,0,2)       -3.00000E-11
 Nucleus-field energy     =     0.0000000019 hartrees
 Requested basis set is 6-31G(d,p)
 There are 16 shells and 35 basis functions
 A cutoff of  1.0D-14 yielded    135 shell pairs
 There are       666 function pairs
 Smallest overlap matrix eigenvalue = 2.85E-02
 Guess from superposition of atomic densities
 Warning:  Energy on first SCF cycle will be non-variational
 SAD guess density has 10.000000 electrons

 -----------------------------------------------------------------------
  General SCF calculation program by
  Eric Jon Sundstrom, Paul Horn, Yuezhi Mao, Dmitri Zuev, Alec White,
  David Stuck, Shaama M.S., Shane Yost, Joonho Lee, David Small,
  Daniel Levine, Susi Lehtola, Hugh Burton, Evgeny Epifanovsky
 -----------------------------------------------------------------------
 Exchange:     0.2000 Hartree-Fock + 0.0800 Slater + 0.7200 B88
 Correlation:  0.1900 VWN1RPA + 0.8100 LYP
 Using SG-1 standard quadrature grid
 using 12 threads for integral computing
 -------------------------------------------------------
 OpenMP Integral computing Module                
 Release: version 1.0, May 2013, Q-Chem Inc. Pittsburgh 
 -------------------------------------------------------
 -------------------------------------------------------
 OpenMP BLAS3 based DFT computing Module                
 Release: version 1.0, May 2013, Q-Chem Inc. Pittsburgh 
 -------------------------------------------------------
 A unrestricted SCF calculation will be
 performed using DIIS
 SCF converges when DIIS error is below 1.0e-06
 Alpha HF Exchange    Energy =  -0.61439662709228
 Beta HF Exchange     Energy =  -0.61439662709228
 DFT Correlation      Energy =  -0.36470723114682
 DFT Exchange         Energy =  -4.94776029907664
 One-Electron (alpha) Energy = -36.80548205078804
 One-Electron (beta)  Energy = -36.80548205078804
 Total Coulomb        Energy =  29.05673316323780
 ---------------------------------------
  Cycle       Energy         DIIS error
 ---------------------------------------
    1     -40.1801609210      3.74e-02  
 Alpha HF Exchange    Energy =  -0.73436834071992
 Beta HF Exchange     Energy =  -0.58602060289908
 DFT Correlation      Energy =  -0.35515909151499
 DFT Exchange         Energy =  -5.21970689121534
 One-Electron (alpha) Energy = -41.07204838984057
 One-Electron (beta)  Energy = -34.38247617730886
 Total Coulomb        Energy =  31.11999418254070
    2     -40.3144545092      6.16e-03  
 Alpha HF Exchange    Energy =  -0.71537129844091
 Beta HF Exchange     Energy =  -0.57129706170276
 DFT Correlation      Energy =  -0.34550409851546
 DFT Exchange         Energy =  -5.08044338242319
 One-Electron (alpha) Energy = -40.28730474082361
 One-Electron (beta)  Energy = -33.70354849028164
 Total Coulomb        Energy =  29.46544167870057
    3     -40.3226965918      5.37e-03  
 Alpha HF Exchange    Energy =  -0.72666608018221
 Beta HF Exchange     Energy =  -0.57760518321087
 DFT Correlation      Energy =  -0.34977186903396
 DFT Exchange         Energy =  -5.15266624544655
 One-Electron (alpha) Energy = -40.71488293824690
 One-Electron (beta)  Energy = -33.99403755299314
 Total Coulomb        Energy =  30.25819806632929
    4     -40.3421010011      2.14e-04  
 Alpha HF Exchange    Energy =  -0.72694071769877
 Beta HF Exchange     Energy =  -0.57730874700900
 DFT Correlation      Energy =  -0.34956974416494
 DFT Exchange         Energy =  -5.15244439672618
 One-Electron (alpha) Energy = -40.72539732160890
 One-Electron (beta)  Energy = -33.97104334436936
 Total Coulomb        Energy =  30.24521215175148
    5     -40.3421613181      5.28e-05  
 Alpha HF Exchange    Energy =  -0.72706673205777
 Beta HF Exchange     Energy =  -0.57718715258208
 DFT Correlation      Energy =  -0.34951857420228
 DFT Exchange         Energy =  -5.15242439935808
 One-Electron (alpha) Energy = -40.73201470767180
 One-Electron (beta)  Energy = -33.96294079849105
 Total Coulomb        Energy =  30.24365481285059
    6     -40.3421667498      8.55e-06  
 Alpha HF Exchange    Energy =  -0.72709824885029
 Beta HF Exchange     Energy =  -0.57717432598983
 DFT Correlation      Energy =  -0.34951483040287
 DFT Exchange         Energy =  -5.15249567726744
 One-Electron (alpha) Energy = -40.73339300251852
 One-Electron (beta)  Energy = -33.96188257193192
 Total Coulomb        Energy =  30.24406096888123
    7     -40.3421668863      1.20e-06  
 Alpha HF Exchange    Energy =  -0.72709969036702
 Beta HF Exchange     Energy =  -0.57717258982284
 DFT Correlation      Energy =  -0.34951450847623
 DFT Exchange         Energy =  -5.15249436981820
 One-Electron (alpha) Energy = -40.73346973299341
 One-Electron (beta)  Energy = -33.96180167958666
 Total Coulomb        Energy =  30.24405488136230
    8     -40.3421668880      2.95e-07  Convergence criterion met
 ---------------------------------------
 SCF time:   CPU 13.65s  wall 1.00s 
<S^2> =          2.003780881
 Alpha HF Exchange    Energy =  -0.72709969036702
 Beta HF Exchange     Energy =  -0.57717258982284
 DFT Correlation      Energy =  -0.34951450847623
 DFT Exchange         Energy =  -5.15249436981820
 One-Electron (alpha) Energy = -40.73346973299341
 One-Electron (beta)  Energy = -33.96180167958666
 Total Coulomb        Energy =  30.24405488136230
 Nuclear repulsion Energy =  10.91533080173330
 SCF   energy in the final basis set =      -40.3421668880
 Total energy in the final basis set =      -40.3421668880
 
 --------------------------------------------------------------
 
                    Orbital Energies (a.u.)
 --------------------------------------------------------------
 
 Alpha MOs
 -- Occupied --
-10.195  -0.677  -0.413  -0.412  -0.313  -0.223
 -- Virtual --
  0.111   0.178   0.179   0.526   0.543   0.543   0.658   0.768
  0.882   0.882   0.940   1.437   1.437   1.903   1.903   1.946
  1.954   1.954   1.958   2.005   2.277   2.542   2.543   2.693
  2.693   3.216   3.427   3.428   4.275
 
 Beta MOs
 -- Occupied --
-10.181  -0.636  -0.403  -0.402
 -- Virtual --
 -0.057  -0.009   0.127   0.184   0.184   0.550   0.551   0.612
  0.702   0.885   0.886   0.954   1.022   1.484   1.484   1.906
  1.907   2.000   2.031   2.222   2.222   2.223   2.285   2.571
  2.572   2.693   2.694   3.223   3.435   3.435   4.312
 --------------------------------------------------------------
 
          Ground-State Mulliken Net Atomic Charges

     Atom                 Charge (a.u.)    Spin (a.u.)
  --------------------------------------------------------
      1 H                     0.000302       0.999597
      2 C                    -0.366316       1.146945
      3 H                     0.122044      -0.048833
      4 H                     0.121914      -0.048873
      5 H                     0.122057      -0.048835
  --------------------------------------------------------
  Sum of atomic charges =     0.000000
  Sum of spin   charges =     2.000000

 -----------------------------------------------------------------
                    Cartesian Multipole Moments
 -----------------------------------------------------------------
    Charge (ESU x 10^10)
                 0.0000
    Dipole Moment (Debye)
         X      -0.0244      Y      -0.0068      Z      -0.0424
       Tot       0.0494
    Quadrupole Moments (Debye-Ang)
        XX      -8.6751     XY      -0.1069     YY      -8.3341
        XZ      -0.6509     YZ      -0.1868     ZZ      -9.4423
    Octopole Moments (Debye-Ang^2)
       XXX       1.5855    XXY       0.1916    XYY       1.3205
       YYY       0.5449    XXZ       2.0163    XYZ       0.1360
       YYZ       0.6824    XZZ       1.5772    YZZ       0.6232
       ZZZ       5.2274
    Hexadecapole Moments (Debye-Ang^3)
      XXXX     -32.2440   XXXY      -2.5348   XXYY      -8.8282
      XYYY      -2.8764   YYYY     -17.2828   XXXZ     -15.5010
      XXYZ      -1.5761   XYYZ      -5.3852   YYYZ      -4.5844
      XXZZ     -17.7988   XYZZ      -0.9590   YYZZ     -14.0802
      XZZZ     -15.7265   YZZZ      -5.1305   ZZZZ     -71.3109
 -----------------------------------------------------------------
 Calculating analytic gradient of the SCF energy
 Gradient of SCF Energy
            1           2           3           4           5
    1  -0.0004688   0.0009758   0.0028477   0.0040988  -0.0074536
    2  -0.0001502   0.0008186   0.0070511  -0.0076517  -0.0000679
    3  -0.0008368   0.0023141  -0.0034125  -0.0017072   0.0036424
 Max gradient component =       7.652E-03
 RMS gradient           =       3.869E-03
 Gradient time:  CPU 4.66 s  wall 0.60 s
 Geometry Optimization Parameters
   NAtoms,    NIC,     NZ,  NCons,   NDum,   NFix, NCnnct, MaxDiis
        5      50       0       1       0       0       0       0

 Cartesian Hessian Update
 Hessian Updated using BFGS Update


** CONSTRAINED OPTIMIZATION IN DELOCALIZED INTERNAL COORDINATES **
   Searching for a Minimum

   Optimization Cycle:   2

                       Coordinates (Angstroms)
     ATOM                X               Y               Z
      1  H         1.3291207489    0.4086832617    2.3566191915
      2  C        -0.3232928744   -0.0993522251   -0.5730841460
      3  H         0.0738067120    0.8345932368   -0.9822275908
      4  H         0.2055981168   -1.0418218964   -0.7496072305
      5  H        -1.2853337033   -0.1022023771   -0.0519002242
   Point Group: c1    Number of degrees of freedom:     9


   Energy is    -40.342166888

              Constraints and their Current Values
                                        Value     Constraint
   Distance(Angs):        1   2             3.401725     3.400000
 Hessian Updated using BFGS Update

   Using Lagrange Multiplier Algorithm


 10 Hessian modes will be used to form the next step
  Hessian Eigenvalues:
    -0.991521    0.050362    0.052446    0.052502    0.078178    0.078183
     0.309471    0.309895    0.583345    1.016622

 Minimum Search - Taking P-RFO Step
 Searching for Lamda that Maximizes Along the Constraint modes Only
 Value Taken    Lamda =   0.00001352
 Searching for Lamda that Minimizes Along All other modes
 Value Taken    Lamda =  -0.00032394
 Step Taken.  Stepsize is  0.024585

                             Maximum     Tolerance    Cnvgd?
         Gradient            0.013555       0.000300      NO
         Displacement        0.023161       0.001200      NO
         Energy change      0.000492       0.000001      NO


 New Cartesian Coordinates Obtained by Inverse Iteration

 Displacement from previous Coordinates is:  0.021311
 ----------------------------------------------------------------
             Standard Nuclear Orientation (Angstroms)
    I     Atom           X                Y                Z
 ----------------------------------------------------------------
    1      H       1.3284425734     0.4084955457     2.3554474427
    2      C      -0.3230761040    -0.0993649206    -0.5727885385
    3      H       0.0717086628     0.8291224194    -0.9797241836
    4      H       0.2024658058    -1.0360734885    -0.7484216973
    5      H      -1.2796419380    -0.1022795559    -0.0547130233
 ----------------------------------------------------------------
 Nuclear Repulsion Energy =    10.9727687856 hartrees
 There are        6 alpha and        4 beta electrons

                       Distance Matrix (Angstroms)
             H (  1)   C (  2)   H (  3)   H (  4)
   C (  2)  3.400000
   H (  3)  3.588827  1.087906
   H (  4)  3.603971  1.088331  1.884026
   H (  5)  3.587739  1.087855  1.883960  1.884104
 
 Applying Cartesian multipole field
    Component          Value
    ---------          -----
     (2,0,0)        1.00000E-10
     (0,2,0)        2.00000E-10
     (0,0,2)       -3.00000E-11
 Nucleus-field energy     =     0.0000000019 hartrees
 Requested basis set is 6-31G(d,p)
 There are 16 shells and 35 basis functions
 A cutoff of  1.0D-14 yielded    135 shell pairs
 There are       666 function pairs
 Smallest overlap matrix eigenvalue = 2.80E-02
 Guess from superposition of atomic densities
 Warning:  Energy on first SCF cycle will be non-variational
 SAD guess density has 10.000000 electrons

 -----------------------------------------------------------------------
  General SCF calculation program by
  Eric Jon Sundstrom, Paul Horn, Yuezhi Mao, Dmitri Zuev, Alec White,
  David Stuck, Shaama M.S., Shane Yost, Joonho Lee, David Small,
  Daniel Levine, Susi Lehtola, Hugh Burton, Evgeny Epifanovsky
 -----------------------------------------------------------------------
 Exchange:     0.2000 Hartree-Fock + 0.0800 Slater + 0.7200 B88
 Correlation:  0.1900 VWN1RPA + 0.8100 LYP
 Using SG-1 standard quadrature grid
 using 12 threads for integral computing
 -------------------------------------------------------
 OpenMP Integral computing Module                
 Release: version 1.0, May 2013, Q-Chem Inc. Pittsburgh 
 -------------------------------------------------------
 -------------------------------------------------------
 OpenMP BLAS3 based DFT computing Module                
 Release: version 1.0, May 2013, Q-Chem Inc. Pittsburgh 
 -------------------------------------------------------
 A unrestricted SCF calculation will be
 performed using DIIS
 SCF converges when DIIS error is below 1.0e-06
 Alpha HF Exchange    Energy =  -0.61547206962958
 Beta HF Exchange     Energy =  -0.61547206962958
 DFT Correlation      Energy =  -0.36494070359868
 DFT Exchange         Energy =  -4.95018431458372
 One-Electron (alpha) Energy = -36.85297632511369
 One-Electron (beta)  Energy = -36.85297632511369
 Total Coulomb        Energy =  29.09201511394033
 ---------------------------------------
  Cycle       Energy         DIIS error
 ---------------------------------------
    1     -40.1872379062      3.79e-02  
 Alpha HF Exchange    Energy =  -0.73536182134338
 Beta HF Exchange     Energy =  -0.58689466714996
 DFT Correlation      Energy =  -0.35553157991762
 DFT Exchange         Energy =  -5.22648685134168
 One-Electron (alpha) Energy = -41.13466035261534
 One-Electron (beta)  Energy = -34.43625839303345
 Total Coulomb        Energy =  31.18834934647158
    2     -40.3140755314      6.24e-03  
 Alpha HF Exchange    Energy =  -0.71600956699037
 Beta HF Exchange     Energy =  -0.57195303980529
 DFT Correlation      Energy =  -0.34580494067044
 DFT Exchange         Energy =  -5.08501835514828
 One-Electron (alpha) Energy = -40.33995895923203
 One-Electron (beta)  Energy = -33.75273879564300
 Total Coulomb        Energy =  29.51600711543839
    3     -40.3227077545      5.41e-03  
 Alpha HF Exchange    Energy =  -0.72739726620993
 Beta HF Exchange     Energy =  -0.57834111138846
 DFT Correlation      Energy =  -0.35009277492253
 DFT Exchange         Energy =  -5.15789395685848
 One-Electron (alpha) Energy = -40.76994629279584
 One-Electron (beta)  Energy = -34.04490888247214
 Total Coulomb        Energy =  30.31347974391229
    4     -40.3423317532      2.11e-04  
 Alpha HF Exchange    Energy =  -0.72766803544314
 Beta HF Exchange     Energy =  -0.57805357938185
 DFT Correlation      Energy =  -0.34989595132981
 DFT Exchange         Energy =  -5.15769654055228
 One-Electron (alpha) Energy = -40.78030074494627
 One-Electron (beta)  Energy = -34.02250422411272
 Total Coulomb        Energy =  30.30096039536043
    5     -40.3423898929      5.19e-05  
 Alpha HF Exchange    Energy =  -0.72778948957597
 Beta HF Exchange     Energy =  -0.57793490153875
 DFT Correlation      Energy =  -0.34984623473363
 DFT Exchange         Energy =  -5.15767156537206
 One-Electron (alpha) Energy = -40.78670013317131
 One-Electron (beta)  Energy = -34.01462982992822
 Total Coulomb        Energy =  30.29940829514599
    6     -40.3423950717      8.41e-06  
 Alpha HF Exchange    Energy =  -0.72782005838455
 Beta HF Exchange     Energy =  -0.57792248040690
 DFT Correlation      Energy =  -0.34984267111611
 DFT Exchange         Energy =  -5.15774078607161
 One-Electron (alpha) Energy = -40.78803325617522
 One-Electron (beta)  Energy = -34.01360770475056
 Total Coulomb        Energy =  30.29980296824804
    7     -40.3423952012      1.27e-06  
 Alpha HF Exchange    Energy =  -0.72782156055128
 Beta HF Exchange     Energy =  -0.57792078039414
 DFT Correlation      Energy =  -0.34984236930675
 DFT Exchange         Energy =  -5.15773987314859
 One-Electron (alpha) Energy = -40.78811096846370
 One-Electron (beta)  Energy = -34.01352810961792
 Total Coulomb        Energy =  30.29979967111116
    8     -40.3423952029      3.00e-07  Convergence criterion met
 ---------------------------------------
 SCF time:   CPU 13.70s  wall 1.00s 
<S^2> =          2.003703736
 Alpha HF Exchange    Energy =  -0.72782156055128
 Beta HF Exchange     Energy =  -0.57792078039414
 DFT Correlation      Energy =  -0.34984236930675
 DFT Exchange         Energy =  -5.15773987314859
 One-Electron (alpha) Energy = -40.78811096846370
 One-Electron (beta)  Energy = -34.01352810961792
 Total Coulomb        Energy =  30.29979967111116
 Nuclear repulsion Energy =  10.97276878750373
 SCF   energy in the final basis set =      -40.3423952029
 Total energy in the final basis set =      -40.3423952029
 
 --------------------------------------------------------------
 
                    Orbital Energies (a.u.)
 --------------------------------------------------------------
 
 Alpha MOs
 -- Occupied --
-10.193  -0.679  -0.414  -0.414  -0.313  -0.223
 -- Virtual --
  0.113   0.180   0.181   0.526   0.541   0.541   0.659   0.768
  0.886   0.886   0.944   1.436   1.436   1.909   1.909   1.951
  1.954   1.954   1.961   2.006   2.281   2.550   2.551   2.706
  2.707   3.233   3.443   3.443   4.275
 
 Beta MOs
 -- Occupied --
-10.179  -0.638  -0.404  -0.404
 -- Virtual --
 -0.057  -0.009   0.129   0.186   0.186   0.549   0.549   0.613
  0.703   0.889   0.890   0.958   1.023   1.483   1.483   1.913
  1.913   2.001   2.037   2.222   2.222   2.223   2.289   2.579
  2.580   2.707   2.707   3.239   3.450   3.451   4.312
 --------------------------------------------------------------
 
          Ground-State Mulliken Net Atomic Charges

     Atom                 Charge (a.u.)    Spin (a.u.)
  --------------------------------------------------------
      1 H                     0.000305       0.999595
      2 C                    -0.367030       1.145968
      3 H                     0.122266      -0.048513
      4 H                     0.122185      -0.048534
      5 H                     0.122275      -0.048516
  --------------------------------------------------------
  Sum of atomic charges =     0.000000
  Sum of spin   charges =     2.000000

 -----------------------------------------------------------------
                    Cartesian Multipole Moments
 -----------------------------------------------------------------
    Charge (ESU x 10^10)
                 0.0000
    Dipole Moment (Debye)
         X      -0.0244      Y      -0.0069      Z      -0.0426
       Tot       0.0495
    Quadrupole Moments (Debye-Ang)
        XX      -8.6656     XY      -0.1054     YY      -8.3285
        XZ      -0.6442     YZ      -0.1849     ZZ      -9.4245
    Octopole Moments (Debye-Ang^2)
       XXX       1.5864    XXY       0.1918    XYY       1.3024
       YYY       0.5433    XXZ       1.9984    XYZ       0.1350
       YYZ       0.6870    XZZ       1.5661    YZZ       0.6166
       ZZZ       5.1913
    Hexadecapole Moments (Debye-Ang^3)
      XXXX     -32.1249   XXXY      -2.5375   XXYY      -8.7744
      XYYY      -2.8705   YYYY     -17.1568   XXXZ     -15.4901
      XXYZ      -1.5764   XYYZ      -5.3753   YYYZ      -4.5839
      XXZZ     -17.7437   XYZZ      -0.9598   YYZZ     -14.0427
      XZZZ     -15.7218   YZZZ      -5.1224   ZZZZ     -71.1458
 -----------------------------------------------------------------
 Calculating analytic gradient of the SCF energy
 Gradient of SCF Energy
            1           2           3           4           5
    1  -0.0004712   0.0010002   0.0013079   0.0019155  -0.0037525
    2  -0.0001510   0.0005893   0.0034177  -0.0037815  -0.0000746
    3  -0.0008412   0.0020897  -0.0018537  -0.0010051   0.0016104
 Max gradient component =       3.782E-03
 RMS gradient           =       1.986E-03
 Gradient time:  CPU 4.66 s  wall 0.59 s
 Geometry Optimization Parameters
   NAtoms,    NIC,     NZ,  NCons,   NDum,   NFix, NCnnct, MaxDiis
        5      50       0       1       0       0       0       0

 Cartesian Hessian Update
 Hessian Updated using BFGS Update


** CONSTRAINED OPTIMIZATION IN DELOCALIZED INTERNAL COORDINATES **
   Searching for a Minimum

   Optimization Cycle:   3

                       Coordinates (Angstroms)
     ATOM                X               Y               Z
      1  H         1.3284425734    0.4084955457    2.3554474427
      2  C        -0.3230761040   -0.0993649206   -0.5727885385
      3  H         0.0717086628    0.8291224194   -0.9797241836
      4  H         0.2024658058   -1.0360734885   -0.7484216973
      5  H        -1.2796419380   -0.1022795559   -0.0547130233
   Point Group: c1    Number of degrees of freedom:     9


   Energy is    -40.342395203

              Constraints and their Current Values
                                        Value     Constraint
   Distance(Angs):        1   2             3.400000     3.400000
 Hessian Updated using BFGS Update

  8 Hessian modes will be used to form the next step
  Hessian Eigenvalues:
     0.049106    0.052446    0.052502    0.078180    0.078183    0.308948
     0.309893    0.311914

 Minimum Search - Taking Simple RFO Step
 Searching for Lamda that Minimizes Along All modes
 Value Taken    Lamda =  -0.00015177
 Step Taken.  Stepsize is  0.026288

                             Maximum     Tolerance    Cnvgd?
         Gradient           0.006603      0.000300      NO
         Displacement       0.021351      0.001200      NO
         Energy change     -0.000228      0.000001      NO


 New Cartesian Coordinates Obtained by Inverse Iteration

 Displacement from previous Coordinates is:  0.020754
 ----------------------------------------------------------------
             Standard Nuclear Orientation (Angstroms)
    I     Atom           X                Y                Z
 ----------------------------------------------------------------
    1      H       1.3278331223     0.4083517665     2.3544218430
    2      C      -0.3236009343    -0.0996343438    -0.5738400691
    3      H       0.0698938697     0.8239340240    -0.9768626692
    4      H       0.1996711526    -1.0305067156    -0.7469142453
    5      H      -1.2738982103    -0.1022447310    -0.0570048593
 ----------------------------------------------------------------
 Nuclear Repulsion Energy =    11.0286818516 hartrees
 There are        6 alpha and        4 beta electrons

                       Distance Matrix (Angstroms)
             H (  1)   C (  2)   H (  3)   H (  4)
   C (  2)  3.400000
   H (  3)  3.585049  1.081778
   H (  4)  3.600187  1.081800  1.873144
   H (  5)  3.583949  1.081753  1.873425  1.873246
 
 Applying Cartesian multipole field
    Component          Value
    ---------          -----
     (2,0,0)        1.00000E-10
     (0,2,0)        2.00000E-10
     (0,0,2)       -3.00000E-11
 Nucleus-field energy     =     0.0000000019 hartrees
 Requested basis set is 6-31G(d,p)
 There are 16 shells and 35 basis functions
 A cutoff of  1.0D-14 yielded    135 shell pairs
 There are       666 function pairs
 Smallest overlap matrix eigenvalue = 2.75E-02
 Guess from superposition of atomic densities
 Warning:  Energy on first SCF cycle will be non-variational
 SAD guess density has 10.000000 electrons

 -----------------------------------------------------------------------
  General SCF calculation program by
  Eric Jon Sundstrom, Paul Horn, Yuezhi Mao, Dmitri Zuev, Alec White,
  David Stuck, Shaama M.S., Shane Yost, Joonho Lee, David Small,
  Daniel Levine, Susi Lehtola, Hugh Burton, Evgeny Epifanovsky
 -----------------------------------------------------------------------
 Exchange:     0.2000 Hartree-Fock + 0.0800 Slater + 0.7200 B88
 Correlation:  0.1900 VWN1RPA + 0.8100 LYP
 Using SG-1 standard quadrature grid
 using 12 threads for integral computing
 -------------------------------------------------------
 OpenMP Integral computing Module                
 Release: version 1.0, May 2013, Q-Chem Inc. Pittsburgh 
 -------------------------------------------------------
 -------------------------------------------------------
 OpenMP BLAS3 based DFT computing Module                
 Release: version 1.0, May 2013, Q-Chem Inc. Pittsburgh 
 -------------------------------------------------------
 A unrestricted SCF calculation will be
 performed using DIIS
 SCF converges when DIIS error is below 1.0e-06
 Alpha HF Exchange    Energy =  -0.61652438474960
 Beta HF Exchange     Energy =  -0.61652438474960
 DFT Correlation      Energy =  -0.36516623409546
 DFT Exchange         Energy =  -4.95255655073247
 One-Electron (alpha) Energy = -36.89897034783905
 One-Electron (beta)  Energy = -36.89897034783905
 Total Coulomb        Energy =  29.12595349933802
 ---------------------------------------
  Cycle       Energy         DIIS error
 ---------------------------------------
    1     -40.1940768972      3.84e-02  
 Alpha HF Exchange    Energy =  -0.73633414036455
 Beta HF Exchange     Energy =  -0.58775062633009
 DFT Correlation      Energy =  -0.35589554085184
 DFT Exchange         Energy =  -5.23313344414741
 One-Electron (alpha) Energy = -41.19523717081589
 One-Electron (beta)  Energy = -34.48872014615537
 Total Coulomb        Energy =  31.25484554410196
    2     -40.3135436711      6.32e-03  
 Alpha HF Exchange    Energy =  -0.71663045844800
 Beta HF Exchange     Energy =  -0.57259354470011
 DFT Correlation      Energy =  -0.34609870370381
 DFT Exchange         Energy =  -5.08948769255203
 One-Electron (alpha) Energy = -40.39073796000665
 One-Electron (beta)  Energy = -33.80068176422028
 Total Coulomb        Energy =  29.56498078548322
    3     -40.3225674846      5.45e-03  
 Alpha HF Exchange    Energy =  -0.72811071683021
 Beta HF Exchange     Energy =  -0.57906057460044
 DFT Correlation      Energy =  -0.35040631409268
 DFT Exchange         Energy =  -5.16301007630921
 One-Electron (alpha) Energy = -40.82311048882682
 One-Electron (beta)  Energy = -34.09450240616066
 Total Coulomb        Energy =  30.36710953883853
    4     -40.3424091845      2.08e-04  
 Alpha HF Exchange    Energy =  -0.72837783630523
 Beta HF Exchange     Energy =  -0.57878154053453
 DFT Correlation      Energy =  -0.35021461468241
 DFT Exchange         Energy =  -5.16283610910308
 One-Electron (alpha) Energy = -40.83331586138441
 One-Electron (beta)  Energy = -34.07266272880334
 Total Coulomb        Energy =  30.35504157340965
    5     -40.3424652639      5.11e-05  
 Alpha HF Exchange    Energy =  -0.72849503635124
 Beta HF Exchange     Energy =  -0.57866561249317
 DFT Correlation      Energy =  -0.35016625684550
 DFT Exchange         Energy =  -5.16280659697369
 One-Electron (alpha) Energy = -40.83951162526032
 One-Electron (beta)  Energy = -34.06500124359517
 Total Coulomb        Energy =  30.35349430931042
    6     -40.3424702087      8.23e-06  
 Alpha HF Exchange    Energy =  -0.72852476464389
 Beta HF Exchange     Energy =  -0.57865356164623
 DFT Correlation      Energy =  -0.35016287222886
 DFT Exchange         Energy =  -5.16287404237988
 One-Electron (alpha) Energy = -40.84080416302774
 One-Electron (beta)  Energy = -34.06401297489138
 Total Coulomb        Energy =  30.35388019414965
    7     -40.3424703312      1.26e-06  
 Alpha HF Exchange    Energy =  -0.72852624592940
 Beta HF Exchange     Energy =  -0.57865190002632
 DFT Correlation      Energy =  -0.35016258688273
 DFT Exchange         Energy =  -5.16287321061847
 One-Electron (alpha) Energy = -40.84087978087063
 One-Electron (beta)  Energy = -34.06393580131131
 Total Coulomb        Energy =  30.35387733931937
    8     -40.3424703328      2.95e-07  Convergence criterion met
 ---------------------------------------
 SCF time:   CPU 14.28s  wall 1.00s 
<S^2> =          2.003632445
 Alpha HF Exchange    Energy =  -0.72852624592940
 Beta HF Exchange     Energy =  -0.57865190002632
 DFT Correlation      Energy =  -0.35016258688273
 DFT Exchange         Energy =  -5.16287321061847
 One-Electron (alpha) Energy = -40.84087978087063
 One-Electron (beta)  Energy = -34.06393580131131
 Total Coulomb        Energy =  30.35387733931937
 Nuclear repulsion Energy =  11.02868185350083
 SCF   energy in the final basis set =      -40.3424703328
 Total energy in the final basis set =      -40.3424703328
 
 --------------------------------------------------------------
 
                    Orbital Energies (a.u.)
 --------------------------------------------------------------
 
 Alpha MOs
 -- Occupied --
-10.191  -0.681  -0.415  -0.415  -0.313  -0.223
 -- Virtual --
  0.115   0.182   0.182   0.527   0.539   0.539   0.659   0.769
  0.890   0.890   0.948   1.436   1.436   1.915   1.915   1.953
  1.954   1.954   1.965   2.007   2.285   2.559   2.559   2.719
  2.720   3.249   3.458   3.458   4.275
 
 Beta MOs
 -- Occupied --
-10.177  -0.640  -0.405  -0.405
 -- Virtual --
 -0.057  -0.009   0.131   0.188   0.188   0.547   0.547   0.613
  0.703   0.894   0.894   0.962   1.023   1.482   1.483   1.919
  1.919   2.002   2.044   2.222   2.222   2.223   2.293   2.588
  2.588   2.720   2.720   3.256   3.466   3.466   4.312
 --------------------------------------------------------------
 
          Ground-State Mulliken Net Atomic Charges

     Atom                 Charge (a.u.)    Spin (a.u.)
  --------------------------------------------------------
      1 H                     0.000308       0.999594
      2 C                    -0.367674       1.145096
      3 H                     0.122463      -0.048228
      4 H                     0.122436      -0.048231
      5 H                     0.122467      -0.048232
  --------------------------------------------------------
  Sum of atomic charges =    -0.000000
  Sum of spin   charges =     2.000000

 -----------------------------------------------------------------
                    Cartesian Multipole Moments
 -----------------------------------------------------------------
    Charge (ESU x 10^10)
                -0.0000
    Dipole Moment (Debye)
         X      -0.0222      Y      -0.0064      Z      -0.0389
       Tot       0.0453
    Quadrupole Moments (Debye-Ang)
        XX      -8.6576     XY      -0.1045     YY      -8.3226
        XZ      -0.6402     YZ      -0.1836     ZZ      -9.4114
    Octopole Moments (Debye-Ang^2)
       XXX       1.6015    XXY       0.1937    XYY       1.2897
       YYY       0.5460    XXZ       1.9905    XYZ       0.1343
       YYZ       0.6993    XZZ       1.5619    YZZ       0.6122
       ZZZ       5.1847
    Hexadecapole Moments (Debye-Ang^3)
      XXXX     -32.0301   XXXY      -2.5436   XXYY      -8.7253
      XYYY      -2.8677   YYYY     -17.0369   XXXZ     -15.4969
      XXYZ      -1.5787   XYYZ      -5.3711   YYYZ      -4.5894
      XXZZ     -17.7033   XYZZ      -0.9616   YYZZ     -14.0179
      XZZZ     -15.7344   YZZZ      -5.1198   ZZZZ     -71.0478
 -----------------------------------------------------------------
 Calculating analytic gradient of the SCF energy
 Gradient of SCF Energy
            1           2           3           4           5
    1  -0.0004708   0.0010010  -0.0002314  -0.0002699  -0.0000289
    2  -0.0001509   0.0003137  -0.0002151   0.0001195  -0.0000672
    3  -0.0008407   0.0017830  -0.0002634  -0.0002731  -0.0004058
 Max gradient component =       1.783E-03
 RMS gradient           =       6.181E-04
 Gradient time:  CPU 4.19 s  wall 0.62 s
 Geometry Optimization Parameters
   NAtoms,    NIC,     NZ,  NCons,   NDum,   NFix, NCnnct, MaxDiis
        5      50       0       1       0       0       0       0

 Cartesian Hessian Update
 Hessian Updated using BFGS Update


** CONSTRAINED OPTIMIZATION IN DELOCALIZED INTERNAL COORDINATES **
   Searching for a Minimum

   Optimization Cycle:   4

                       Coordinates (Angstroms)
     ATOM                X               Y               Z
      1  H         1.3278331223    0.4083517665    2.3544218430
      2  C        -0.3236009343   -0.0996343438   -0.5738400691
      3  H         0.0698938697    0.8239340240   -0.9768626692
      4  H         0.1996711526   -1.0305067156   -0.7469142453
      5  H        -1.2738982103   -0.1022447310   -0.0570048593
   Point Group: c1    Number of degrees of freedom:     9


   Energy is    -40.342470333

              Constraints and their Current Values
                                        Value     Constraint
   Distance(Angs):        1   2             3.400000     3.400000
 Hessian Updated using BFGS Update

  8 Hessian modes will be used to form the next step
  Hessian Eigenvalues:
     0.045555    0.052446    0.052502    0.078178    0.078183    0.309444
     0.309895    0.341146

 Minimum Search - Taking Simple RFO Step
 Searching for Lamda that Minimizes Along All modes
 Value Taken    Lamda =  -0.00000304
 Step Taken.  Stepsize is  0.007611

                             Maximum     Tolerance    Cnvgd?
         Gradient           0.000373      0.000300      NO
         Displacement       0.007576      0.001200      NO
         Energy change     -0.000075      0.000001      NO


 New Cartesian Coordinates Obtained by Inverse Iteration

 Displacement from previous Coordinates is:  0.002941
 ----------------------------------------------------------------
             Standard Nuclear Orientation (Angstroms)
    I     Atom           X                Y                Z
 ----------------------------------------------------------------
    1      H       1.3274091301     0.4082483586     2.3537007066
    2      C      -0.3240024238    -0.0997710697    -0.5745681160
    3      H       0.0702000977     0.8241275917    -0.9763863648
    4      H       0.1999939992    -1.0305710127    -0.7465011891
    5      H      -1.2737018031    -0.1021338679    -0.0564450366
 ----------------------------------------------------------------
 Nuclear Repulsion Energy =    11.0279617988 hartrees
 There are        6 alpha and        4 beta electrons

                       Distance Matrix (Angstroms)
             H (  1)   C (  2)   H (  3)   H (  4)
   C (  2)  3.400000
   H (  3)  3.583715  1.081870
   H (  4)  3.598961  1.081907  1.873393
   H (  5)  3.582607  1.081844  1.873586  1.873487
 
 Applying Cartesian multipole field
    Component          Value
    ---------          -----
     (2,0,0)        1.00000E-10
     (0,2,0)        2.00000E-10
     (0,0,2)       -3.00000E-11
 Nucleus-field energy     =     0.0000000019 hartrees
 Requested basis set is 6-31G(d,p)
 There are 16 shells and 35 basis functions
 A cutoff of  1.0D-14 yielded    135 shell pairs
 There are       666 function pairs
 Smallest overlap matrix eigenvalue = 2.76E-02
 Guess from superposition of atomic densities
 Warning:  Energy on first SCF cycle will be non-variational
 SAD guess density has 10.000000 electrons

 -----------------------------------------------------------------------
  General SCF calculation program by
  Eric Jon Sundstrom, Paul Horn, Yuezhi Mao, Dmitri Zuev, Alec White,
  David Stuck, Shaama M.S., Shane Yost, Joonho Lee, David Small,
  Daniel Levine, Susi Lehtola, Hugh Burton, Evgeny Epifanovsky
 -----------------------------------------------------------------------
 Exchange:     0.2000 Hartree-Fock + 0.0800 Slater + 0.7200 B88
 Correlation:  0.1900 VWN1RPA + 0.8100 LYP
 Using SG-1 standard quadrature grid
 using 12 threads for integral computing
 -------------------------------------------------------
 OpenMP Integral computing Module                
 Release: version 1.0, May 2013, Q-Chem Inc. Pittsburgh 
 -------------------------------------------------------
 -------------------------------------------------------
 OpenMP BLAS3 based DFT computing Module                
 Release: version 1.0, May 2013, Q-Chem Inc. Pittsburgh 
 -------------------------------------------------------
 A unrestricted SCF calculation will be
 performed using DIIS
 SCF converges when DIIS error is below 1.0e-06
 Alpha HF Exchange    Energy =  -0.61650761663371
 Beta HF Exchange     Energy =  -0.61650761663371
 DFT Correlation      Energy =  -0.36516308819006
 DFT Exchange         Energy =  -4.95251892892543
 One-Electron (alpha) Energy = -36.89840531821763
 One-Electron (beta)  Energy = -36.89840531821763
 Total Coulomb        Energy =  29.12557730077438
 ---------------------------------------
  Cycle       Energy         DIIS error
 ---------------------------------------
    1     -40.1939687853      3.84e-02  
 Alpha HF Exchange    Energy =  -0.73631836799851
 Beta HF Exchange     Energy =  -0.58773753516145
 DFT Correlation      Energy =  -0.35589076974448
 DFT Exchange         Energy =  -5.23302879938949
 One-Electron (alpha) Energy = -41.19452035830472
 One-Electron (beta)  Energy = -34.48798509006678
 Total Coulomb        Energy =  31.25396371780088
    2     -40.3135554021      6.32e-03  
 Alpha HF Exchange    Energy =  -0.71661933856980
 Beta HF Exchange     Energy =  -0.57258353596826
 DFT Correlation      Energy =  -0.34609508491711
 DFT Exchange         Energy =  -5.08941295203331
 One-Electron (alpha) Energy = -40.39016269838622
 One-Electron (beta)  Energy = -33.80002044476306
 Total Coulomb        Energy =  29.56435889341968
    3     -40.3225733605      5.45e-03  
 Alpha HF Exchange    Energy =  -0.72809854978439
 Beta HF Exchange     Energy =  -0.57904936624924
 DFT Correlation      Energy =  -0.35040239348109
 DFT Exchange         Energy =  -5.16292674077681
 One-Electron (alpha) Energy = -40.82250298175683
 One-Electron (beta)  Energy = -34.09381036929111
 Total Coulomb        Energy =  30.36641650215498
    4     -40.3424120984      2.08e-04  
 Alpha HF Exchange    Energy =  -0.72836577774522
 Beta HF Exchange     Energy =  -0.57877015879738
 DFT Correlation      Energy =  -0.35021065212965
 DFT Exchange         Energy =  -5.16275246409014
 One-Electron (alpha) Energy = -40.83271364365429
 One-Electron (beta)  Energy = -34.07196172170628
 Total Coulomb        Energy =  30.35434441140521
    5     -40.3424682060      5.11e-05  
 Alpha HF Exchange    Energy =  -0.72848307979670
 Beta HF Exchange     Energy =  -0.57865415421834
 DFT Correlation      Energy =  -0.35016226184888
 DFT Exchange         Energy =  -5.16272301853950
 One-Electron (alpha) Energy = -40.83891417278194
 One-Electron (beta)  Energy = -34.06429439815219
 Total Coulomb        Energy =  30.35279612933159
    6     -40.3424731553      8.21e-06  
 Alpha HF Exchange    Energy =  -0.72851286662286
 Beta HF Exchange     Energy =  -0.57864209233763
 DFT Correlation      Energy =  -0.35015888337133
 DFT Exchange         Energy =  -5.16279065249946
 One-Electron (alpha) Energy = -40.84020894977543
 One-Electron (beta)  Energy = -34.06330554983457
 Total Coulomb        Energy =  30.35318391621870
    7     -40.3424732775      1.20e-06  
 Alpha HF Exchange    Energy =  -0.72851429192988
 Beta HF Exchange     Energy =  -0.57864043291963
 DFT Correlation      Energy =  -0.35015859622201
 DFT Exchange         Energy =  -5.16278960905417
 One-Electron (alpha) Energy = -40.84028240592509
 One-Electron (beta)  Energy = -34.06322922211393
 Total Coulomb        Energy =  30.35317947839626
    8     -40.3424732790      2.90e-07  Convergence criterion met
 ---------------------------------------
 SCF time:   CPU 13.34s  wall 1.00s 
<S^2> =          2.003634782
 Alpha HF Exchange    Energy =  -0.72851429192988
 Beta HF Exchange     Energy =  -0.57864043291963
 DFT Correlation      Energy =  -0.35015859622201
 DFT Exchange         Energy =  -5.16278960905417
 One-Electron (alpha) Energy = -40.84028240592509
 One-Electron (beta)  Energy = -34.06322922211393
 Total Coulomb        Energy =  30.35317947839626
 Nuclear repulsion Energy =  11.02796180074062
 SCF   energy in the final basis set =      -40.3424732790
 Total energy in the final basis set =      -40.3424732790
 
 --------------------------------------------------------------
 
                    Orbital Energies (a.u.)
 --------------------------------------------------------------
 
 Alpha MOs
 -- Occupied --
-10.191  -0.681  -0.415  -0.415  -0.313  -0.223
 -- Virtual --
  0.115   0.182   0.182   0.527   0.539   0.540   0.659   0.769
  0.890   0.890   0.948   1.436   1.436   1.915   1.915   1.953
  1.954   1.954   1.965   2.007   2.284   2.559   2.559   2.719
  2.719   3.249   3.458   3.458   4.275
 
 Beta MOs
 -- Occupied --
-10.177  -0.640  -0.405  -0.405
 -- Virtual --
 -0.057  -0.009   0.131   0.188   0.188   0.547   0.547   0.613
  0.703   0.894   0.894   0.962   1.023   1.483   1.483   1.919
  1.919   2.002   2.044   2.222   2.222   2.223   2.293   2.588
  2.588   2.720   2.720   3.256   3.466   3.466   4.312
 --------------------------------------------------------------
 
          Ground-State Mulliken Net Atomic Charges

     Atom                 Charge (a.u.)    Spin (a.u.)
  --------------------------------------------------------
      1 H                     0.000309       0.999592
      2 C                    -0.367682       1.145153
      3 H                     0.122465      -0.048246
      4 H                     0.122440      -0.048250
      5 H                     0.122469      -0.048250
  --------------------------------------------------------
  Sum of atomic charges =    -0.000000
  Sum of spin   charges =     2.000000

 -----------------------------------------------------------------
                    Cartesian Multipole Moments
 -----------------------------------------------------------------
    Charge (ESU x 10^10)
                 0.0000
    Dipole Moment (Debye)
         X      -0.0207      Y      -0.0060      Z      -0.0363
       Tot       0.0422
    Quadrupole Moments (Debye-Ang)
        XX      -8.6586     XY      -0.1049     YY      -8.3225
        XZ      -0.6421     YZ      -0.1841     ZZ      -9.4148
    Octopole Moments (Debye-Ang^2)
       XXX       1.6108    XXY       0.1948    XYY       1.2932
       YYY       0.5489    XXZ       1.9967    XYZ       0.1346
       YYZ       0.7045    XZZ       1.5660    YZZ       0.6134
       ZZZ       5.2031
    Hexadecapole Moments (Debye-Ang^3)
      XXXX     -32.0335   XXXY      -2.5442   XXYY      -8.7255
      XYYY      -2.8678   YYYY     -17.0390   XXXZ     -15.4977
      XXYZ      -1.5790   XYYZ      -5.3711   YYYZ      -4.5904
      XXZZ     -17.7039   XYZZ      -0.9617   YYZZ     -14.0199
      XZZZ     -15.7349   YZZZ      -5.1201   ZZZZ     -71.0528
 -----------------------------------------------------------------
 Calculating analytic gradient of the SCF energy
 Gradient of SCF Energy
            1           2           3           4           5
    1  -0.0004705   0.0009760  -0.0002027  -0.0002223  -0.0000806
    2  -0.0001508   0.0003081  -0.0001503   0.0000517  -0.0000588
    3  -0.0008401   0.0017403  -0.0002712  -0.0002703  -0.0003588
 Max gradient component =       1.740E-03
 RMS gradient           =       6.015E-04
 Gradient time:  CPU 4.65 s  wall 0.60 s
 Geometry Optimization Parameters
   NAtoms,    NIC,     NZ,  NCons,   NDum,   NFix, NCnnct, MaxDiis
        5      50       0       1       0       0       0       0

 Cartesian Hessian Update
 Hessian Updated using BFGS Update


** CONSTRAINED OPTIMIZATION IN DELOCALIZED INTERNAL COORDINATES **
   Searching for a Minimum

   Optimization Cycle:   5

                       Coordinates (Angstroms)
     ATOM                X               Y               Z
      1  H         1.3274091301    0.4082483586    2.3537007066
      2  C        -0.3240024238   -0.0997710697   -0.5745681160
      3  H         0.0702000977    0.8241275917   -0.9763863648
      4  H         0.1999939992   -1.0305710127   -0.7465011891
      5  H        -1.2737018031   -0.1021338679   -0.0564450366
   Point Group: c1    Number of degrees of freedom:     9


   Energy is    -40.342473279

              Constraints and their Current Values
                                        Value     Constraint
   Distance(Angs):        1   2             3.400000     3.400000
 Hessian Updated using BFGS Update

  8 Hessian modes will be used to form the next step
  Hessian Eigenvalues:
     0.002520    0.052446    0.052502    0.078183    0.078276    0.309563
     0.309896    0.373969

 Minimum Search - Taking Simple RFO Step
 Searching for Lamda that Minimizes Along All modes
 Value Taken    Lamda =  -0.00005201
 Step Taken.  Stepsize is  0.142016

                             Maximum     Tolerance    Cnvgd?
         Gradient           0.000353      0.000300      NO
         Displacement       0.141740      0.001200      NO
         Energy change     -0.000003      0.000001      NO


 New Cartesian Coordinates Obtained by Inverse Iteration

 Displacement from previous Coordinates is:  0.054012
 ----------------------------------------------------------------
             Standard Nuclear Orientation (Angstroms)
    I     Atom           X                Y                Z
 ----------------------------------------------------------------
    1      H       1.3195175273     0.4063660698     2.3403413483
    2      C      -0.3314662872    -0.1022789849    -0.5880600602
    3      H       0.0754321991     0.8261376631    -0.9670055615
    4      H       0.2049607758    -1.0300509227    -0.7386550927
    5      H      -1.2685452150    -0.1002738254    -0.0468206339
 ----------------------------------------------------------------
 Nuclear Repulsion Energy =    11.0280769507 hartrees
 There are        6 alpha and        4 beta electrons

                       Distance Matrix (Angstroms)
             H (  1)   C (  2)   H (  3)   H (  4)
   C (  2)  3.400000
   H (  3)  3.558441  1.082185
   H (  4)  3.575717  1.082217  1.874662
   H (  5)  3.557147  1.082156  1.873834  1.874657
 
 Applying Cartesian multipole field
    Component          Value
    ---------          -----
     (2,0,0)        1.00000E-10
     (0,2,0)        2.00000E-10
     (0,0,2)       -3.00000E-11
 Nucleus-field energy     =     0.0000000019 hartrees
 Requested basis set is 6-31G(d,p)
 There are 16 shells and 35 basis functions
 A cutoff of  1.0D-14 yielded    135 shell pairs
 There are       666 function pairs
 Smallest overlap matrix eigenvalue = 2.76E-02
 Guess from superposition of atomic densities
 Warning:  Energy on first SCF cycle will be non-variational
 SAD guess density has 10.000000 electrons

 -----------------------------------------------------------------------
  General SCF calculation program by
  Eric Jon Sundstrom, Paul Horn, Yuezhi Mao, Dmitri Zuev, Alec White,
  David Stuck, Shaama M.S., Shane Yost, Joonho Lee, David Small,
  Daniel Levine, Susi Lehtola, Hugh Burton, Evgeny Epifanovsky
 -----------------------------------------------------------------------
 Exchange:     0.2000 Hartree-Fock + 0.0800 Slater + 0.7200 B88
 Correlation:  0.1900 VWN1RPA + 0.8100 LYP
 Using SG-1 standard quadrature grid
 using 12 threads for integral computing
 -------------------------------------------------------
 OpenMP Integral computing Module                
 Release: version 1.0, May 2013, Q-Chem Inc. Pittsburgh 
 -------------------------------------------------------
 -------------------------------------------------------
 OpenMP BLAS3 based DFT computing Module                
 Release: version 1.0, May 2013, Q-Chem Inc. Pittsburgh 
 -------------------------------------------------------
 A unrestricted SCF calculation will be
 performed using DIIS
 SCF converges when DIIS error is below 1.0e-06
 Alpha HF Exchange    Energy =  -0.61645189420368
 Beta HF Exchange     Energy =  -0.61645189420368
 DFT Correlation      Energy =  -0.36515959575926
 DFT Exchange         Energy =  -4.95238918438491
 One-Electron (alpha) Energy = -36.89902543251721
 One-Electron (beta)  Energy = -36.89902543251721
 Total Coulomb        Energy =  29.12681686382197
 ---------------------------------------
  Cycle       Energy         DIIS error
 ---------------------------------------
    1     -40.1936096172      3.83e-02  
 Alpha HF Exchange    Energy =  -0.73626051555217
 Beta HF Exchange     Energy =  -0.58769516799956
 DFT Correlation      Energy =  -0.35588237321678
 DFT Exchange         Energy =  -5.23266758762841
 One-Electron (alpha) Energy = -41.19545074028994
 One-Electron (beta)  Energy = -34.48686628506656
 Total Coulomb        Energy =  31.25313897090633
    2     -40.3136067462      6.31e-03  
 Alpha HF Exchange    Energy =  -0.71657613491365
 Beta HF Exchange     Energy =  -0.57254902449214
 DFT Correlation      Energy =  -0.34609137482433
 DFT Exchange         Energy =  -5.08913833904315
 One-Electron (alpha) Energy = -40.39155191976095
 One-Electron (beta)  Energy = -33.79930993675799
 Total Coulomb        Energy =  29.56453113582031
    3     -40.3226086414      5.44e-03  
 Alpha HF Exchange    Energy =  -0.72805347629098
 Beta HF Exchange     Energy =  -0.57901140270223
 DFT Correlation      Energy =  -0.35039728853705
 DFT Exchange         Energy =  -5.16263121152653
 One-Electron (alpha) Energy = -40.82376459842305
 One-Electron (beta)  Energy = -34.09293179327842
 Total Coulomb        Energy =  30.36627297834147
    4     -40.3424398398      2.08e-04  
 Alpha HF Exchange    Energy =  -0.72832125447317
 Beta HF Exchange     Energy =  -0.57873145234034
 DFT Correlation      Energy =  -0.35020560116167
 DFT Exchange         Energy =  -5.16245600956440
 One-Electron (alpha) Energy = -40.83400075942289
 One-Electron (beta)  Energy = -34.07106848598922
 Total Coulomb        Energy =  30.35421056962809
    5     -40.3424960407      5.12e-05  
 Alpha HF Exchange    Energy =  -0.72843904282482
 Beta HF Exchange     Energy =  -0.57861509776510
 DFT Correlation      Energy =  -0.35015708984118
 DFT Exchange         Energy =  -5.16242691964671
 One-Electron (alpha) Energy = -40.84021719912862
 One-Electron (beta)  Energy = -34.06337708321941
 Total Coulomb        Energy =  30.35265446964886
    6     -40.3425010102      8.07e-06  
 Alpha HF Exchange    Energy =  -0.72846912147651
 Beta HF Exchange     Energy =  -0.57860295497659
 DFT Correlation      Energy =  -0.35015375346362
 DFT Exchange         Energy =  -5.16249540064294
 One-Electron (alpha) Energy = -40.84152492467909
 One-Electron (beta)  Energy = -34.06238724694755
 Total Coulomb        Energy =  30.35305531840934
    7     -40.3425011312      8.58e-07  Convergence criterion met
 ---------------------------------------
 SCF time:   CPU 12.44s  wall 1.00s 
<S^2> =          2.003647383
 Alpha HF Exchange    Energy =  -0.72846912147651
 Beta HF Exchange     Energy =  -0.57860295497659
 DFT Correlation      Energy =  -0.35015375346362
 DFT Exchange         Energy =  -5.16249540064294
 One-Electron (alpha) Energy = -40.84152492467909
 One-Electron (beta)  Energy = -34.06238724694755
 Total Coulomb        Energy =  30.35305531840934
 Nuclear repulsion Energy =  11.02807695261049
 SCF   energy in the final basis set =      -40.3425011312
 Total energy in the final basis set =      -40.3425011312
 
 --------------------------------------------------------------
 
                    Orbital Energies (a.u.)
 --------------------------------------------------------------
 
 Alpha MOs
 -- Occupied --
-10.191  -0.681  -0.415  -0.415  -0.313  -0.223
 -- Virtual --
  0.115   0.182   0.182   0.527   0.540   0.540   0.658   0.769
  0.890   0.890   0.948   1.436   1.436   1.914   1.915   1.952
  1.954   1.954   1.967   2.007   2.282   2.560   2.561   2.716
  2.717   3.249   3.457   3.458   4.275
 
 Beta MOs
 -- Occupied --
-10.177  -0.640  -0.405  -0.405
 -- Virtual --
 -0.057  -0.010   0.131   0.187   0.188   0.547   0.547   0.613
  0.703   0.893   0.893   0.962   1.022   1.483   1.483   1.917
  1.918   2.002   2.046   2.221   2.221   2.223   2.290   2.590
  2.590   2.717   2.717   3.255   3.465   3.466   4.312
 --------------------------------------------------------------
 
          Ground-State Mulliken Net Atomic Charges

     Atom                 Charge (a.u.)    Spin (a.u.)
  --------------------------------------------------------
      1 H                     0.000326       0.999570
      2 C                    -0.367784       1.145549
      3 H                     0.122477      -0.048370
      4 H                     0.122506      -0.048375
      5 H                     0.122475      -0.048374
  --------------------------------------------------------
  Sum of atomic charges =     0.000000
  Sum of spin   charges =     2.000000

 -----------------------------------------------------------------
                    Cartesian Multipole Moments
 -----------------------------------------------------------------
    Charge (ESU x 10^10)
                 0.0000
    Dipole Moment (Debye)
         X       0.0071      Y       0.0022      Z       0.0125
       Tot       0.0146
    Quadrupole Moments (Debye-Ang)
        XX      -8.6779     XY      -0.1115     YY      -8.3215
        XZ      -0.6751     YZ      -0.1920     ZZ      -9.4718
    Octopole Moments (Debye-Ang^2)
       XXX       1.7864    XXY       0.2153    XYY       1.3517
       YYY       0.6009    XXZ       2.1081    XYZ       0.1378
       YYZ       0.8033    XZZ       1.6384    YZZ       0.6341
       ZZZ       5.5354
    Hexadecapole Moments (Debye-Ang^3)
      XXXX     -32.0801   XXXY      -2.5568   XXYY      -8.7183
      XYYY      -2.8693   YYYY     -17.0511   XXXZ     -15.5165
      XXYZ      -1.5853   XYYZ      -5.3708   YYYZ      -4.6092
      XXZZ     -17.7076   XYZZ      -0.9634   YYZZ     -14.0533
      XZZZ     -15.7485   YZZZ      -5.1240   ZZZZ     -71.1283
 -----------------------------------------------------------------
 Calculating analytic gradient of the SCF energy
 Gradient of SCF Energy
            1           2           3           4           5
    1  -0.0004636   0.0005686  -0.0000195   0.0000628  -0.0001483
    2  -0.0001489   0.0000702   0.0001555  -0.0001431   0.0000664
    3  -0.0008284   0.0008837  -0.0000516  -0.0000302   0.0000265
 Max gradient component =       8.837E-04
 RMS gradient           =       3.752E-04
 Gradient time:  CPU 4.70 s  wall 0.61 s
 Geometry Optimization Parameters
   NAtoms,    NIC,     NZ,  NCons,   NDum,   NFix, NCnnct, MaxDiis
        5      50       0       1       0       0       0       0

 Cartesian Hessian Update
 Hessian Updated using BFGS Update


** CONSTRAINED OPTIMIZATION IN DELOCALIZED INTERNAL COORDINATES **
   Searching for a Minimum

   Optimization Cycle:   6

                       Coordinates (Angstroms)
     ATOM                X               Y               Z
      1  H         1.3195175273    0.4063660698    2.3403413483
      2  C        -0.3314662872   -0.1022789849   -0.5880600602
      3  H         0.0754321991    0.8261376631   -0.9670055615
      4  H         0.2049607758   -1.0300509227   -0.7386550927
      5  H        -1.2685452150   -0.1002738254   -0.0468206339
   Point Group: c1    Number of degrees of freedom:     9


   Energy is    -40.342501131

              Constraints and their Current Values
                                        Value     Constraint
   Distance(Angs):        1   2             3.400000     3.400000
 Hessian Updated using BFGS Update

  8 Hessian modes will be used to form the next step
  Hessian Eigenvalues:
     0.002349    0.052446    0.052504    0.078183    0.078366    0.309564
     0.309896    0.377483

 Minimum Search - Taking Simple RFO Step
 Searching for Lamda that Minimizes Along All modes
 Value Taken    Lamda =   0.00000000
 Step Taken.  Stepsize is  0.013085

                             Maximum     Tolerance    Cnvgd?
         Gradient           0.000232      0.000300     YES
         Displacement       0.013046      0.001200      NO
         Energy change     -0.000028      0.000001      NO


 New Cartesian Coordinates Obtained by Inverse Iteration

 Displacement from previous Coordinates is:  0.004965
 ----------------------------------------------------------------
             Standard Nuclear Orientation (Angstroms)
    I     Atom           X                Y                Z
 ----------------------------------------------------------------
    1      H       1.3187729867     0.4062253951     2.3391398250
    2      C      -0.3321855584    -0.1024438792    -0.5892716230
    3      H       0.0759634334     0.8260801814    -0.9661193829
    4      H       0.2052241402    -1.0297337550    -0.7379799242
    5      H      -1.2678760020    -0.1002279423    -0.0459688950
 ----------------------------------------------------------------
 Nuclear Repulsion Energy =    11.0299304747 hartrees
 There are        6 alpha and        4 beta electrons

                       Distance Matrix (Angstroms)
             H (  1)   C (  2)   H (  3)   H (  4)
   C (  2)  3.400000
   H (  3)  3.556064  1.082015
   H (  4)  3.573603  1.082030  1.874247
   H (  5)  3.554714  1.081989  1.873667  1.874269
 
 Applying Cartesian multipole field
    Component          Value
    ---------          -----
     (2,0,0)        1.00000E-10
     (0,2,0)        2.00000E-10
     (0,0,2)       -3.00000E-11
 Nucleus-field energy     =     0.0000000019 hartrees
 Requested basis set is 6-31G(d,p)
 There are 16 shells and 35 basis functions
 A cutoff of  1.0D-14 yielded    135 shell pairs
 There are       666 function pairs
 Smallest overlap matrix eigenvalue = 2.76E-02
 Guess from superposition of atomic densities
 Warning:  Energy on first SCF cycle will be non-variational
 SAD guess density has 10.000000 electrons

 -----------------------------------------------------------------------
  General SCF calculation program by
  Eric Jon Sundstrom, Paul Horn, Yuezhi Mao, Dmitri Zuev, Alec White,
  David Stuck, Shaama M.S., Shane Yost, Joonho Lee, David Small,
  Daniel Levine, Susi Lehtola, Hugh Burton, Evgeny Epifanovsky
 -----------------------------------------------------------------------
 Exchange:     0.2000 Hartree-Fock + 0.0800 Slater + 0.7200 B88
 Correlation:  0.1900 VWN1RPA + 0.8100 LYP
 Using SG-1 standard quadrature grid
 using 12 threads for integral computing
 -------------------------------------------------------
 OpenMP Integral computing Module                
 Release: version 1.0, May 2013, Q-Chem Inc. Pittsburgh 
 -------------------------------------------------------
 -------------------------------------------------------
 OpenMP BLAS3 based DFT computing Module                
 Release: version 1.0, May 2013, Q-Chem Inc. Pittsburgh 
 -------------------------------------------------------
 A unrestricted SCF calculation will be
 performed using DIIS
 SCF converges when DIIS error is below 1.0e-06
 Alpha HF Exchange    Energy =  -0.61648171872929
 Beta HF Exchange     Energy =  -0.61648171872929
 DFT Correlation      Energy =  -0.36516676067151
 DFT Exchange         Energy =  -4.95245534796722
 One-Electron (alpha) Energy = -36.90059873158459
 One-Electron (beta)  Energy = -36.90059873158459
 Total Coulomb        Energy =  29.12805034416341
 ---------------------------------------
  Cycle       Energy         DIIS error
 ---------------------------------------
    1     -40.1938021885      3.83e-02  
 Alpha HF Exchange    Energy =  -0.73628739474761
 Beta HF Exchange     Energy =  -0.58771901504577
 DFT Correlation      Energy =  -0.35589289045431
 DFT Exchange         Energy =  -5.23285209621269
 One-Electron (alpha) Energy = -41.19749600940011
 One-Electron (beta)  Energy = -34.48848273658014
 Total Coulomb        Energy =  31.25520986514138
    2     -40.3135898007      6.32e-03  
 Alpha HF Exchange    Energy =  -0.71659399012766
 Beta HF Exchange     Energy =  -0.57256672491616
 DFT Correlation      Energy =  -0.34610002302188
 DFT Exchange         Energy =  -5.08926426263077
 One-Electron (alpha) Energy = -40.39333385671772
 One-Electron (beta)  Energy = -33.80082649834489
 Total Coulomb        Energy =  29.56615186172360
    3     -40.3226030175      5.44e-03  
 Alpha HF Exchange    Energy =  -0.72807375978408
 Beta HF Exchange     Energy =  -0.57903137405126
 DFT Correlation      Energy =  -0.35040640842560
 DFT Exchange         Energy =  -5.16277491381224
 One-Electron (alpha) Energy = -40.82560370854849
 One-Electron (beta)  Energy = -34.09448798113075
 Total Coulomb        Energy =  30.36800743661590
    4     -40.3424402326      2.08e-04  
 Alpha HF Exchange    Energy =  -0.72834141289707
 Beta HF Exchange     Energy =  -0.57875167665282
 DFT Correlation      Energy =  -0.35021485692446
 DFT Exchange         Energy =  -5.16260032340405
 One-Electron (alpha) Energy = -40.83583384037127
 One-Electron (beta)  Energy = -34.07264346041127
 Total Coulomb        Energy =  30.35595871363597
    5     -40.3424963805      5.11e-05  
 Alpha HF Exchange    Energy =  -0.72845906999327
 Beta HF Exchange     Energy =  -0.57863541843964
 DFT Correlation      Energy =  -0.35016639298616
 DFT Exchange         Energy =  -5.16257113513962
 One-Electron (alpha) Energy = -40.84204284828664
 One-Electron (beta)  Energy = -34.06495988736972
 Total Coulomb        Energy =  30.35440293225878
    6     -40.3425013434      8.09e-06  
 Alpha HF Exchange    Energy =  -0.72848908956408
 Beta HF Exchange     Energy =  -0.57862328580045
 DFT Correlation      Energy =  -0.35016305632217
 DFT Exchange         Energy =  -5.16263942543113
 One-Electron (alpha) Energy = -40.84334853380877
 One-Electron (beta)  Energy = -34.06397135631851
 Total Coulomb        Energy =  30.35480280619822
    7     -40.3425014645      9.23e-07  Convergence criterion met
 ---------------------------------------
 SCF time:   CPU 12.18s  wall 1.00s 
<S^2> =          2.003644880
 Alpha HF Exchange    Energy =  -0.72848908956408
 Beta HF Exchange     Energy =  -0.57862328580045
 DFT Correlation      Energy =  -0.35016305632217
 DFT Exchange         Energy =  -5.16263942543113
 One-Electron (alpha) Energy = -40.84334853380877
 One-Electron (beta)  Energy = -34.06397135631851
 Total Coulomb        Energy =  30.35480280619822
 Nuclear repulsion Energy =  11.02993047655436
 SCF   energy in the final basis set =      -40.3425014645
 Total energy in the final basis set =      -40.3425014645
 
 --------------------------------------------------------------
 
                    Orbital Energies (a.u.)
 --------------------------------------------------------------
 
 Alpha MOs
 -- Occupied --
-10.191  -0.681  -0.415  -0.415  -0.313  -0.223
 -- Virtual --
  0.115   0.182   0.182   0.527   0.539   0.540   0.658   0.769
  0.890   0.890   0.948   1.436   1.436   1.914   1.915   1.951
  1.953   1.954   1.967   2.007   2.283   2.561   2.561   2.717
  2.717   3.249   3.458   3.458   4.275
 
 Beta MOs
 -- Occupied --
-10.177  -0.640  -0.405  -0.405
 -- Virtual --
 -0.057  -0.010   0.131   0.188   0.188   0.547   0.547   0.613
  0.703   0.893   0.894   0.962   1.022   1.483   1.483   1.918
  1.918   2.002   2.046   2.221   2.221   2.222   2.290   2.590
  2.590   2.717   2.718   3.255   3.465   3.466   4.312
 --------------------------------------------------------------
 
          Ground-State Mulliken Net Atomic Charges

     Atom                 Charge (a.u.)    Spin (a.u.)
  --------------------------------------------------------
      1 H                     0.000328       0.999568
      2 C                    -0.367794       1.145513
      3 H                     0.122482      -0.048358
      4 H                     0.122502      -0.048361
      5 H                     0.122482      -0.048362
  --------------------------------------------------------
  Sum of atomic charges =     0.000000
  Sum of spin   charges =     2.000000

 -----------------------------------------------------------------
                    Cartesian Multipole Moments
 -----------------------------------------------------------------
    Charge (ESU x 10^10)
                -0.0000
    Dipole Moment (Debye)
         X       0.0096      Y       0.0029      Z       0.0170
       Tot       0.0197
    Quadrupole Moments (Debye-Ang)
        XX      -8.6793     XY      -0.1115     YY      -8.3218
        XZ      -0.6780     YZ      -0.1927     ZZ      -9.4762
    Octopole Moments (Debye-Ang^2)
       XXX       1.8032    XXY       0.2166    XYY       1.3566
       YYY       0.6049    XXZ       2.1177    XYZ       0.1378
       YYZ       0.8128    XZZ       1.6449    YZZ       0.6354
       ZZZ       5.5640
    Hexadecapole Moments (Debye-Ang^3)
      XXXX     -32.0817   XXXY      -2.5581   XXYY      -8.7160
      XYYY      -2.8693   YYYY     -17.0485   XXXZ     -15.5186
      XXYZ      -1.5859   XYYZ      -5.3707   YYYZ      -4.6109
      XXZZ     -17.7069   XYZZ      -0.9636   YYZZ     -14.0556
      XZZZ     -15.7503   YZZZ      -5.1241   ZZZZ     -71.1324
 -----------------------------------------------------------------
 Calculating analytic gradient of the SCF energy
 Gradient of SCF Energy
            1           2           3           4           5
    1  -0.0004630   0.0005182  -0.0000338   0.0000104  -0.0000318
    2  -0.0001488   0.0000694   0.0000471  -0.0000199   0.0000522
    3  -0.0008273   0.0008117   0.0000078   0.0000130  -0.0000051
 Max gradient component =       8.273E-04
 RMS gradient           =       3.522E-04
 Gradient time:  CPU 4.50 s  wall 0.63 s
 Geometry Optimization Parameters
   NAtoms,    NIC,     NZ,  NCons,   NDum,   NFix, NCnnct, MaxDiis
        5      50       0       1       0       0       0       0

 Cartesian Hessian Update
 Hessian Updated using BFGS Update


** CONSTRAINED OPTIMIZATION IN DELOCALIZED INTERNAL COORDINATES **
   Searching for a Minimum

   Optimization Cycle:   7

                       Coordinates (Angstroms)
     ATOM                X               Y               Z
      1  H         1.3187729867    0.4062253951    2.3391398250
      2  C        -0.3321855584   -0.1024438792   -0.5892716230
      3  H         0.0759634334    0.8260801814   -0.9661193829
      4  H         0.2052241402   -1.0297337550   -0.7379799242
      5  H        -1.2678760020   -0.1002279423   -0.0459688950
   Point Group: c1    Number of degrees of freedom:     9


   Energy is    -40.342501464

              Constraints and their Current Values
                                        Value     Constraint
   Distance(Angs):        1   2             3.400000     3.400000
 Hessian Updated using BFGS Update

  8 Hessian modes will be used to form the next step
  Hessian Eigenvalues:
     0.002386    0.052094    0.052453    0.071168    0.078183    0.309528
     0.309897    0.360589

 Minimum Search - Taking Simple RFO Step
 Searching for Lamda that Minimizes Along All modes
 Value Taken    Lamda =   0.00000000
 Step Taken.  Stepsize is  0.001415

                             Maximum     Tolerance    Cnvgd?
         Gradient           0.000041      0.000300     YES
         Displacement       0.001155      0.001200     YES
         Energy change     -0.000000      0.000001     YES


                       Distance Matrix (Angstroms)
             H (  1)   C (  2)   H (  3)   H (  4)
   C (  2)  3.400000
   H (  3)  3.556064  1.082015
   H (  4)  3.573603  1.082030  1.874247
   H (  5)  3.554714  1.081989  1.873667  1.874269
 
 Final energy is   -40.3425014644925     


 ******************************
 **  OPTIMIZATION CONVERGED  **
 ******************************

                       Coordinates (Angstroms)
     ATOM                X               Y               Z
      1  H         1.3187729867    0.4062253951    2.3391398250
      2  C        -0.3321855584   -0.1024438792   -0.5892716230
      3  H         0.0759634334    0.8260801814   -0.9661193829
      4  H         0.2052241402   -1.0297337550   -0.7379799242
      5  H        -1.2678760020   -0.1002279423   -0.0459688950

Z-matrix Print:
$molecule
0 3
C 
H  1 1.081989
H  1 1.082015 2 119.956041
H  1 1.082030 2 120.018382 3 178.741469 0
H  1 3.400000 2 89.262438 3 88.809280 0
$end

PES scan, value:    3.4000 energy:  -40.3425014645
------- Summary of potential scan: ------ 
    3.4000       -40.3425014645
----------------------------------------- 
Archival summary:
1\1\hpc0243\JobtypUnspecified\ProcedureUnspecified\6-31G**\14(3)\knomura\MonMar1116:25:102019MonMar1116:25:102019\0\\#,JobtypUnspecified,ProcedureUnspecified,6-31G**,\\0,3\C\H,1,1.08199\H,1,1.08202,2,119.956\H,1,1.08203,2,120.018,3,178.741,0\H,1,3.4,2,89.2624,3,88.8093,0\\\@

 Total job time:  16.06s(wall), 156.42s(cpu) 
 Mon Mar 11 16:25:10 2019

        *************************************************************
        *                                                           *
        *  Thank you very much for using Q-Chem.  Have a nice day.  *
        *                                                           *
        *************************************************************


