
Running Job 1 of 1 scan_ch4.xyz.data/inputs/bond_singlet_2.6.in
qchem scan_ch4.xyz.data/inputs/bond_singlet_2.6.in_31251.0 /staging/scratch/2851581/qchem31251/ 1
/usr/usc/qchem/5.1.1/exe/qcprog.exe_s scan_ch4.xyz.data/inputs/bond_singlet_2.6.in_31251.0 /staging/scratch/2851581/qchem31251/
Check license passed

                  Welcome to Q-Chem
     A Quantum Leap Into The Future Of Chemistry


 Q-Chem 5.1, Q-Chem, Inc., Pleasanton, CA (2018)

 Yihan Shao,  Zhengting Gan,  E. Epifanovsky,  A. T. B. Gilbert,  M. Wormit,  
 J. Kussmann,  A. W. Lange,  A. Behn,  Jia Deng,  Xintian Feng,  D. Ghosh,  
 M. Goldey,  P. R. Horn,  L. D. Jacobson,  I. Kaliman,  T. Kus,  A. Landau,  
 Jie Liu,  E. I. Proynov,  R. M. Richard,  R. P. Steele,  E. J. Sundstrom,  
 H. L. Woodcock III,  P. M. Zimmerman,  D. Zuev,  B. Albrecht,  E. Alguire,  
 S. A. Baeppler,  D. Barton,  Z. Benda,  Y. A. Bernard,  E. J. Berquist,  
 K. B. Bravaya,  H. Burton,  D. Casanova,  Chun-Min Chang,  Yunqing Chen,  
 A. Chien,  K. D. Closser,  M. P. Coons,  S. Coriani,  S. Dasgupta,  
 A. L. Dempwolff,  M. Diedenhofen,  Hainam Do,  R. G. Edgar,  Po-Tung Fang,  
 S. Faraji,  S. Fatehi,  Qingguo Feng,  K. D. Fenk,  J. Fosso-Tande,  
 Qinghui Ge,  A. Ghysels,  G. Gidofalvi,  J. Gomes,  J. Gonthier,  A. Gunina,  
 D. Hait,  M. W. D. Hanson-Heine,  P. H. P. Harbach,  A. W. Hauser,  
 J. E. Herr,  E. G. Hohenstein,  Z. C. Holden,  Kerwin Hui,  B. C. Huynh,  
 T.-C. Jagau,  Hyunjun Ji,  B. Kaduk,  K. Khistyaev,  Jaehoon Kim,  
 P. Klunzinger,  K. Koh,  D. Kosenkov,  L. Koulias,  T. Kowalczyk,  
 C. M. Krauter,  A. Kunitsa,  Ka Un Lao,  A. Laurent,  K. V. Lawler,  
 Joonho Lee,  D. Lefrancois,  S. Lehtola,  D. S. Levine,  Yi-Pei Li,  
 You-Sheng Lin,  Fenglai Liu,  E. Livshits,  A. Luenser,  P. Manohar,  
 E. Mansoor,  S. F. Manzer,  Shan-Ping Mao,  Yuezhi Mao,  N. Mardirossian,  
 A. V. Marenich,  T. Markovich,  L. A. Martinez-Martinez,  S. A. Maurer,  
 N. J. Mayhall,  S. C. McKenzie,  J.-M. Mewes,  A. F. Morrison,  
 J. W. Mullinax,  K. Nanda,  T. S. Nguyen-Beck,  R. Olivares-Amaya,  
 J. A. Parkhill,  T. M. Perrine,  F. Plasser,  P. Pokhilko,  S. Prager,  
 A. Prociuk,  E. Ramos,  D. R. Rehn,  F. Rob,  M. Schneider,  N. Sergueev,  
 S. M. Sharada,  S. Sharma,  D. W. Small,  T. Stauch,  T. Stein,  
 Yu-Chuan Su,  A. J. W. Thom,  A. Tkatchenko,  T. Tsuchimochi,  N. M. Tubman,  
 L. Vogt,  M. L. Vidal,  O. Vydrov,  M. A. Watson,  J. Wenzel,  
 M. de Wergifosse,  T. A. Wesolowski,  A. White,  J. Witte,  A. Yamada,  
 Jun Yang,  K. Yao,  S. Yeganeh,  S. R. Yost,  Zhi-Qiang You,  A. Zech,  
 Igor Ying Zhang,  Xing Zhang,  Yan Zhao,  Ying Zhu,  B. R. Brooks,  
 G. K. L. Chan,  C. J. Cramer,  M. S. Gordon,  W. J. Hehre,  A. Klamt,  
 M. W. Schmidt,  C. D. Sherrill,  D. G. Truhlar,  A. Aspuru-Guzik,  R. Baer,  
 A. T. Bell,  N. A. Besley,  Jeng-Da Chai,  A. E. DePrince, III,  
 R. A. DiStasio Jr.,  A. Dreuw,  B. D. Dunietz,  T. R. Furlani,  
 Chao-Ping Hsu,  Yousung Jung,  Jing Kong,  D. S. Lambrecht,  WanZhen Liang,  
 C. Ochsenfeld,  V. A. Rassolov,  L. V. Slipchenko,  J. E. Subotnik,  
 T. Van Voorhis,  J. M. Herbert,  A. I. Krylov,  P. M. W. Gill,  M. Head-Gordon

 Contributors to earlier versions of Q-Chem not listed above: 
 R. D. Adamson,  B. Austin,  J. Baker,  G. J. O. Beran,  K. Brandhorst,  
 S. T. Brown,  E. F. C. Byrd,  A. K. Chakraborty,  C.-L. Cheng,  
 Siu Hung Chien,  D. M. Chipman,  D. L. Crittenden,  H. Dachsel,  
 R. J. Doerksen,  A. D. Dutoi,  L. Fusti-Molnar,  W. A. Goddard III,  
 A. Golubeva-Zadorozhnaya,  S. R. Gwaltney,  G. Hawkins,  A. Heyden,  
 S. Hirata,  G. Kedziora,  F. J. Keil,  C. Kelley,  Jihan Kim,  R. A. King,  
 R. Z. Khaliullin,  P. P. Korambath,  W. Kurlancheek,  A. M. Lee,  M. S. Lee,  
 S. V. Levchenko,  Ching Yeh Lin,  D. Liotard,  R. C. Lochan,  I. Lotan,  
 P. E. Maslen,  N. Nair,  D. P. O'Neill,  D. Neuhauser,  E. Neuscamman,  
 C. M. Oana,  R. Olson,  B. Peters,  R. Peverati,  P. A. Pieniazek,  
 Y. M. Rhee,  J. Ritchie,  M. A. Rohrdanz,  E. Rosta,  N. J. Russ,  
 H. F. Schaefer III,  N. E. Schultz,  N. Shenvi,  A. C. Simmonett,  A. Sodt,  
 D. Stuck,  K. S. Thanthiriwatte,  V. Vanovschi,  Tao Wang,  A. Warshel,  
 C. F. Williams,  Q. Wu,  X. Xu,  W. Zhang

 Please cite Q-Chem as follows:
 Y. Shao et al., Mol. Phys. 113, 184-215 (2015)
 DOI: 10.1080/00268976.2014.952696

 Q-Chem 5.1.1 for Intel X86 EM64T Linux

 Parts of Q-Chem use Armadillo 8.300.2 (Tropical Shenanigans).
 http://arma.sourceforge.net/

 Q-Chem begins on Mon Mar 11 16:20:55 2019  

Host: 
0

     Scratch files written to /staging/scratch/2851581/qchem31251//
 Aug318 |scratch|qcdevops|jenkins|workspace|build_RNUM 6013   
Processing $rem in /usr/usc/qchem/5.1.1/config/preferences.
 MEM_TOTAL  2000 
Input Ideriv = 2
Curr. Ideriv = -1
Max.  Ideriv = 2

Checking the input file for inconsistencies... 	...done.

--------------------------------------------------------------
User input:
--------------------------------------------------------------

$comment
potential surface scanner
$end

$rem
JOBTYPE  PES_SCAN
UNRESTRICTED TRUE
SYM_IGNORE  TRUE
GEOM_OPT_MAX_CYCLES 400
SCF_MAX_CYCLES 400
METHOD   B3LYP
BASIS   6-31G**
PDB_PRINT 2
SCF_CONVERGENCE 6
THRESH 14
SCF_PRINT 1
$end
$molecule
0 1
H 1.002570 0.305480 1.774643
C -0.213524 -0.065093 -0.377981
H 0.137511 0.841534 -0.850504
H 0.273237 -1.001896 -0.610326
H -1.199895 -0.080128 0.063968
$end
$scan
stre 1 2 2.600000 2.601000 0.100000
$end
--------------------------------------------------------------
 ----------------------------------------------------------------
             Standard Nuclear Orientation (Angstroms)
    I     Atom           X                Y                Z
 ----------------------------------------------------------------
    1      H       1.0025700000     0.3054800000     1.7746430000
    2      C      -0.2135240000    -0.0650930000    -0.3779810000
    3      H       0.1375110000     0.8415340000    -0.8505040000
    4      H       0.2732370000    -1.0018960000    -0.6103260000
    5      H      -1.1998950000    -0.0801280000     0.0639680000
 ----------------------------------------------------------------
 Nuclear Repulsion Energy =    11.4972896360 hartrees
 There are        5 alpha and        5 beta electrons
 Requested basis set is 6-31G(d,p)
 There are 16 shells and 35 basis functions

 Total QAlloc Memory Limit   2000 MB
 Mega-Array Size       188 MB
 MEM_STATIC part       192 MB
A total of 1 constraints
  
            1
    1   1.0100000
    2   1.0100000
    3   2.0100000
    4   2.6000000
    5   2.6010000
    6   0.1000000
    7   0.0000000
    8   0.0000000
    9   0.0000000
   10   0.0000000

                       Distance Matrix (Angstroms)
             H (  1)   C (  2)   H (  3)   H (  4)
   C (  2)  2.500000
   H (  3)  2.815507  1.080961
   H (  4)  2.815890  1.080981  1.863958
   H (  5)  2.815307  1.080959  1.863967  1.863987
 
 A cutoff of  1.0D-14 yielded    136 shell pairs
 There are       669 function pairs
 
 -------------------------------------------------------
 OpenMP Integral Computing Module                       
 Release: version 1.0, May 2013, Q-Chem Inc. Pittsburgh 
 -------------------------------------------------------
 Integral Job Info:
 Integral job number is                      11
 Integral operator is                         1
 short-range coefficients                     0
 long-range coefficients              100000000
 Omega coefficients                           0
 if combine SR and LR in K                    0
 Integral screening is                        0
 Integral computing path is                   2
 max size of driver memory is            800000
 size of driver memory is                593474
 size of scratch memory is              2361544
 max col of scratch BK array               1296
 max len of scratch array in speh3          155
 max len of scratch index in speh4           18
 max int batch size is                      520
 min int batch size is                       52
 fixed nKL is                                52
 max L of basis functions is                  2
 order of int derivative is                   0
 number of shells is                         16
 number of basis is                          35
 number of cartesian basis is                35
 number of contracted shell pairs           136
 number of primitive shell pairs            478
 maxK2 (contraction) of shell pair           36
 max number of K2 of shell pair               1
 max number of CS2 of shell pair             16
 max number of PS2 of shell pair             48
 mem total for path MDJ                  507880
 -------------------------------------------------------
 Smallest overlap matrix eigenvalue = 2.64E-02

 Scale SEOQF with 1.000000e+00/1.000000e+00/1.000000e-01

 Standard Electronic Orientation quadrupole field applied
 Nucleus-field energy     =     0.0000000018 hartrees
 Guess from superposition of atomic densities
 Warning:  Energy on first SCF cycle will be non-variational
 SAD guess density has 10.000000 electrons

 -----------------------------------------------------------------------
  General SCF calculation program by
  Eric Jon Sundstrom, Paul Horn, Yuezhi Mao, Dmitri Zuev, Alec White,
  David Stuck, Shaama M.S., Shane Yost, Joonho Lee, David Small,
  Daniel Levine, Susi Lehtola, Hugh Burton, Evgeny Epifanovsky
 -----------------------------------------------------------------------
 Exchange:     0.2000 Hartree-Fock + 0.0800 Slater + 0.7200 B88
 Correlation:  0.1900 VWN1RPA + 0.8100 LYP
 Using SG-1 standard quadrature grid
 using 12 threads for integral computing
 -------------------------------------------------------
 OpenMP Integral computing Module                
 Release: version 1.0, May 2013, Q-Chem Inc. Pittsburgh 
 -------------------------------------------------------
 -------------------------------------------------------
 OpenMP BLAS3 based DFT computing Module                
 Release: version 1.0, May 2013, Q-Chem Inc. Pittsburgh 
 -------------------------------------------------------
 A unrestricted SCF calculation will be
 performed using DIIS
 SCF converges when DIIS error is below 1.0e-06
 Alpha HF Exchange    Energy =  -0.61765202256870
 Beta HF Exchange     Energy =  -0.61765202256870
 DFT Correlation      Energy =  -0.36724135344147
 DFT Exchange         Energy =  -4.95428705836049
 One-Electron (alpha) Energy = -37.36611557136426
 One-Electron (beta)  Energy = -37.36611557136426
 Total Coulomb        Energy =  29.58913273258002
 ---------------------------------------
  Cycle       Energy         DIIS error
 ---------------------------------------
    1     -40.2026412293      3.86e-02  
 Alpha HF Exchange    Energy =  -0.64836880704621
 Beta HF Exchange     Energy =  -0.64836880704621
 DFT Correlation      Energy =  -0.38307288565901
 DFT Exchange         Energy =  -5.18675105779211
 One-Electron (alpha) Energy = -38.63660995705784
 One-Electron (beta)  Energy = -38.63660995705785
 Total Coulomb        Energy =  32.38812588376251
    2     -40.2543659501      9.97e-03  
 Alpha HF Exchange    Energy =  -0.62914514371827
 Beta HF Exchange     Energy =  -0.62914514371827
 DFT Correlation      Energy =  -0.35978724880707
 DFT Exchange         Energy =  -4.96586952023157
 One-Electron (alpha) Energy = -36.35876967391874
 One-Electron (beta)  Energy = -36.35876967391874
 Total Coulomb        Energy =  27.76942122075140
    3     -40.0347755458      1.56e-02  
 Alpha HF Exchange    Energy =  -0.63695097163519
 Beta HF Exchange     Energy =  -0.63695097163519
 DFT Correlation      Energy =  -0.37630540746262
 DFT Exchange         Energy =  -5.09072895849554
 One-Electron (alpha) Energy = -38.07981537852323
 One-Electron (beta)  Energy = -38.07981537852319
 Total Coulomb        Energy =  31.07458878452837
    4     -40.3286886440      3.11e-03  
 Alpha HF Exchange    Energy =  -0.63429519414123
 Beta HF Exchange     Energy =  -0.63429519414123
 DFT Correlation      Energy =  -0.37155724854315
 DFT Exchange         Energy =  -5.06181405245229
 One-Electron (alpha) Energy = -37.62504420639183
 One-Electron (beta)  Energy = -37.62504420639183
 Total Coulomb        Energy =  30.12151595919445
    5     -40.3332445051      2.37e-03  
 Alpha HF Exchange    Energy =  -0.63464923489486
 Beta HF Exchange     Energy =  -0.63464923489486
 DFT Correlation      Energy =  -0.37335738212851
 DFT Exchange         Energy =  -5.07003153727067
 One-Electron (alpha) Energy = -37.81096157081846
 One-Electron (beta)  Energy = -37.81096157081845
 Total Coulomb        Energy =  30.49577489284503
    6     -40.3415460002      1.09e-04  
 Alpha HF Exchange    Energy =  -0.63472079743308
 Beta HF Exchange     Energy =  -0.63472079743308
 DFT Correlation      Energy =  -0.37346109430944
 DFT Exchange         Energy =  -5.07082107172885
 One-Electron (alpha) Energy = -37.82083987470119
 One-Electron (beta)  Energy = -37.82083987470123
 Total Coulomb        Energy =  30.51655284968540
    7     -40.3415610229      6.20e-06  
 Alpha HF Exchange    Energy =  -0.63471801197915
 Beta HF Exchange     Energy =  -0.63471801197915
 DFT Correlation      Energy =  -0.37345659393467
 DFT Exchange         Energy =  -5.07079062260403
 One-Electron (alpha) Energy = -37.82041094302187
 One-Electron (beta)  Energy = -37.82041094302193
 Total Coulomb        Energy =  30.51565442213552
    8     -40.3415610666      1.16e-06  
 Alpha HF Exchange    Energy =  -0.63471757666970
 Beta HF Exchange     Energy =  -0.63471757666970
 DFT Correlation      Energy =  -0.37345608735021
 DFT Exchange         Energy =  -5.07078599283011
 One-Electron (alpha) Energy = -37.82036364464287
 One-Electron (beta)  Energy = -37.82036364464294
 Total Coulomb        Energy =  30.51555381721092
    9     -40.3415610678      4.35e-07  Convergence criterion met
 ---------------------------------------
 SCF time:   CPU 15.54s  wall 1.00s 
<S^2> =          0.000000000
 Alpha HF Exchange    Energy =  -0.63471757666970
 Beta HF Exchange     Energy =  -0.63471757666970
 DFT Correlation      Energy =  -0.37345608735021
 DFT Exchange         Energy =  -5.07078599283011
 One-Electron (alpha) Energy = -37.82036364464287
 One-Electron (beta)  Energy = -37.82036364464294
 Total Coulomb        Energy =  30.51555381721092
 Nuclear repulsion Energy =  11.49728963775581
 SCF   energy in the final basis set =      -40.3415610678
 Total energy in the final basis set =      -40.3415610678
 
 --------------------------------------------------------------
 
                    Orbital Energies (a.u.)
 --------------------------------------------------------------
 
 Alpha MOs
 -- Occupied --
-10.245  -0.696  -0.441  -0.441  -0.234
 -- Virtual --
 -0.108   0.106   0.165   0.165   0.519   0.519   0.564   0.673
  0.863   0.863   0.889   0.943   1.420   1.420   1.897   1.897
  1.935   1.981   2.065   2.065   2.095   2.341   2.506   2.506
  2.725   2.725   3.220   3.423   3.424   4.274
 
 Beta MOs
 -- Occupied --
-10.245  -0.696  -0.441  -0.441  -0.234
 -- Virtual --
 -0.108   0.106   0.165   0.165   0.519   0.519   0.564   0.673
  0.863   0.863   0.889   0.943   1.420   1.420   1.897   1.897
  1.935   1.981   2.065   2.065   2.095   2.341   2.506   2.506
  2.725   2.725   3.220   3.423   3.424   4.274
 --------------------------------------------------------------
 
          Ground-State Mulliken Net Atomic Charges

     Atom                 Charge (a.u.)    Spin (a.u.)
  --------------------------------------------------------
      1 H                    -0.143549       0.000000
      2 C                    -0.331100      -0.000000
      3 H                     0.158222      -0.000000
      4 H                     0.158210      -0.000000
      5 H                     0.158218      -0.000000
  --------------------------------------------------------
  Sum of atomic charges =     0.000000
  Sum of spin   charges =     0.000000

 -----------------------------------------------------------------
                    Cartesian Multipole Moments
 -----------------------------------------------------------------
    Charge (ESU x 10^10)
                 0.0000
    Dipole Moment (Debye)
         X      -0.9278      Y      -0.2826      Z      -1.6421
       Tot       1.9072
    Quadrupole Moments (Debye-Ang)
        XX      -8.8885     XY      -0.2022     YY      -8.2857
        XZ      -1.1756     YZ      -0.3577     ZZ     -10.3040
    Octopole Moments (Debye-Ang^2)
       XXX      -1.2763    XXY      -0.1781    XYY       0.5737
       YYY      -0.2129    XXZ       0.0187    XYZ      -0.0507
       YYZ      -0.8642    XZZ      -0.3082    YZZ       0.0838
       ZZZ      -0.9431
    Hexadecapole Moments (Debye-Ang^3)
      XXXX     -24.5933   XXXY      -1.4679   XXYY      -7.2608
      XYYY      -1.7879   YYYY     -15.7518   XXXZ      -9.4166
      XXYZ      -0.9396   XYYZ      -3.3373   YYYZ      -2.6813
      XXZZ     -12.7615   XYZZ      -0.6077   YYZZ     -10.1029
      XZZZ      -9.6864   YZZZ      -3.2177   ZZZZ     -48.7971
 -----------------------------------------------------------------
 Calculating analytic gradient of the SCF energy
 Gradient of SCF Energy
            1           2           3           4           5
    1   0.0219396  -0.0219479  -0.0000018  -0.0000030   0.0000132
    2   0.0066883  -0.0066873  -0.0000129   0.0000116   0.0000003
    3   0.0388492  -0.0388524   0.0000056   0.0000078  -0.0000102
 Max gradient component =       3.885E-02
 RMS gradient           =       1.647E-02
 Gradient time:  CPU 4.99 s  wall 0.66 s
 Geometry Optimization Parameters
   NAtoms,    NIC,     NZ,  NCons,   NDum,   NFix, NCnnct, MaxDiis
        5      20       0       1       0       0       0       0


** CONSTRAINED OPTIMIZATION IN DELOCALIZED INTERNAL COORDINATES **
   Searching for a Minimum

   Optimization Cycle:   1

                       Coordinates (Angstroms)
     ATOM                X               Y               Z
      1  H         1.0025700000    0.3054800000    1.7746430000
      2  C        -0.2135240000   -0.0650930000   -0.3779810000
      3  H         0.1375110000    0.8415340000   -0.8505040000
      4  H         0.2732370000   -1.0018960000   -0.6103260000
      5  H        -1.1998950000   -0.0801280000    0.0639680000
   Point Group: c1    Number of degrees of freedom:     9


   Energy is    -40.341561068

              Constraints and their Current Values
                                        Value     Constraint
   Distance(Angs):        1   2             2.500000     2.600000

 Attempting to Generate Delocalized Internal Coordinates

   Using Lagrange Multiplier Algorithm


 10 Hessian modes will be used to form the next step
  Hessian Eigenvalues:
    -0.989681    0.160000    0.160000    0.160000    0.160000    0.160000
     0.358760    0.358785    0.358787    1.010426

 Minimum Search - Taking P-RFO Step
 Searching for Lamda that Maximizes Along the Constraint modes Only
 Value Taken    Lamda =   0.02711717
 Searching for Lamda that Minimizes Along All other modes
 Value Taken    Lamda =  -0.00997008
 Step Taken.  Stepsize is  0.185132

                             Maximum     Tolerance    Cnvgd?
         Gradient            0.188973       0.000300      NO
         Displacement        0.185132       0.001200      NO
         Energy change     *********       0.000001      NO


 New Cartesian Coordinates Obtained by Inverse Iteration

 Displacement from previous Coordinates is:  0.165603
 ----------------------------------------------------------------
             Standard Nuclear Orientation (Angstroms)
    I     Atom           X                Y                Z
 ----------------------------------------------------------------
    1      H       1.0406931313     0.3171086793     1.8421341869
    2      C      -0.2230501727    -0.0680000519    -0.3948457922
    3      H       0.1279917994     0.8386443058    -0.8673770090
    4      H       0.2637058331    -1.0048219028    -0.6272204495
    5      H      -1.2094415911    -0.0830340304     0.0471090638
 ----------------------------------------------------------------
 Nuclear Repulsion Energy =    11.4316008287 hartrees
 There are        5 alpha and        5 beta electrons

                       Distance Matrix (Angstroms)
             H (  1)   C (  2)   H (  3)   H (  4)
   C (  2)  2.597968
   H (  3)  2.906282  1.080981
   H (  4)  2.906703  1.081002  1.863991
   H (  5)  2.906086  1.080980  1.864002  1.864022
 
 Applying Cartesian multipole field
    Component          Value
    ---------          -----
     (2,0,0)        1.00000E-10
     (0,2,0)        2.00000E-10
     (0,0,2)       -3.00000E-11
 Nucleus-field energy     =     0.0000000018 hartrees
 Requested basis set is 6-31G(d,p)
 There are 16 shells and 35 basis functions
 A cutoff of  1.0D-14 yielded    136 shell pairs
 There are       669 function pairs
 Smallest overlap matrix eigenvalue = 2.65E-02
 Guess from superposition of atomic densities
 Warning:  Energy on first SCF cycle will be non-variational
 SAD guess density has 10.000000 electrons

 -----------------------------------------------------------------------
  General SCF calculation program by
  Eric Jon Sundstrom, Paul Horn, Yuezhi Mao, Dmitri Zuev, Alec White,
  David Stuck, Shaama M.S., Shane Yost, Joonho Lee, David Small,
  Daniel Levine, Susi Lehtola, Hugh Burton, Evgeny Epifanovsky
 -----------------------------------------------------------------------
 Exchange:     0.2000 Hartree-Fock + 0.0800 Slater + 0.7200 B88
 Correlation:  0.1900 VWN1RPA + 0.8100 LYP
 Using SG-1 standard quadrature grid
 using 12 threads for integral computing
 -------------------------------------------------------
 OpenMP Integral computing Module                
 Release: version 1.0, May 2013, Q-Chem Inc. Pittsburgh 
 -------------------------------------------------------
 -------------------------------------------------------
 OpenMP BLAS3 based DFT computing Module                
 Release: version 1.0, May 2013, Q-Chem Inc. Pittsburgh 
 -------------------------------------------------------
 A unrestricted SCF calculation will be
 performed using DIIS
 SCF converges when DIIS error is below 1.0e-06
 Alpha HF Exchange    Energy =  -0.61738995750781
 Beta HF Exchange     Energy =  -0.61738995750781
 DFT Correlation      Energy =  -0.36686782237947
 DFT Exchange         Energy =  -4.95377957408352
 One-Electron (alpha) Energy = -37.30050028402682
 One-Electron (beta)  Energy = -37.30050028402682
 Total Coulomb        Energy =  29.52423549215839
 ---------------------------------------
  Cycle       Energy         DIIS error
 ---------------------------------------
    1     -40.2005915569      3.85e-02  
 Alpha HF Exchange    Energy =  -0.64849383904564
 Beta HF Exchange     Energy =  -0.64849383904564
 DFT Correlation      Energy =  -0.38321164693673
 DFT Exchange         Energy =  -5.19030647021600
 One-Electron (alpha) Energy = -38.61252447102567
 One-Electron (beta)  Energy = -38.61252447102567
 Total Coulomb        Energy =  32.42822471984241
    2     -40.2357291870      1.04e-02  
 Alpha HF Exchange    Energy =  -0.62924709441416
 Beta HF Exchange     Energy =  -0.62924709441416
 DFT Correlation      Energy =  -0.35892252541804
 DFT Exchange         Energy =  -4.96421793699548
 One-Electron (alpha) Energy = -36.21080745339492
 One-Electron (beta)  Energy = -36.21080745339486
 Total Coulomb        Energy =  27.57281829560849
    3     -39.9988304319      1.61e-02  
 Alpha HF Exchange    Energy =  -0.63658097014382
 Beta HF Exchange     Energy =  -0.63658097014381
 DFT Correlation      Energy =  -0.37616822918349
 DFT Exchange         Energy =  -5.09153215420849
 One-Electron (alpha) Energy = -38.03559108793737
 One-Electron (beta)  Energy = -38.03559108793736
 Total Coulomb        Energy =  31.06261213495682
    4     -40.3178315341      3.43e-03  
 Alpha HF Exchange    Energy =  -0.63373557769311
 Beta HF Exchange     Energy =  -0.63373557769311
 DFT Correlation      Energy =  -0.37052663678482
 DFT Exchange         Energy =  -5.05809067051977
 One-Electron (alpha) Energy = -37.48306405640484
 One-Electron (beta)  Energy = -37.48306405640486
 Total Coulomb        Energy =  29.91130258508024
    5     -40.3193131599      3.08e-03  
 Alpha HF Exchange    Energy =  -0.63395995979780
 Beta HF Exchange     Energy =  -0.63395995979780
 DFT Correlation      Energy =  -0.37283960411197
 DFT Exchange         Energy =  -5.06812928565144
 One-Electron (alpha) Energy = -37.72949435937524
 One-Electron (beta)  Energy = -37.72949435937522
 Total Coulomb        Energy =  30.40276164443788
    6     -40.3335150532      1.69e-04  
 Alpha HF Exchange    Energy =  -0.63406194416166
 Beta HF Exchange     Energy =  -0.63406194416166
 DFT Correlation      Energy =  -0.37299575723112
 DFT Exchange         Energy =  -5.06929459608050
 One-Electron (alpha) Energy = -37.74458765204064
 One-Electron (beta)  Energy = -37.74458765204060
 Total Coulomb        Energy =  30.43443708804599
    7     -40.3335516272      5.05e-06  
 Alpha HF Exchange    Energy =  -0.63406002297579
 Beta HF Exchange     Energy =  -0.63406002297579
 DFT Correlation      Energy =  -0.37299309869990
 DFT Exchange         Energy =  -5.06927398790810
 One-Electron (alpha) Energy = -37.74433804135558
 One-Electron (beta)  Energy = -37.74433804135560
 Total Coulomb        Energy =  30.43391073456407
    8     -40.3335516502      2.02e-06  
 Alpha HF Exchange    Energy =  -0.63405891182199
 Beta HF Exchange     Energy =  -0.63405891182199
 DFT Correlation      Energy =  -0.37299149139798
 DFT Exchange         Energy =  -5.06926179871986
 One-Electron (alpha) Energy = -37.74418265414509
 One-Electron (beta)  Energy = -37.74418265414502
 Total Coulomb        Energy =  30.43358393624892
    9     -40.3335516553      2.13e-07  Convergence criterion met
 ---------------------------------------
 SCF time:   CPU 15.62s  wall 2.00s 
<S^2> =          0.000000000
 Alpha HF Exchange    Energy =  -0.63405891182199
 Beta HF Exchange     Energy =  -0.63405891182199
 DFT Correlation      Energy =  -0.37299149139798
 DFT Exchange         Energy =  -5.06926179871986
 One-Electron (alpha) Energy = -37.74418265414509
 One-Electron (beta)  Energy = -37.74418265414502
 Total Coulomb        Energy =  30.43358393624892
 Nuclear repulsion Energy =  11.43160083049060
 SCF   energy in the final basis set =      -40.3335516553
 Total energy in the final basis set =      -40.3335516553
 
 --------------------------------------------------------------
 
                    Orbital Energies (a.u.)
 --------------------------------------------------------------
 
 Alpha MOs
 -- Occupied --
-10.247  -0.698  -0.443  -0.443  -0.230
 -- Virtual --
 -0.115   0.105   0.164   0.164   0.518   0.518   0.560   0.665
  0.862   0.862   0.884   0.946   1.418   1.418   1.896   1.896
  1.932   1.980   2.063   2.063   2.085   2.329   2.504   2.504
  2.723   2.723   3.218   3.422   3.422   4.267
 
 Beta MOs
 -- Occupied --
-10.247  -0.698  -0.443  -0.443  -0.230
 -- Virtual --
 -0.115   0.105   0.164   0.164   0.518   0.518   0.560   0.665
  0.862   0.862   0.884   0.946   1.418   1.418   1.896   1.896
  1.932   1.980   2.063   2.063   2.085   2.329   2.504   2.504
  2.723   2.723   3.218   3.422   3.422   4.267
 --------------------------------------------------------------
 
          Ground-State Mulliken Net Atomic Charges

     Atom                 Charge (a.u.)    Spin (a.u.)
  --------------------------------------------------------
      1 H                    -0.147301      -0.000000
      2 C                    -0.329977       0.000000
      3 H                     0.159098      -0.000000
      4 H                     0.159085      -0.000000
      5 H                     0.159095      -0.000000
  --------------------------------------------------------
  Sum of atomic charges =     0.000000
  Sum of spin   charges =    -0.000000

 -----------------------------------------------------------------
                    Cartesian Multipole Moments
 -----------------------------------------------------------------
    Charge (ESU x 10^10)
                 0.0000
    Dipole Moment (Debye)
         X      -0.9848      Y      -0.3000      Z      -1.7430
       Tot       2.0243
    Quadrupole Moments (Debye-Ang)
        XX      -8.9495     XY      -0.2215     YY      -8.2892
        XZ      -1.2878     YZ      -0.3919     ZZ     -10.5002
    Octopole Moments (Debye-Ang^2)
       XXX      -1.4012    XXY      -0.2061    XYY       0.5552
       YYY      -0.2294    XXZ      -0.1385    XYZ      -0.0910
       YYZ      -0.9069    XZZ      -0.5572    YZZ       0.0088
       ZZZ      -1.4378
    Hexadecapole Moments (Debye-Ang^3)
      XXXX     -25.6383   XXXY      -1.6439   XXYY      -7.4622
      XYYY      -1.9486   YYYY     -15.8300   XXXZ     -10.4746
      XXYZ      -1.0833   XYYZ      -3.6544   YYYZ      -2.9460
      XXZZ     -13.7809   XYZZ      -0.7586   YYZZ     -10.6384
      XZZZ     -11.1425   YZZZ      -3.6724   ZZZZ     -52.9206
 -----------------------------------------------------------------
 Calculating analytic gradient of the SCF energy
 Gradient of SCF Energy
            1           2           3           4           5
    1   0.0201601  -0.0193553  -0.0002982  -0.0003034  -0.0002033
    2   0.0061460  -0.0058987  -0.0001469  -0.0000186  -0.0000818
    3   0.0356943  -0.0342589  -0.0004539  -0.0004637  -0.0005178
 Max gradient component =       3.569E-02
 RMS gradient           =       1.484E-02
 Gradient time:  CPU 4.69 s  wall 0.61 s
 Geometry Optimization Parameters
   NAtoms,    NIC,     NZ,  NCons,   NDum,   NFix, NCnnct, MaxDiis
        5      20       0       1       0       0       0       0

 Cartesian Hessian Update
 Hessian Updated using BFGS Update
**WARNING** Hereditary positive definiteness endangered


** CONSTRAINED OPTIMIZATION IN DELOCALIZED INTERNAL COORDINATES **
   Searching for a Minimum

   Optimization Cycle:   2

                       Coordinates (Angstroms)
     ATOM                X               Y               Z
      1  H         1.0406931313    0.3171086793    1.8421341869
      2  C        -0.2230501727   -0.0680000519   -0.3948457922
      3  H         0.1279917994    0.8386443058   -0.8673770090
      4  H         0.2637058331   -1.0048219028   -0.6272204495
      5  H        -1.2094415911   -0.0830340304    0.0471090638
   Point Group: c1    Number of degrees of freedom:     9


   Energy is    -40.333551655

              Constraints and their Current Values
                                        Value     Constraint
   Distance(Angs):        1   2             2.597968     2.600000
 Hessian Updated using BFGS Update
**WARNING** Hereditary positive definiteness endangered

   Using Lagrange Multiplier Algorithm


  7 Hessian modes will be used to form the next step
  Hessian Eigenvalues:
    -1.009986    0.154734    0.160000    0.358760    0.358785    0.358787
     0.990218

 Minimum Search - Taking P-RFO Step
 Searching for Lamda that Maximizes Along the Constraint modes Only
 Value Taken    Lamda =   0.00000085
 Searching for Lamda that Minimizes Along All other modes
 Value Taken    Lamda =  -0.00006411
 Step Taken.  Stepsize is  0.013000

                             Maximum     Tolerance    Cnvgd?
         Gradient            0.005088       0.000300      NO
         Displacement        0.012374       0.001200      NO
         Energy change      0.008009       0.000001      NO


 New Cartesian Coordinates Obtained by Inverse Iteration

 Displacement from previous Coordinates is:  0.013626
 ----------------------------------------------------------------
             Standard Nuclear Orientation (Angstroms)
    I     Atom           X                Y                Z
 ----------------------------------------------------------------
    1      H       1.0393312197     0.3167133432     1.8397248260
    2      C      -0.2253990134    -0.0687189365    -0.3990021732
    3      H       0.1295075257     0.8396242541    -0.8654191437
    4      H       0.2652793434    -1.0050565401    -0.6251507776
    5      H      -1.2088200754    -0.0826651207     0.0496472685
 ----------------------------------------------------------------
 Nuclear Repulsion Energy =    11.4306916949 hartrees
 There are        5 alpha and        5 beta electrons

                       Distance Matrix (Angstroms)
             H (  1)   C (  2)   H (  3)   H (  4)
   C (  2)  2.600000
   H (  3)  2.901555  1.081014
   H (  4)  2.902041  1.081035  1.865210
   H (  5)  2.901390  1.081017  1.865231  1.865242
 
 Applying Cartesian multipole field
    Component          Value
    ---------          -----
     (2,0,0)        1.00000E-10
     (0,2,0)        2.00000E-10
     (0,0,2)       -3.00000E-11
 Nucleus-field energy     =     0.0000000018 hartrees
 Requested basis set is 6-31G(d,p)
 There are 16 shells and 35 basis functions
 A cutoff of  1.0D-14 yielded    136 shell pairs
 There are       669 function pairs
 Smallest overlap matrix eigenvalue = 2.66E-02
 Guess from superposition of atomic densities
 Warning:  Energy on first SCF cycle will be non-variational
 SAD guess density has 10.000000 electrons

 -----------------------------------------------------------------------
  General SCF calculation program by
  Eric Jon Sundstrom, Paul Horn, Yuezhi Mao, Dmitri Zuev, Alec White,
  David Stuck, Shaama M.S., Shane Yost, Joonho Lee, David Small,
  Daniel Levine, Susi Lehtola, Hugh Burton, Evgeny Epifanovsky
 -----------------------------------------------------------------------
 Exchange:     0.2000 Hartree-Fock + 0.0800 Slater + 0.7200 B88
 Correlation:  0.1900 VWN1RPA + 0.8100 LYP
 Using SG-1 standard quadrature grid
 using 12 threads for integral computing
 -------------------------------------------------------
 OpenMP Integral computing Module                
 Release: version 1.0, May 2013, Q-Chem Inc. Pittsburgh 
 -------------------------------------------------------
 -------------------------------------------------------
 OpenMP BLAS3 based DFT computing Module                
 Release: version 1.0, May 2013, Q-Chem Inc. Pittsburgh 
 -------------------------------------------------------
 A unrestricted SCF calculation will be
 performed using DIIS
 SCF converges when DIIS error is below 1.0e-06
 Alpha HF Exchange    Energy =  -0.61736985277059
 Beta HF Exchange     Energy =  -0.61736985277059
 DFT Correlation      Energy =  -0.36686330692029
 DFT Exchange         Energy =  -4.95374415973568
 One-Electron (alpha) Energy = -37.29965774381112
 One-Electron (beta)  Energy = -37.29965774381112
 Total Coulomb        Energy =  29.52351099020076
 ---------------------------------------
  Cycle       Energy         DIIS error
 ---------------------------------------
    1     -40.2004599729      3.85e-02  
 Alpha HF Exchange    Energy =  -0.64839287926947
 Beta HF Exchange     Energy =  -0.64839287926947
 DFT Correlation      Energy =  -0.38316062792369
 DFT Exchange         Energy =  -5.18981850125792
 One-Electron (alpha) Energy = -38.60809055688638
 One-Electron (beta)  Energy = -38.60809055688640
 Total Coulomb        Energy =  32.41903451077297
    2     -40.2362197940      1.04e-02  
 Alpha HF Exchange    Energy =  -0.62927731723642
 Beta HF Exchange     Energy =  -0.62927731723641
 DFT Correlation      Energy =  -0.35893883621568
 DFT Exchange         Energy =  -4.96445418856331
 One-Electron (alpha) Energy = -36.21212648842348
 One-Electron (beta)  Energy = -36.21212648842345
 Total Coulomb        Energy =  27.57610737935640
    3     -39.9994015601      1.61e-02  
 Alpha HF Exchange    Energy =  -0.63657630725080
 Beta HF Exchange     Energy =  -0.63657630725080
 DFT Correlation      Energy =  -0.37618758180728
 DFT Exchange         Energy =  -5.09169105286501
 One-Electron (alpha) Energy = -38.03675998612657
 One-Electron (beta)  Energy = -38.03675998612654
 Total Coulomb        Energy =  31.06647451627892
    4     -40.3173850085      3.47e-03  
 Alpha HF Exchange    Energy =  -0.63372663960759
 Beta HF Exchange     Energy =  -0.63372663960759
 DFT Correlation      Energy =  -0.37049282785829
 DFT Exchange         Energy =  -5.05797247158527
 One-Electron (alpha) Energy = -37.47884064931911
 One-Electron (beta)  Energy = -37.47884064931911
 Total Coulomb        Energy =  29.90405731557989
    5     -40.3188508650      3.12e-03  
 Alpha HF Exchange    Energy =  -0.63393032912046
 Beta HF Exchange     Energy =  -0.63393032912046
 DFT Correlation      Energy =  -0.37282265609704
 DFT Exchange         Energy =  -5.06802332859942
 One-Electron (alpha) Energy = -37.72735444718199
 One-Electron (beta)  Energy = -37.72735444718192
 Total Coulomb        Energy =  30.39935457122692
    6     -40.3333692694      1.77e-04  
 Alpha HF Exchange    Energy =  -0.63403562181051
 Beta HF Exchange     Energy =  -0.63403562181051
 DFT Correlation      Energy =  -0.37298467585119
 DFT Exchange         Energy =  -5.06923171379612
 One-Electron (alpha) Energy = -37.74302041201654
 One-Electron (beta)  Energy = -37.74302041201652
 Total Coulomb        Energy =  30.43222735107295
    7     -40.3334094095      3.87e-06  
 Alpha HF Exchange    Energy =  -0.63403448431744
 Beta HF Exchange     Energy =  -0.63403448431744
 DFT Correlation      Energy =  -0.37298328937622
 DFT Exchange         Energy =  -5.06921976610688
 One-Electron (alpha) Energy = -37.74289494982210
 One-Electron (beta)  Energy = -37.74289494982199
 Total Coulomb        Energy =  30.43196080796300
    8     -40.3334094191      2.18e-06  
 Alpha HF Exchange    Energy =  -0.63403345898540
 Beta HF Exchange     Energy =  -0.63403345898540
 DFT Correlation      Energy =  -0.37298174858667
 DFT Exchange         Energy =  -5.06920842216128
 One-Electron (alpha) Energy = -37.74274554078288
 One-Electron (beta)  Energy = -37.74274554078269
 Total Coulomb        Energy =  30.43164704870370
    9     -40.3334094249      4.54e-07  Convergence criterion met
 ---------------------------------------
 SCF time:   CPU 15.74s  wall 1.00s 
<S^2> =         -0.000000000
 Alpha HF Exchange    Energy =  -0.63403345898540
 Beta HF Exchange     Energy =  -0.63403345898540
 DFT Correlation      Energy =  -0.37298174858667
 DFT Exchange         Energy =  -5.06920842216128
 One-Electron (alpha) Energy = -37.74274554078288
 One-Electron (beta)  Energy = -37.74274554078269
 Total Coulomb        Energy =  30.43164704870370
 Nuclear repulsion Energy =  11.43069169668997
 SCF   energy in the final basis set =      -40.3334094249
 Total energy in the final basis set =      -40.3334094249
 
 --------------------------------------------------------------
 
                    Orbital Energies (a.u.)
 --------------------------------------------------------------
 
 Alpha MOs
 -- Occupied --
-10.247  -0.698  -0.443  -0.443  -0.230
 -- Virtual --
 -0.115   0.104   0.164   0.164   0.518   0.518   0.559   0.664
  0.862   0.862   0.885   0.945   1.419   1.419   1.894   1.894
  1.935   1.979   2.063   2.063   2.085   2.324   2.509   2.509
  2.719   2.719   3.218   3.422   3.422   4.267
 
 Beta MOs
 -- Occupied --
-10.247  -0.698  -0.443  -0.443  -0.230
 -- Virtual --
 -0.115   0.104   0.164   0.164   0.518   0.518   0.559   0.664
  0.862   0.862   0.885   0.945   1.419   1.419   1.894   1.894
  1.935   1.979   2.063   2.063   2.085   2.324   2.509   2.509
  2.719   2.719   3.218   3.422   3.422   4.267
 --------------------------------------------------------------
 
          Ground-State Mulliken Net Atomic Charges

     Atom                 Charge (a.u.)    Spin (a.u.)
  --------------------------------------------------------
      1 H                    -0.148375      -0.000000
      2 C                    -0.330258       0.000000
      3 H                     0.159550      -0.000000
      4 H                     0.159535      -0.000000
      5 H                     0.159547      -0.000000
  --------------------------------------------------------
  Sum of atomic charges =    -0.000000
  Sum of spin   charges =    -0.000000

 -----------------------------------------------------------------
                    Cartesian Multipole Moments
 -----------------------------------------------------------------
    Charge (ESU x 10^10)
                 0.0000
    Dipole Moment (Debye)
         X      -0.9844      Y      -0.2999      Z      -1.7422
       Tot       2.0234
    Quadrupole Moments (Debye-Ang)
        XX      -8.9525     XY      -0.2243     YY      -8.2838
        XZ      -1.3043     YZ      -0.3969     ZZ     -10.5232
    Octopole Moments (Debye-Ang^2)
       XXX      -1.3699    XXY      -0.2043    XYY       0.5728
       YYY      -0.2173    XXZ      -0.1221    XYZ      -0.0943
       YYZ      -0.8867    XZZ      -0.5616    YZZ       0.0085
       ZZZ      -1.3956
    Hexadecapole Moments (Debye-Ang^3)
      XXXX     -25.6679   XXXY      -1.6507   XXYY      -7.4635
      XYYY      -1.9527   YYYY     -15.8242   XXXZ     -10.5096
      XXYZ      -1.0888   XYYZ      -3.6632   YYYZ      -2.9553
      XXZZ     -13.8115   XYZZ      -0.7645   YYZZ     -10.6554
      XZZZ     -11.1946   YZZZ      -3.6874   ZZZZ     -53.0500
 -----------------------------------------------------------------
 Calculating analytic gradient of the SCF energy
 Gradient of SCF Energy
            1           2           3           4           5
    1   0.0200679  -0.0197212  -0.0001027  -0.0000953  -0.0001487
    2   0.0061186  -0.0060126  -0.0000058  -0.0000646  -0.0000356
    3   0.0355308  -0.0349187  -0.0002197  -0.0002048  -0.0001876
 Max gradient component =       3.553E-02
 RMS gradient           =       1.494E-02
 Gradient time:  CPU 4.62 s  wall 0.62 s
 Geometry Optimization Parameters
   NAtoms,    NIC,     NZ,  NCons,   NDum,   NFix, NCnnct, MaxDiis
        5      20       0       1       0       0       0       0

 Cartesian Hessian Update
 Hessian Updated using BFGS Update


** CONSTRAINED OPTIMIZATION IN DELOCALIZED INTERNAL COORDINATES **
   Searching for a Minimum

   Optimization Cycle:   3

                       Coordinates (Angstroms)
     ATOM                X               Y               Z
      1  H         1.0393312197    0.3167133432    1.8397248260
      2  C        -0.2253990134   -0.0687189365   -0.3990021732
      3  H         0.1295075257    0.8396242541   -0.8654191437
      4  H         0.2652793434   -1.0050565401   -0.6251507776
      5  H        -1.2088200754   -0.0826651207    0.0496472685
   Point Group: c1    Number of degrees of freedom:     9


   Energy is    -40.333409425

              Constraints and their Current Values
                                        Value     Constraint
   Distance(Angs):        1   2             2.600000     2.600000
 Hessian Updated using BFGS Update

  6 Hessian modes will be used to form the next step
  Hessian Eigenvalues:
     0.090622    0.160000    0.160002    0.358768    0.358786    0.360428

 Minimum Search - Taking Simple RFO Step
 Searching for Lamda that Minimizes Along All modes
 Value Taken    Lamda =  -0.00000695
 Step Taken.  Stepsize is  0.008752

                             Maximum     Tolerance    Cnvgd?
         Gradient           0.000777      0.000300      NO
         Displacement       0.008653      0.001200      NO
         Energy change      0.000142      0.000001      NO


 New Cartesian Coordinates Obtained by Inverse Iteration

 Displacement from previous Coordinates is:  0.010875
 ----------------------------------------------------------------
             Standard Nuclear Orientation (Angstroms)
    I     Atom           X                Y                Z
 ----------------------------------------------------------------
    1      H       1.0378031829     0.3162770160     1.8370176847
    2      C      -0.2269293434    -0.0691908930    -0.4017018846
    3      H       0.1306591725     0.8401921582    -0.8636874341
    4      H       0.2664276159    -1.0050182739    -0.6234236122
    5      H      -1.2080616280    -0.0823630072     0.0515952463
 ----------------------------------------------------------------
 Nuclear Repulsion Energy =    11.4325327843 hartrees
 There are        5 alpha and        5 beta electrons

                       Distance Matrix (Angstroms)
             H (  1)   C (  2)   H (  3)   H (  4)
   C (  2)  2.600000
   H (  3)  2.896758  1.080869
   H (  4)  2.897346  1.080895  1.865733
   H (  5)  2.896646  1.080866  1.865750  1.865760
 
 Applying Cartesian multipole field
    Component          Value
    ---------          -----
     (2,0,0)        1.00000E-10
     (0,2,0)        2.00000E-10
     (0,0,2)       -3.00000E-11
 Nucleus-field energy     =     0.0000000018 hartrees
 Requested basis set is 6-31G(d,p)
 There are 16 shells and 35 basis functions
 A cutoff of  1.0D-14 yielded    136 shell pairs
 There are       669 function pairs
 Smallest overlap matrix eigenvalue = 2.66E-02
 Guess from superposition of atomic densities
 Warning:  Energy on first SCF cycle will be non-variational
 SAD guess density has 10.000000 electrons

 -----------------------------------------------------------------------
  General SCF calculation program by
  Eric Jon Sundstrom, Paul Horn, Yuezhi Mao, Dmitri Zuev, Alec White,
  David Stuck, Shaama M.S., Shane Yost, Joonho Lee, David Small,
  Daniel Levine, Susi Lehtola, Hugh Burton, Evgeny Epifanovsky
 -----------------------------------------------------------------------
 Exchange:     0.2000 Hartree-Fock + 0.0800 Slater + 0.7200 B88
 Correlation:  0.1900 VWN1RPA + 0.8100 LYP
 Using SG-1 standard quadrature grid
 using 12 threads for integral computing
 -------------------------------------------------------
 OpenMP Integral computing Module                
 Release: version 1.0, May 2013, Q-Chem Inc. Pittsburgh 
 -------------------------------------------------------
 -------------------------------------------------------
 OpenMP BLAS3 based DFT computing Module                
 Release: version 1.0, May 2013, Q-Chem Inc. Pittsburgh 
 -------------------------------------------------------
 A unrestricted SCF calculation will be
 performed using DIIS
 SCF converges when DIIS error is below 1.0e-06
 Alpha HF Exchange    Energy =  -0.61738830381096
 Beta HF Exchange     Energy =  -0.61738830381096
 DFT Correlation      Energy =  -0.36687160407099
 DFT Exchange         Energy =  -4.95379077897950
 One-Electron (alpha) Energy = -37.30127174504729
 One-Electron (beta)  Energy = -37.30127174504729
 Total Coulomb        Energy =  29.52486778438683
 ---------------------------------------
  Cycle       Energy         DIIS error
 ---------------------------------------
    1     -40.2005819103      3.85e-02  
 Alpha HF Exchange    Energy =  -0.64835884710085
 Beta HF Exchange     Energy =  -0.64835884710085
 DFT Correlation      Energy =  -0.38314267165477
 DFT Exchange         Energy =  -5.18969753919882
 One-Electron (alpha) Energy = -38.60764407190007
 One-Electron (beta)  Energy = -38.60764407190004
 Total Coulomb        Energy =  32.41570249399669
    2     -40.2366107688      1.04e-02  
 Alpha HF Exchange    Energy =  -0.62931211764411
 Beta HF Exchange     Energy =  -0.62931211764411
 DFT Correlation      Energy =  -0.35896458964655
 DFT Exchange         Energy =  -4.96472640367518
 One-Electron (alpha) Energy = -36.21579673008280
 One-Electron (beta)  Energy = -36.21579673008278
 Total Coulomb        Energy =  27.58139303213822
    3     -39.9999828705      1.60e-02  
 Alpha HF Exchange    Energy =  -0.63659349578527
 Beta HF Exchange     Energy =  -0.63659349578527
 DFT Correlation      Energy =  -0.37620792679563
 DFT Exchange         Energy =  -5.09189886482818
 One-Electron (alpha) Energy = -38.03933445549453
 One-Electron (beta)  Energy = -38.03933445549450
 Total Coulomb        Energy =  31.07018526707434
    4     -40.3172446410      3.48e-03  
 Alpha HF Exchange    Energy =  -0.63374627220477
 Beta HF Exchange     Energy =  -0.63374627220477
 DFT Correlation      Energy =  -0.37049259737813
 DFT Exchange         Energy =  -5.05808136672558
 One-Electron (alpha) Energy = -37.47940470456029
 One-Electron (beta)  Energy = -37.47940470456026
 Total Coulomb        Energy =  29.90360846181033
    5     -40.3187346697      3.13e-03  
 Alpha HF Exchange    Energy =  -0.63393882656014
 Beta HF Exchange     Energy =  -0.63393882656014
 DFT Correlation      Energy =  -0.37282695129452
 DFT Exchange         Energy =  -5.06811926167042
 One-Electron (alpha) Energy = -37.72848646198812
 One-Electron (beta)  Energy = -37.72848646198809
 Total Coulomb        Energy =  30.39989312295396
    6     -40.3333708810      1.81e-04  
 Alpha HF Exchange    Energy =  -0.63404560981266
 Beta HF Exchange     Energy =  -0.63404560981266
 DFT Correlation      Energy =  -0.37299169087193
 DFT Exchange         Energy =  -5.06934781789549
 One-Electron (alpha) Energy = -37.74441626154269
 One-Electron (beta)  Energy = -37.74441626154262
 Total Coulomb        Energy =  30.43331758340163
    7     -40.3334128820      3.12e-06  
 Alpha HF Exchange    Energy =  -0.63404502009058
 Beta HF Exchange     Energy =  -0.63404502009058
 DFT Correlation      Energy =  -0.37299119087575
 DFT Exchange         Energy =  -5.06934193555053
 One-Electron (alpha) Energy = -37.74437722319389
 One-Electron (beta)  Energy = -37.74437722319381
 Total Coulomb        Energy =  30.43323194224806
    8     -40.3334128846      2.31e-06  
 Alpha HF Exchange    Energy =  -0.63404402496986
 Beta HF Exchange     Energy =  -0.63404402496985
 DFT Correlation      Energy =  -0.37298966355412
 DFT Exchange         Energy =  -5.06933087156817
 One-Electron (alpha) Energy = -37.74422893266520
 One-Electron (beta)  Energy = -37.74422893266505
 Total Coulomb        Energy =  30.43292077330686
    9     -40.3334128910      5.89e-07  Convergence criterion met
 ---------------------------------------
 SCF time:   CPU 15.32s  wall 1.00s 
<S^2> =         -0.000000000
 Alpha HF Exchange    Energy =  -0.63404402496986
 Beta HF Exchange     Energy =  -0.63404402496985
 DFT Correlation      Energy =  -0.37298966355412
 DFT Exchange         Energy =  -5.06933087156817
 One-Electron (alpha) Energy = -37.74422893266520
 One-Electron (beta)  Energy = -37.74422893266505
 Total Coulomb        Energy =  30.43292077330686
 Nuclear repulsion Energy =  11.43253278610269
 SCF   energy in the final basis set =      -40.3334128910
 Total energy in the final basis set =      -40.3334128910
 
 --------------------------------------------------------------
 
                    Orbital Energies (a.u.)
 --------------------------------------------------------------
 
 Alpha MOs
 -- Occupied --
-10.247  -0.698  -0.443  -0.443  -0.230
 -- Virtual --
 -0.115   0.104   0.164   0.164   0.518   0.518   0.559   0.663
  0.862   0.862   0.885   0.945   1.419   1.419   1.893   1.893
  1.938   1.979   2.063   2.063   2.085   2.322   2.512   2.512
  2.717   2.717   3.219   3.423   3.423   4.267
 
 Beta MOs
 -- Occupied --
-10.247  -0.698  -0.443  -0.443  -0.230
 -- Virtual --
 -0.115   0.104   0.164   0.164   0.518   0.518   0.559   0.663
  0.862   0.862   0.885   0.945   1.419   1.419   1.893   1.893
  1.938   1.979   2.063   2.063   2.085   2.322   2.512   2.512
  2.717   2.717   3.219   3.423   3.423   4.267
 --------------------------------------------------------------
 
          Ground-State Mulliken Net Atomic Charges

     Atom                 Charge (a.u.)    Spin (a.u.)
  --------------------------------------------------------
      1 H                    -0.149059      -0.000000
      2 C                    -0.330479       0.000000
      3 H                     0.159854      -0.000000
      4 H                     0.159835       0.000000
      5 H                     0.159850      -0.000000
  --------------------------------------------------------
  Sum of atomic charges =    -0.000000
  Sum of spin   charges =     0.000000

 -----------------------------------------------------------------
                    Cartesian Multipole Moments
 -----------------------------------------------------------------
    Charge (ESU x 10^10)
                -0.0000
    Dipole Moment (Debye)
         X      -0.9831      Y      -0.2995      Z      -1.7400
       Tot       2.0208
    Quadrupole Moments (Debye-Ang)
        XX      -8.9536     XY      -0.2258     YY      -8.2801
        XZ      -1.3136     YZ      -0.3996     ZZ     -10.5355
    Octopole Moments (Debye-Ang^2)
       XXX      -1.3448    XXY      -0.2024    XYY       0.5851
       YYY      -0.2083    XXZ      -0.1080    XYZ      -0.0960
       YYZ      -0.8712    XZZ      -0.5604    YZZ       0.0093
       ZZZ      -1.3572
    Hexadecapole Moments (Debye-Ang^3)
      XXXX     -25.6708   XXXY      -1.6530   XXYY      -7.4602
      XYYY      -1.9531   YYYY     -15.8166   XXXZ     -10.5180
      XXYZ      -1.0905   XYYZ      -3.6644   YYYZ      -2.9582
      XXZZ     -13.8158   XYZZ      -0.7662   YYZZ     -10.6587
      XZZZ     -11.2082   YZZZ      -3.6907   ZZZZ     -53.0739
 -----------------------------------------------------------------
 Calculating analytic gradient of the SCF energy
 Gradient of SCF Energy
            1           2           3           4           5
    1   0.0200278  -0.0200328  -0.0000040  -0.0000027   0.0000117
    2   0.0061074  -0.0061051  -0.0000114   0.0000098  -0.0000007
    3   0.0354594  -0.0354623   0.0000033   0.0000062  -0.0000066
 Max gradient component =       3.546E-02
 RMS gradient           =       1.504E-02
 Gradient time:  CPU 4.74 s  wall 0.62 s
 Geometry Optimization Parameters
   NAtoms,    NIC,     NZ,  NCons,   NDum,   NFix, NCnnct, MaxDiis
        5      20       0       1       0       0       0       0

 Cartesian Hessian Update
 Hessian Updated using BFGS Update


** CONSTRAINED OPTIMIZATION IN DELOCALIZED INTERNAL COORDINATES **
   Searching for a Minimum

   Optimization Cycle:   4

                       Coordinates (Angstroms)
     ATOM                X               Y               Z
      1  H         1.0378031829    0.3162770160    1.8370176847
      2  C        -0.2269293434   -0.0691908930   -0.4017018846
      3  H         0.1306591725    0.8401921582   -0.8636874341
      4  H         0.2664276159   -1.0050182739   -0.6234236122
      5  H        -1.2080616280   -0.0823630072    0.0515952463
   Point Group: c1    Number of degrees of freedom:     9


   Energy is    -40.333412891

              Constraints and their Current Values
                                        Value     Constraint
   Distance(Angs):        1   2             2.600000     2.600000
 Hessian Updated using BFGS Update

  7 Hessian modes will be used to form the next step
  Hessian Eigenvalues:
     0.090824    0.160000    0.160000    0.160010    0.358768    0.358786
     0.360955

 Minimum Search - Taking Simple RFO Step
 Searching for Lamda that Minimizes Along All modes
 Value Taken    Lamda =   0.00000000
 Step Taken.  Stepsize is  0.000070

                             Maximum     Tolerance    Cnvgd?
         Gradient           0.000021      0.000300     YES
         Displacement       0.000061      0.001200     YES
         Energy change     -0.000003      0.000001      NO


                       Distance Matrix (Angstroms)
             H (  1)   C (  2)   H (  3)   H (  4)
   C (  2)  2.600000
   H (  3)  2.896758  1.080869
   H (  4)  2.897346  1.080895  1.865733
   H (  5)  2.896646  1.080866  1.865750  1.865760
 
 Final energy is   -40.3334128909827     


 ******************************
 **  OPTIMIZATION CONVERGED  **
 ******************************

                       Coordinates (Angstroms)
     ATOM                X               Y               Z
      1  H         1.0378031829    0.3162770160    1.8370176847
      2  C        -0.2269293434   -0.0691908930   -0.4017018846
      3  H         0.1306591725    0.8401921582   -0.8636874341
      4  H         0.2664276159   -1.0050182739   -0.6234236122
      5  H        -1.2080616280   -0.0823630072    0.0515952463

Z-matrix Print:
$molecule
0 1
C 
H  1 1.080866
H  1 1.080869 2 119.328323
H  1 1.080895 2 119.327011 3 -163.730574 0
H  1 2.600000 2 94.717885 3 98.115032 0
$end

PES scan, value:    2.6000 energy:  -40.3334128910
------- Summary of potential scan: ------ 
    2.6000       -40.3334128910
----------------------------------------- 
Archival summary:
1\1\hpc0243\JobtypUnspecified\ProcedureUnspecified\6-31G**\14\knomura\MonMar1116:21:052019MonMar1116:21:052019\0\\#,JobtypUnspecified,ProcedureUnspecified,6-31G**,\\0,1\C\H,1,1.08087\H,1,1.08087,2,119.328\H,1,1.0809,2,119.327,3,-163.731,0\H,1,2.6,2,94.7179,3,98.115,0\\\@

 Total job time:  10.24s(wall), 100.20s(cpu) 
 Mon Mar 11 16:21:05 2019

        *************************************************************
        *                                                           *
        *  Thank you very much for using Q-Chem.  Have a nice day.  *
        *                                                           *
        *************************************************************


