
Running Job 1 of 1 scan_ch4.xyz.data/inputs/bond_triplet_1.3.in
qchem scan_ch4.xyz.data/inputs/bond_triplet_1.3.in_32405.0 /staging/scratch/2851581/qchem32405/ 1
/usr/usc/qchem/5.1.1/exe/qcprog.exe_s scan_ch4.xyz.data/inputs/bond_triplet_1.3.in_32405.0 /staging/scratch/2851581/qchem32405/
Check license passed

                  Welcome to Q-Chem
     A Quantum Leap Into The Future Of Chemistry


 Q-Chem 5.1, Q-Chem, Inc., Pleasanton, CA (2018)

 Yihan Shao,  Zhengting Gan,  E. Epifanovsky,  A. T. B. Gilbert,  M. Wormit,  
 J. Kussmann,  A. W. Lange,  A. Behn,  Jia Deng,  Xintian Feng,  D. Ghosh,  
 M. Goldey,  P. R. Horn,  L. D. Jacobson,  I. Kaliman,  T. Kus,  A. Landau,  
 Jie Liu,  E. I. Proynov,  R. M. Richard,  R. P. Steele,  E. J. Sundstrom,  
 H. L. Woodcock III,  P. M. Zimmerman,  D. Zuev,  B. Albrecht,  E. Alguire,  
 S. A. Baeppler,  D. Barton,  Z. Benda,  Y. A. Bernard,  E. J. Berquist,  
 K. B. Bravaya,  H. Burton,  D. Casanova,  Chun-Min Chang,  Yunqing Chen,  
 A. Chien,  K. D. Closser,  M. P. Coons,  S. Coriani,  S. Dasgupta,  
 A. L. Dempwolff,  M. Diedenhofen,  Hainam Do,  R. G. Edgar,  Po-Tung Fang,  
 S. Faraji,  S. Fatehi,  Qingguo Feng,  K. D. Fenk,  J. Fosso-Tande,  
 Qinghui Ge,  A. Ghysels,  G. Gidofalvi,  J. Gomes,  J. Gonthier,  A. Gunina,  
 D. Hait,  M. W. D. Hanson-Heine,  P. H. P. Harbach,  A. W. Hauser,  
 J. E. Herr,  E. G. Hohenstein,  Z. C. Holden,  Kerwin Hui,  B. C. Huynh,  
 T.-C. Jagau,  Hyunjun Ji,  B. Kaduk,  K. Khistyaev,  Jaehoon Kim,  
 P. Klunzinger,  K. Koh,  D. Kosenkov,  L. Koulias,  T. Kowalczyk,  
 C. M. Krauter,  A. Kunitsa,  Ka Un Lao,  A. Laurent,  K. V. Lawler,  
 Joonho Lee,  D. Lefrancois,  S. Lehtola,  D. S. Levine,  Yi-Pei Li,  
 You-Sheng Lin,  Fenglai Liu,  E. Livshits,  A. Luenser,  P. Manohar,  
 E. Mansoor,  S. F. Manzer,  Shan-Ping Mao,  Yuezhi Mao,  N. Mardirossian,  
 A. V. Marenich,  T. Markovich,  L. A. Martinez-Martinez,  S. A. Maurer,  
 N. J. Mayhall,  S. C. McKenzie,  J.-M. Mewes,  A. F. Morrison,  
 J. W. Mullinax,  K. Nanda,  T. S. Nguyen-Beck,  R. Olivares-Amaya,  
 J. A. Parkhill,  T. M. Perrine,  F. Plasser,  P. Pokhilko,  S. Prager,  
 A. Prociuk,  E. Ramos,  D. R. Rehn,  F. Rob,  M. Schneider,  N. Sergueev,  
 S. M. Sharada,  S. Sharma,  D. W. Small,  T. Stauch,  T. Stein,  
 Yu-Chuan Su,  A. J. W. Thom,  A. Tkatchenko,  T. Tsuchimochi,  N. M. Tubman,  
 L. Vogt,  M. L. Vidal,  O. Vydrov,  M. A. Watson,  J. Wenzel,  
 M. de Wergifosse,  T. A. Wesolowski,  A. White,  J. Witte,  A. Yamada,  
 Jun Yang,  K. Yao,  S. Yeganeh,  S. R. Yost,  Zhi-Qiang You,  A. Zech,  
 Igor Ying Zhang,  Xing Zhang,  Yan Zhao,  Ying Zhu,  B. R. Brooks,  
 G. K. L. Chan,  C. J. Cramer,  M. S. Gordon,  W. J. Hehre,  A. Klamt,  
 M. W. Schmidt,  C. D. Sherrill,  D. G. Truhlar,  A. Aspuru-Guzik,  R. Baer,  
 A. T. Bell,  N. A. Besley,  Jeng-Da Chai,  A. E. DePrince, III,  
 R. A. DiStasio Jr.,  A. Dreuw,  B. D. Dunietz,  T. R. Furlani,  
 Chao-Ping Hsu,  Yousung Jung,  Jing Kong,  D. S. Lambrecht,  WanZhen Liang,  
 C. Ochsenfeld,  V. A. Rassolov,  L. V. Slipchenko,  J. E. Subotnik,  
 T. Van Voorhis,  J. M. Herbert,  A. I. Krylov,  P. M. W. Gill,  M. Head-Gordon

 Contributors to earlier versions of Q-Chem not listed above: 
 R. D. Adamson,  B. Austin,  J. Baker,  G. J. O. Beran,  K. Brandhorst,  
 S. T. Brown,  E. F. C. Byrd,  A. K. Chakraborty,  C.-L. Cheng,  
 Siu Hung Chien,  D. M. Chipman,  D. L. Crittenden,  H. Dachsel,  
 R. J. Doerksen,  A. D. Dutoi,  L. Fusti-Molnar,  W. A. Goddard III,  
 A. Golubeva-Zadorozhnaya,  S. R. Gwaltney,  G. Hawkins,  A. Heyden,  
 S. Hirata,  G. Kedziora,  F. J. Keil,  C. Kelley,  Jihan Kim,  R. A. King,  
 R. Z. Khaliullin,  P. P. Korambath,  W. Kurlancheek,  A. M. Lee,  M. S. Lee,  
 S. V. Levchenko,  Ching Yeh Lin,  D. Liotard,  R. C. Lochan,  I. Lotan,  
 P. E. Maslen,  N. Nair,  D. P. O'Neill,  D. Neuhauser,  E. Neuscamman,  
 C. M. Oana,  R. Olson,  B. Peters,  R. Peverati,  P. A. Pieniazek,  
 Y. M. Rhee,  J. Ritchie,  M. A. Rohrdanz,  E. Rosta,  N. J. Russ,  
 H. F. Schaefer III,  N. E. Schultz,  N. Shenvi,  A. C. Simmonett,  A. Sodt,  
 D. Stuck,  K. S. Thanthiriwatte,  V. Vanovschi,  Tao Wang,  A. Warshel,  
 C. F. Williams,  Q. Wu,  X. Xu,  W. Zhang

 Please cite Q-Chem as follows:
 Y. Shao et al., Mol. Phys. 113, 184-215 (2015)
 DOI: 10.1080/00268976.2014.952696

 Q-Chem 5.1.1 for Intel X86 EM64T Linux

 Parts of Q-Chem use Armadillo 8.300.2 (Tropical Shenanigans).
 http://arma.sourceforge.net/

 Q-Chem begins on Mon Mar 11 16:31:58 2019  

Host: 
0

     Scratch files written to /staging/scratch/2851581/qchem32405//
 Aug318 |scratch|qcdevops|jenkins|workspace|build_RNUM 6013   
Processing $rem in /usr/usc/qchem/5.1.1/config/preferences.
 MEM_TOTAL  2000 
Input Ideriv = 2
Curr. Ideriv = -1
Max.  Ideriv = 2

Checking the input file for inconsistencies... 	...done.

--------------------------------------------------------------
User input:
--------------------------------------------------------------

$comment
potential surface scanner
$end

$rem
JOBTYPE  PES_SCAN
UNRESTRICTED TRUE
SYM_IGNORE  TRUE
GEOM_OPT_MAX_CYCLES 400
SCF_MAX_CYCLES 400
METHOD   B3LYP
BASIS   6-31G**
PDB_PRINT 2
SCF_CONVERGENCE 6
THRESH 14
SCF_PRINT 1
$end
$molecule
0 3
H 0.285853 0.605654 1.029632
C -0.039929 -0.084662 -0.143965
H 0.771889 0.590554 -0.413644
H -0.303852 -0.643683 -1.094031
H -0.714067 -0.467963 0.621810
$end
$scan
stre 1 2 1.300000 1.301000 0.100000
$end
--------------------------------------------------------------
 ----------------------------------------------------------------
             Standard Nuclear Orientation (Angstroms)
    I     Atom           X                Y                Z
 ----------------------------------------------------------------
    1      H       0.2858530000     0.6056540000     1.0296320000
    2      C      -0.0399290000    -0.0846620000    -0.1439650000
    3      H       0.7718890000     0.5905540000    -0.4136440000
    4      H      -0.3038520000    -0.6436830000    -1.0940310000
    5      H      -0.7140670000    -0.4679630000     0.6218100000
 ----------------------------------------------------------------
 Nuclear Repulsion Energy =    12.6487800511 hartrees
 There are        6 alpha and        4 beta electrons
 Requested basis set is 6-31G(d,p)
 There are 16 shells and 35 basis functions

 Total QAlloc Memory Limit   2000 MB
 Mega-Array Size       188 MB
 MEM_STATIC part       192 MB
A total of 1 constraints
  
            1
    1   1.0100000
    2   1.0100000
    3   2.0100000
    4   1.3000000
    5   1.3010000
    6   0.1000000
    7   0.0000000
    8   0.0000000
    9   0.0000000
   10   0.0000000

                       Distance Matrix (Angstroms)
             H (  1)   C (  2)   H (  3)   H (  4)
   C (  2)  1.400000
   H (  3)  1.522992  1.089813
   H (  4)  2.533484  1.133484  1.772988
   H (  5)  1.522765  1.089859  2.097782  1.772925
 
 A cutoff of  1.0D-14 yielded    136 shell pairs
 There are       669 function pairs
 
 -------------------------------------------------------
 OpenMP Integral Computing Module                       
 Release: version 1.0, May 2013, Q-Chem Inc. Pittsburgh 
 -------------------------------------------------------
 Integral Job Info:
 Integral job number is                      11
 Integral operator is                         1
 short-range coefficients                     0
 long-range coefficients              100000000
 Omega coefficients                           0
 if combine SR and LR in K                    0
 Integral screening is                        0
 Integral computing path is                   2
 max size of driver memory is            800000
 size of driver memory is                593474
 size of scratch memory is              2361544
 max col of scratch BK array               1296
 max len of scratch array in speh3          155
 max len of scratch index in speh4           18
 max int batch size is                      520
 min int batch size is                       52
 fixed nKL is                                52
 max L of basis functions is                  2
 order of int derivative is                   0
 number of shells is                         16
 number of basis is                          35
 number of cartesian basis is                35
 number of contracted shell pairs           136
 number of primitive shell pairs            497
 maxK2 (contraction) of shell pair           36
 max number of K2 of shell pair               1
 max number of CS2 of shell pair             16
 max number of PS2 of shell pair             48
 mem total for path MDJ                  507880
 -------------------------------------------------------
 Smallest overlap matrix eigenvalue = 2.87E-02

 Scale SEOQF with 1.000000e+00/1.000000e+00/1.000000e+00

 Standard Electronic Orientation quadrupole field applied
 Nucleus-field energy     =    -0.0000000017 hartrees
 Guess from superposition of atomic densities
 Warning:  Energy on first SCF cycle will be non-variational
 SAD guess density has 10.000000 electrons

 -----------------------------------------------------------------------
  General SCF calculation program by
  Eric Jon Sundstrom, Paul Horn, Yuezhi Mao, Dmitri Zuev, Alec White,
  David Stuck, Shaama M.S., Shane Yost, Joonho Lee, David Small,
  Daniel Levine, Susi Lehtola, Hugh Burton, Evgeny Epifanovsky
 -----------------------------------------------------------------------
 Exchange:     0.2000 Hartree-Fock + 0.0800 Slater + 0.7200 B88
 Correlation:  0.1900 VWN1RPA + 0.8100 LYP
 Using SG-1 standard quadrature grid
 using 12 threads for integral computing
 -------------------------------------------------------
 OpenMP Integral computing Module                
 Release: version 1.0, May 2013, Q-Chem Inc. Pittsburgh 
 -------------------------------------------------------
 -------------------------------------------------------
 OpenMP BLAS3 based DFT computing Module                
 Release: version 1.0, May 2013, Q-Chem Inc. Pittsburgh 
 -------------------------------------------------------
 A unrestricted SCF calculation will be
 performed using DIIS
 SCF converges when DIIS error is below 1.0e-06
 Alpha HF Exchange    Energy =  -0.63463299320956
 Beta HF Exchange     Energy =  -0.63463299320956
 DFT Correlation      Energy =  -0.37560672855460
 DFT Exchange         Energy =  -4.98770112180729
 One-Electron (alpha) Energy = -38.51564172894503
 One-Electron (beta)  Energy = -38.51564172894503
 Total Coulomb        Energy =  30.67561696809983
 ---------------------------------------
  Cycle       Energy         DIIS error
 ---------------------------------------
    1     -40.3394602772      4.19e-02  
 Alpha HF Exchange    Energy =  -0.73990420220302
 Beta HF Exchange     Energy =  -0.57553325306444
 DFT Correlation      Energy =  -0.37207539238299
 DFT Exchange         Energy =  -5.21829654424476
 One-Electron (alpha) Energy = -43.38726880787954
 One-Electron (beta)  Energy = -35.03986157976510
 Total Coulomb        Energy =  32.42033813250797
    2     -40.2638215977      5.04e-03  
 Alpha HF Exchange    Energy =  -0.72335001464276
 Beta HF Exchange     Energy =  -0.56419660311068
 DFT Correlation      Energy =  -0.36412063744064
 DFT Exchange         Energy =  -5.10036426889937
 One-Electron (alpha) Energy = -42.67807795532904
 One-Electron (beta)  Energy = -34.53357428285079
 Total Coulomb        Energy =  31.04638697990002
    3     -40.2685167330      4.49e-03  
 Alpha HF Exchange    Energy =  -0.73260198576863
 Beta HF Exchange     Energy =  -0.57051980853219
 DFT Correlation      Energy =  -0.36734160123147
 DFT Exchange         Energy =  -5.16352214892883
 One-Electron (alpha) Energy = -43.04730624091464
 One-Electron (beta)  Energy = -34.79590499902036
 Total Coulomb        Energy =  31.74630437424000
    4     -40.2821123608      2.94e-04  
 Alpha HF Exchange    Energy =  -0.73261111303689
 Beta HF Exchange     Energy =  -0.57049336260371
 DFT Correlation      Energy =  -0.36695608173625
 DFT Exchange         Energy =  -5.16275654716073
 One-Electron (alpha) Energy = -43.03661482095107
 One-Electron (beta)  Energy = -34.78473313415212
 Total Coulomb        Energy =  31.72315568645653
    5     -40.2822293238      5.40e-05  
 Alpha HF Exchange    Energy =  -0.73265387609007
 Beta HF Exchange     Energy =  -0.57048961765226
 DFT Correlation      Energy =  -0.36689686343204
 DFT Exchange         Energy =  -5.16280354317353
 One-Electron (alpha) Energy = -43.03708539544977
 One-Electron (beta)  Energy = -34.78268936510989
 Total Coulomb        Energy =  31.72160432163793
    6     -40.2822342899      1.77e-05  
 Alpha HF Exchange    Energy =  -0.73266176884008
 Beta HF Exchange     Energy =  -0.57049357120281
 DFT Correlation      Energy =  -0.36687966417361
 DFT Exchange         Energy =  -5.16282391627993
 One-Electron (alpha) Energy = -43.03752237441353
 One-Electron (beta)  Energy = -34.78193062114039
 Total Coulomb        Energy =  31.72129709077002
    7     -40.2822347759      5.15e-06  
 Alpha HF Exchange    Energy =  -0.73267284608585
 Beta HF Exchange     Energy =  -0.57048878385246
 DFT Correlation      Energy =  -0.36687723845335
 DFT Exchange         Energy =  -5.16284608981965
 One-Electron (alpha) Energy = -43.03796596804725
 One-Electron (beta)  Energy = -34.78158971053626
 Total Coulomb        Energy =  31.72142576866647
    8     -40.2822348188      1.06e-06  
 Alpha HF Exchange    Energy =  -0.73267479377720
 Beta HF Exchange     Energy =  -0.57048731370866
 DFT Correlation      Energy =  -0.36687680833628
 DFT Exchange         Energy =  -5.16284820261238
 One-Electron (alpha) Energy = -43.03809182311392
 One-Electron (beta)  Energy = -34.78147839887431
 Total Coulomb        Energy =  31.72144247047655
    9     -40.2822348206      1.74e-07  Convergence criterion met
 ---------------------------------------
 SCF time:   CPU 15.15s  wall 2.00s 
<S^2> =          2.003044743
 Alpha HF Exchange    Energy =  -0.73267479377720
 Beta HF Exchange     Energy =  -0.57048731370866
 DFT Correlation      Energy =  -0.36687680833628
 DFT Exchange         Energy =  -5.16284820261238
 One-Electron (alpha) Energy = -43.03809182311392
 One-Electron (beta)  Energy = -34.78147839887431
 Total Coulomb        Energy =  31.72144247047655
 Nuclear repulsion Energy =  12.64878004937100
 SCF   energy in the final basis set =      -40.2822348206
 Total energy in the final basis set =      -40.2822348206
 
 --------------------------------------------------------------
 
                    Orbital Energies (a.u.)
 --------------------------------------------------------------
 
 Alpha MOs
 -- Occupied --
-10.227  -0.729  -0.481  -0.459  -0.253  -0.158
 -- Virtual --
  0.069   0.160   0.177   0.512   0.617   0.668   0.677   0.782
  0.853   0.895   0.909   1.369   1.403   1.467   1.818   2.023
  2.062   2.074   2.229   2.265   2.401   2.465   2.633   2.651
  2.813   3.181   3.265   3.835   4.519
 
 Beta MOs
 -- Occupied --
-10.213  -0.675  -0.454  -0.414
 -- Virtual --
 -0.076  -0.012   0.095   0.186   0.191   0.590   0.630   0.714
  0.724   0.807   0.914   0.915   0.965   1.425   1.462   1.498
  1.890   2.099   2.103   2.111   2.270   2.351   2.428   2.526
  2.676   2.715   2.832   3.200   3.301   3.868   4.562
 --------------------------------------------------------------
 
          Ground-State Mulliken Net Atomic Charges

     Atom                 Charge (a.u.)    Spin (a.u.)
  --------------------------------------------------------
      1 H                    -0.088114       0.768089
      2 C                    -0.363374       1.032373
      3 H                     0.183373       0.026217
      4 H                     0.084719       0.147066
      5 H                     0.183396       0.026255
  --------------------------------------------------------
  Sum of atomic charges =    -0.000000
  Sum of spin   charges =     2.000000

 -----------------------------------------------------------------
                    Cartesian Multipole Moments
 -----------------------------------------------------------------
    Charge (ESU x 10^10)
                -0.0000
    Dipole Moment (Debye)
         X      -0.1450      Y      -0.3070      Z      -0.5218
       Tot       0.6226
    Quadrupole Moments (Debye-Ang)
        XX      -8.5763     XY       0.7426     YY      -9.3869
        XZ      -1.0668     YZ      -1.0638     ZZ      -9.9226
    Octopole Moments (Debye-Ang^2)
       XXX       0.3624    XXY       0.2654    XYY       0.0617
       YYY       0.2700    XXZ       0.2542    XYZ      -0.3174
       YYZ      -0.4469    XZZ      -0.7410    YZZ      -1.2054
       ZZZ      -0.9454
    Hexadecapole Moments (Debye-Ang^3)
      XXXX     -14.6261   XXXY      -2.2441   XXYY      -5.0869
      XYYY      -2.5410   YYYY     -18.0042   XXXZ      -1.4889
      XXYZ      -1.7404   XYYZ      -0.6632   YYYZ      -4.6093
      XXZZ      -7.2034   XYZZ      -0.9859   YYZZ      -8.3861
      XZZZ      -1.9972   YZZZ      -5.3492   ZZZZ     -30.4651
 -----------------------------------------------------------------
 Calculating analytic gradient of the SCF energy
 Gradient of SCF Energy
            1           2           3           4           5
    1  -0.0122830   0.0122953  -0.0000085  -0.0000055   0.0000016
    2  -0.0260487   0.0260425   0.0000060   0.0000038  -0.0000036
    3  -0.0442832   0.0442885  -0.0000079   0.0000015   0.0000011
 Max gradient component =       4.429E-02
 RMS gradient           =       1.929E-02
 Gradient time:  CPU 4.73 s  wall 0.61 s
 Geometry Optimization Parameters
   NAtoms,    NIC,     NZ,  NCons,   NDum,   NFix, NCnnct, MaxDiis
        5      20       0       1       0       0       0       0


** CONSTRAINED OPTIMIZATION IN DELOCALIZED INTERNAL COORDINATES **
   Searching for a Minimum

   Optimization Cycle:   1

                       Coordinates (Angstroms)
     ATOM                X               Y               Z
      1  H         0.2858530000    0.6056540000    1.0296320000
      2  C        -0.0399290000   -0.0846620000   -0.1439650000
      3  H         0.7718890000    0.5905540000   -0.4136440000
      4  H        -0.3038520000   -0.6436830000   -1.0940310000
      5  H        -0.7140670000   -0.4679630000    0.6218100000
   Point Group: c1    Number of degrees of freedom:     9


   Energy is    -40.282234821

              Constraints and their Current Values
                                        Value     Constraint
   Distance(Angs):        1   2             1.400000     1.300000

 Attempting to Generate Delocalized Internal Coordinates

  ***ERROR*** Angle     4    2    1   is near-linear
              But No atom available to define colinear bend
**WARNING** Problems with Internal Coordinates
  Switching to Cartesian Coordinates

   Using Lagrange Multiplier Algorithm


 Translations and Rotations Projected Out of Hessian

 10 Hessian modes will be used to form the next step
  Hessian Eigenvalues:
    -1.000000    1.000000    1.000000    1.000000    1.000000    1.000000
     1.000000    1.000000    1.000000    2.000000

 Minimum Search - Taking P-RFO Step
 Searching for Lamda that Maximizes Along the Constraint modes Only
 Value Taken    Lamda =   0.03756660
 Searching for Lamda that Minimizes Along All other modes
 Value Taken    Lamda =  -0.00115636
 Step Taken.  Stepsize is  0.191792

                             Maximum     Tolerance    Cnvgd?
         Gradient           0.188973      0.000300      NO
         Displacement       0.141484      0.001200      NO
         Energy change     *********      0.000001      NO

 ----------------------------------------------------------------
             Standard Nuclear Orientation (Angstroms)
    I     Atom           X                Y                Z
 ----------------------------------------------------------------
    1      H       0.2745764638     0.5817628339     0.9890154033
    2      C      -0.0286560801    -0.0607684578    -0.1033514706
    3      H       0.7718906610     0.5905528004    -0.4136422830
    4      H      -0.3038527023    -0.6436839392    -1.0940314440
    5      H      -0.7140643424    -0.4679632373     0.6218117943
 ----------------------------------------------------------------
 Nuclear Repulsion Energy =    12.7885764888 hartrees
 There are        6 alpha and        4 beta electrons

                       Distance Matrix (Angstroms)
             H (  1)   C (  2)   H (  3)   H (  4)
   C (  2)  1.303097
   H (  3)  1.488236  1.077671
   H (  4)  2.485032  1.181935  1.772990
   H (  5)  1.488010  1.077708  2.097781  1.772927
 
 Applying Cartesian multipole field
    Component          Value
    ---------          -----
     (2,0,0)        1.00000E-10
     (0,2,0)        2.00000E-10
     (0,0,2)       -3.00000E-10
 Nucleus-field energy     =    -0.0000000016 hartrees
 Requested basis set is 6-31G(d,p)
 There are 16 shells and 35 basis functions
 A cutoff of  1.0D-14 yielded    136 shell pairs
 There are       669 function pairs
 Smallest overlap matrix eigenvalue = 2.95E-02
 Guess from superposition of atomic densities
 Warning:  Energy on first SCF cycle will be non-variational
 SAD guess density has 10.000000 electrons

 -----------------------------------------------------------------------
  General SCF calculation program by
  Eric Jon Sundstrom, Paul Horn, Yuezhi Mao, Dmitri Zuev, Alec White,
  David Stuck, Shaama M.S., Shane Yost, Joonho Lee, David Small,
  Daniel Levine, Susi Lehtola, Hugh Burton, Evgeny Epifanovsky
 -----------------------------------------------------------------------
 Exchange:     0.2000 Hartree-Fock + 0.0800 Slater + 0.7200 B88
 Correlation:  0.1900 VWN1RPA + 0.8100 LYP
 Using SG-1 standard quadrature grid
 using 12 threads for integral computing
 -------------------------------------------------------
 OpenMP Integral computing Module                
 Release: version 1.0, May 2013, Q-Chem Inc. Pittsburgh 
 -------------------------------------------------------
 -------------------------------------------------------
 OpenMP BLAS3 based DFT computing Module                
 Release: version 1.0, May 2013, Q-Chem Inc. Pittsburgh 
 -------------------------------------------------------
 A unrestricted SCF calculation will be
 performed using DIIS
 SCF converges when DIIS error is below 1.0e-06
 Alpha HF Exchange    Energy =  -0.63755922094046
 Beta HF Exchange     Energy =  -0.63755922094046
 DFT Correlation      Energy =  -0.37631576540283
 DFT Exchange         Energy =  -4.99364560720204
 One-Electron (alpha) Energy = -38.64387927147523
 One-Electron (beta)  Energy = -38.64387927147523
 Total Coulomb        Energy =  30.78202442802746
 ---------------------------------------
  Cycle       Energy         DIIS error
 ---------------------------------------
    1     -40.3622374422      4.29e-02  
 Alpha HF Exchange    Energy =  -0.73988150154641
 Beta HF Exchange     Energy =  -0.57556261076234
 DFT Correlation      Energy =  -0.37382246061130
 DFT Exchange         Energy =  -5.22224374332735
 One-Electron (alpha) Energy = -43.54495908132614
 One-Electron (beta)  Energy = -35.13027886289055
 Total Coulomb        Energy =  32.54362569549389
    2     -40.2545460777      5.03e-03  
 Alpha HF Exchange    Energy =  -0.72288561865425
 Beta HF Exchange     Energy =  -0.56381663720607
 DFT Correlation      Energy =  -0.36595825044405
 DFT Exchange         Energy =  -5.10088602536677
 One-Electron (alpha) Energy = -42.80973550864091
 One-Electron (beta)  Energy = -34.62872919145773
 Total Coulomb        Energy =  31.14486363982937
    3     -40.2585711047      4.54e-03  
 Alpha HF Exchange    Energy =  -0.73195962255244
 Beta HF Exchange     Energy =  -0.57024922874204
 DFT Correlation      Energy =  -0.36934112122729
 DFT Exchange         Energy =  -5.16415328265206
 One-Electron (alpha) Energy = -43.18085543465076
 One-Electron (beta)  Energy = -34.89459653728336
 Total Coulomb        Energy =  31.85014458824212
    4     -40.2724341516      2.62e-04  
 Alpha HF Exchange    Energy =  -0.73190943172201
 Beta HF Exchange     Energy =  -0.57027396194764
 DFT Correlation      Energy =  -0.36904372527952
 DFT Exchange         Energy =  -5.16344205881455
 One-Electron (alpha) Energy = -43.16760098891510
 One-Electron (beta)  Energy = -34.88921874243197
 Total Coulomb        Energy =  31.83038521072157
    5     -40.2725272111      5.15e-05  
 Alpha HF Exchange    Energy =  -0.73192333681816
 Beta HF Exchange     Energy =  -0.57028324510449
 DFT Correlation      Energy =  -0.36899911495859
 DFT Exchange         Energy =  -5.16343090556318
 One-Electron (alpha) Energy = -43.16642683382034
 One-Electron (beta)  Energy = -34.88875840542725
 Total Coulomb        Energy =  31.82871396904979
    6     -40.2725313854      1.89e-05  
 Alpha HF Exchange    Energy =  -0.73192060571783
 Beta HF Exchange     Energy =  -0.57029276325737
 DFT Correlation      Energy =  -0.36898455996269
 DFT Exchange         Energy =  -5.16343125771409
 One-Electron (alpha) Energy = -43.16626486604648
 One-Electron (beta)  Energy = -34.88849097857534
 Total Coulomb        Energy =  31.82827663653444
    7     -40.2725319075      4.70e-06  
 Alpha HF Exchange    Energy =  -0.73192814088689
 Beta HF Exchange     Energy =  -0.57029253304102
 DFT Correlation      Energy =  -0.36898259108138
 DFT Exchange         Energy =  -5.16345654603117
 One-Electron (alpha) Energy = -43.16651446062659
 One-Electron (beta)  Energy = -34.88837585666297
 Total Coulomb        Energy =  31.82844169792688
    8     -40.2725319431      8.94e-07  Convergence criterion met
 ---------------------------------------
 SCF time:   CPU 13.89s  wall 1.00s 
<S^2> =          2.003504637
 Alpha HF Exchange    Energy =  -0.73192814088689
 Beta HF Exchange     Energy =  -0.57029253304102
 DFT Correlation      Energy =  -0.36898259108138
 DFT Exchange         Energy =  -5.16345654603117
 One-Electron (alpha) Energy = -43.16651446062659
 One-Electron (beta)  Energy = -34.88837585666297
 Total Coulomb        Energy =  31.82844169792688
 Nuclear repulsion Energy =  12.78857648725574
 SCF   energy in the final basis set =      -40.2725319431
 Total energy in the final basis set =      -40.2725319431
 
 --------------------------------------------------------------
 
                    Orbital Energies (a.u.)
 --------------------------------------------------------------
 
 Alpha MOs
 -- Occupied --
-10.231  -0.736  -0.491  -0.458  -0.255  -0.145
 -- Virtual --
  0.067   0.155   0.181   0.511   0.641   0.669   0.694   0.760
  0.865   0.891   0.912   1.362   1.393   1.398   1.836   2.023
  2.092   2.112   2.231   2.312   2.396   2.463   2.664   2.675
  2.816   3.158   3.259   3.967   4.621
 
 Beta MOs
 -- Occupied --
-10.218  -0.681  -0.460  -0.410
 -- Virtual --
 -0.078  -0.014   0.097   0.191   0.192   0.588   0.655   0.712
  0.746   0.790   0.917   0.937   0.951   1.419   1.429   1.454
  1.904   2.089   2.142   2.148   2.275   2.388   2.424   2.534
  2.712   2.736   2.840   3.182   3.302   4.004   4.665
 --------------------------------------------------------------
 
          Ground-State Mulliken Net Atomic Charges

     Atom                 Charge (a.u.)    Spin (a.u.)
  --------------------------------------------------------
      1 H                    -0.055543       0.656073
      2 C                    -0.364774       0.993116
      3 H                     0.179842       0.060149
      4 H                     0.060622       0.230460
      5 H                     0.179853       0.060202
  --------------------------------------------------------
  Sum of atomic charges =     0.000000
  Sum of spin   charges =     2.000000

 -----------------------------------------------------------------
                    Cartesian Multipole Moments
 -----------------------------------------------------------------
    Charge (ESU x 10^10)
                 0.0000
    Dipole Moment (Debye)
         X      -0.0640      Y      -0.1353      Z      -0.2300
       Tot       0.2744
    Quadrupole Moments (Debye-Ang)
        XX      -8.6120     XY       0.6897     YY      -9.3731
        XZ      -1.0003     YZ      -1.0032     ZZ      -9.8847
    Octopole Moments (Debye-Ang^2)
       XXX       0.3916    XXY       0.3069    XYY       0.1313
       YYY       0.4299    XXZ       0.3207    XYZ      -0.2119
       YYZ      -0.2104    XZZ      -0.5635    YZZ      -0.8218
       ZZZ      -0.2539
    Hexadecapole Moments (Debye-Ang^3)
      XXXX     -14.6962   XXXY      -2.2706   XXYY      -5.0598
      XYYY      -2.5209   YYYY     -17.6637   XXXZ      -1.2264
      XXYZ      -1.5674   XYYZ      -0.5505   YYYZ      -4.2564
      XXZZ      -7.0810   XYZZ      -1.0093   YYZZ      -8.1888
      XZZZ      -1.8110   YZZZ      -4.9994   ZZZZ     -29.4155
 -----------------------------------------------------------------
 Calculating analytic gradient of the SCF energy
 Gradient of SCF Energy
            1           2           3           4           5
    1  -0.0117788   0.0122130  -0.0104048  -0.0019803   0.0119509
    2  -0.0249932   0.0258628  -0.0063010  -0.0041866   0.0096179
    3  -0.0424742   0.0439176   0.0106231  -0.0071127  -0.0049537
 Max gradient component =       4.392E-02
 RMS gradient           =       1.984E-02
 Gradient time:  CPU 4.69 s  wall 0.61 s
 Geometry Optimization Parameters
   NAtoms,    NIC,     NZ,  NCons,   NDum,   NFix, NCnnct, MaxDiis
        5      20       0       1       0       0       0       0

 Cartesian Hessian Update
 Hessian Updated using BFGS Update
**WARNING** Hereditary positive definiteness endangered


** CONSTRAINED OPTIMIZATION IN CARTESIAN COORDINATES **
   Searching for a Minimum

   Optimization Cycle:   2

                       Coordinates (Angstroms)
     ATOM                X               Y               Z
      1  H         0.2745764638    0.5817628339    0.9890154033
      2  C        -0.0286560801   -0.0607684578   -0.1033514706
      3  H         0.7718906610    0.5905528004   -0.4136422830
      4  H        -0.3038527023   -0.6436839392   -1.0940314440
      5  H        -0.7140643424   -0.4679632373    0.6218117943
   Point Group: c1    Number of degrees of freedom:     9


   Energy is    -40.272531943

              Constraints and their Current Values
                                        Value     Constraint
   Distance(Angs):        1   2             1.303097     1.300000

   Using Lagrange Multiplier Algorithm


 Translations and Rotations Projected Out of Hessian

  6 Hessian modes will be used to form the next step
  Hessian Eigenvalues:
    -1.619532   -1.331577    1.000000    1.083856    1.096648    1.413224
**WARNING** Hessian does not have the Desired Local Structure

 Minimum Search - Taking P-RFO Step
 Searching for Lamda that Maximizes Along the Constraint modes Only
 Value Taken    Lamda =   0.00228981
 Searching for Lamda that Minimizes Along All other modes
 Value Taken    Lamda =  -1.62270018
 Calculated Step too Large.  Step scaled by  0.013268
 Step Taken.  Stepsize is  0.300000

                             Maximum     Tolerance    Cnvgd?
         Gradient           0.076130      0.000300      NO
         Displacement       0.122078      0.001200      NO
         Energy change      0.009703      0.000001      NO

 ----------------------------------------------------------------
             Standard Nuclear Orientation (Angstroms)
    I     Atom           X                Y                Z
 ----------------------------------------------------------------
    1      H       0.2624586697     0.5561525370     0.9454459614
    2      C      -0.0188254246    -0.0399057065    -0.0675448287
    3      H       0.8280988807     0.6246224137    -0.4710718623
    4      H      -0.2931731430    -0.6210193465    -1.0555973253
    5      H      -0.7786649828    -0.5199498977     0.6485700550
 ----------------------------------------------------------------
 Nuclear Repulsion Energy =    12.5901665749 hartrees
 There are        6 alpha and        4 beta electrons

                       Distance Matrix (Angstroms)
             H (  1)   C (  2)   H (  3)   H (  4)
   C (  2)  1.208535
   H (  3)  1.526814  1.149658
   H (  4)  2.387181  1.178646  1.774977
   H (  5)  1.526457  1.149182  2.268333  1.774853
 
 Applying Cartesian multipole field
    Component          Value
    ---------          -----
     (2,0,0)        1.00000E-10
     (0,2,0)        2.00000E-10
     (0,0,2)       -3.00000E-10
 Nucleus-field energy     =    -0.0000000014 hartrees
 Requested basis set is 6-31G(d,p)
 There are 16 shells and 35 basis functions
 A cutoff of  1.0D-14 yielded    136 shell pairs
 There are       669 function pairs
 Smallest overlap matrix eigenvalue = 3.18E-02
 Guess from superposition of atomic densities
 Warning:  Energy on first SCF cycle will be non-variational
 SAD guess density has 10.000000 electrons

 -----------------------------------------------------------------------
  General SCF calculation program by
  Eric Jon Sundstrom, Paul Horn, Yuezhi Mao, Dmitri Zuev, Alec White,
  David Stuck, Shaama M.S., Shane Yost, Joonho Lee, David Small,
  Daniel Levine, Susi Lehtola, Hugh Burton, Evgeny Epifanovsky
 -----------------------------------------------------------------------
 Exchange:     0.2000 Hartree-Fock + 0.0800 Slater + 0.7200 B88
 Correlation:  0.1900 VWN1RPA + 0.8100 LYP
 Using SG-1 standard quadrature grid
 using 12 threads for integral computing
 -------------------------------------------------------
 OpenMP Integral computing Module                
 Release: version 1.0, May 2013, Q-Chem Inc. Pittsburgh 
 -------------------------------------------------------
 -------------------------------------------------------
 OpenMP BLAS3 based DFT computing Module                
 Release: version 1.0, May 2013, Q-Chem Inc. Pittsburgh 
 -------------------------------------------------------
 A unrestricted SCF calculation will be
 performed using DIIS
 SCF converges when DIIS error is below 1.0e-06
 Alpha HF Exchange    Energy =  -0.63368652736537
 Beta HF Exchange     Energy =  -0.63368652736537
 DFT Correlation      Energy =  -0.37558891168317
 DFT Exchange         Energy =  -4.98496372830223
 One-Electron (alpha) Energy = -38.48849788955201
 One-Electron (beta)  Energy = -38.48849788955201
 Total Coulomb        Energy =  30.67447137888063
 ---------------------------------------
  Cycle       Energy         DIIS error
 ---------------------------------------
    1     -40.3402835214      4.11e-02  
 Alpha HF Exchange    Energy =  -0.73533468137871
 Beta HF Exchange     Energy =  -0.57178542836822
 DFT Correlation      Energy =  -0.37383988237834
 DFT Exchange         Energy =  -5.19440972738196
 One-Electron (alpha) Energy = -43.34996845221334
 One-Electron (beta)  Energy = -34.94719125783159
 Total Coulomb        Energy =  32.32805862782945
    2     -40.2543042282      4.68e-03  
 Alpha HF Exchange    Energy =  -0.71893860383789
 Beta HF Exchange     Energy =  -0.56043124739606
 DFT Correlation      Energy =  -0.36651209224126
 DFT Exchange         Energy =  -5.07802632907223
 One-Electron (alpha) Energy = -42.63538270991116
 One-Electron (beta)  Energy = -34.47439094657334
 Total Coulomb        Energy =  30.98693296702547
    3     -40.2565823885      4.40e-03  
 Alpha HF Exchange    Energy =  -0.72741268308834
 Beta HF Exchange     Energy =  -0.56663135854078
 DFT Correlation      Energy =  -0.36997044462506
 DFT Exchange         Energy =  -5.13835871418103
 One-Electron (alpha) Energy = -42.99354440673077
 One-Electron (beta)  Energy = -34.73411390232572
 Total Coulomb        Energy =  31.67022202038845
    4     -40.2696429156      2.25e-04  
 Alpha HF Exchange    Energy =  -0.72724436129539
 Beta HF Exchange     Energy =  -0.56667113992978
 DFT Correlation      Energy =  -0.36980714276832
 DFT Exchange         Energy =  -5.13748612260993
 One-Electron (alpha) Energy = -42.97754670602207
 One-Electron (beta)  Energy = -34.73423588583879
 Total Coulomb        Energy =  31.65312743817315
    5     -40.2696973468      3.91e-05  
 Alpha HF Exchange    Energy =  -0.72719545875301
 Beta HF Exchange     Energy =  -0.56669940621133
 DFT Correlation      Energy =  -0.36978235731110
 DFT Exchange         Energy =  -5.13733596388811
 One-Electron (alpha) Energy = -42.97405067277841
 One-Electron (beta)  Energy = -34.73549058636111
 Total Coulomb        Energy =  31.65068821076476
    6     -40.2696996610      1.20e-05  
 Alpha HF Exchange    Energy =  -0.72718537110097
 Beta HF Exchange     Energy =  -0.56671476805814
 DFT Correlation      Energy =  -0.36977810836759
 DFT Exchange         Energy =  -5.13734120151333
 One-Electron (alpha) Energy = -42.97344035184376
 One-Electron (beta)  Energy = -34.73597839401329
 Total Coulomb        Energy =  31.65057174224223
    7     -40.2696998791      3.92e-06  
 Alpha HF Exchange    Energy =  -0.72718580572069
 Beta HF Exchange     Energy =  -0.56672052061375
 DFT Correlation      Energy =  -0.36977805434189
 DFT Exchange         Energy =  -5.13736287297967
 One-Electron (alpha) Energy = -42.97336213480787
 One-Electron (beta)  Energy = -34.73620796553517
 Total Coulomb        Energy =  31.65075088083504
    8     -40.2696998996      4.89e-07  Convergence criterion met
 ---------------------------------------
 SCF time:   CPU 13.55s  wall 1.00s 
<S^2> =          2.002864114
 Alpha HF Exchange    Energy =  -0.72718580572069
 Beta HF Exchange     Energy =  -0.56672052061375
 DFT Correlation      Energy =  -0.36977805434189
 DFT Exchange         Energy =  -5.13736287297967
 One-Electron (alpha) Energy = -42.97336213480787
 One-Electron (beta)  Energy = -34.73620796553517
 Total Coulomb        Energy =  31.65075088083504
 Nuclear repulsion Energy =  12.59016657353081
 SCF   energy in the final basis set =      -40.2696998996
 Total energy in the final basis set =      -40.2696998996
 
 --------------------------------------------------------------
 
                    Orbital Energies (a.u.)
 --------------------------------------------------------------
 
 Alpha MOs
 -- Occupied --
-10.240  -0.727  -0.473  -0.465  -0.253  -0.138
 -- Virtual --
  0.045   0.164   0.170   0.511   0.683   0.697   0.707   0.761
  0.857   0.863   0.887   1.306   1.375   1.381   1.916   2.006
  2.014   2.124   2.223   2.326   2.338   2.519   2.565   2.755
  2.766   2.924   3.240   3.991   4.659
 
 Beta MOs
 -- Occupied --
-10.228  -0.671  -0.433  -0.419
 -- Virtual --
 -0.078  -0.021   0.088   0.191   0.195   0.587   0.719   0.726
  0.753   0.785   0.900   0.908   0.951   1.332   1.434   1.441
  1.987   2.063   2.073   2.160   2.275   2.366   2.398   2.586
  2.623   2.799   2.808   2.960   3.285   4.032   4.708
 --------------------------------------------------------------
 
          Ground-State Mulliken Net Atomic Charges

     Atom                 Charge (a.u.)    Spin (a.u.)
  --------------------------------------------------------
      1 H                     0.046025       0.428873
      2 C                    -0.385032       0.955184
      3 H                     0.127100       0.194118
      4 H                     0.084686       0.228174
      5 H                     0.127221       0.193651
  --------------------------------------------------------
  Sum of atomic charges =     0.000000
  Sum of spin   charges =     2.000000

 -----------------------------------------------------------------
                    Cartesian Multipole Moments
 -----------------------------------------------------------------
    Charge (ESU x 10^10)
                 0.0000
    Dipole Moment (Debye)
         X       0.0098      Y       0.0219      Z       0.0378
       Tot       0.0448
    Quadrupole Moments (Debye-Ang)
        XX      -9.0436     XY       0.5198     YY      -9.3439
        XZ      -0.4409     YZ      -0.2534     ZZ      -9.2573
    Octopole Moments (Debye-Ang^2)
       XXX       0.3743    XXY       0.3054    XYY       0.1713
       YYY       0.5504    XXZ       0.3549    XYZ      -0.0887
       YYZ       0.0591    XZZ      -0.3035    YZZ      -0.3377
       ZZZ       0.4654
    Hexadecapole Moments (Debye-Ang^3)
      XXXX     -17.2351   XXXY      -3.0292   XXYY      -5.5345
      XYYY      -3.0954   YYYY     -17.6051   XXXZ       0.4210
      XXYZ      -0.7538   XYYZ       0.1621   YYYZ      -2.2282
      XXZZ      -7.1091   XYZZ      -1.1333   YYZZ      -7.4896
      XZZZ      -0.0915   YZZZ      -2.5651   ZZZZ     -25.7570
 -----------------------------------------------------------------
 Calculating analytic gradient of the SCF energy
 Gradient of SCF Energy
            1           2           3           4           5
    1  -0.0061591   0.0017507   0.0027784  -0.0020593   0.0036893
    2  -0.0130258   0.0038564   0.0064369  -0.0043486   0.0070810
    3  -0.0220954   0.0067128   0.0117063  -0.0073972   0.0110735
 Max gradient component =       2.210E-02
 RMS gradient           =       8.979E-03
 Gradient time:  CPU 4.75 s  wall 0.59 s
 Geometry Optimization Parameters
   NAtoms,    NIC,     NZ,  NCons,   NDum,   NFix, NCnnct, MaxDiis
        5      20       0       1       0       0       0       0

 Cartesian Hessian Update
 Hessian Updated using BFGS Update
**WARNING** Hereditary positive definiteness endangered


** CONSTRAINED OPTIMIZATION IN CARTESIAN COORDINATES **
   Searching for a Minimum

   Optimization Cycle:   3

                       Coordinates (Angstroms)
     ATOM                X               Y               Z
      1  H         0.2624586697    0.5561525370    0.9454459614
      2  C        -0.0188254246   -0.0399057065   -0.0675448287
      3  H         0.8280988807    0.6246224137   -0.4710718623
      4  H        -0.2931731430   -0.6210193465   -1.0555973253
      5  H        -0.7786649828   -0.5199498977    0.6485700550
   Point Group: c1    Number of degrees of freedom:     9


   Energy is    -40.269699900

              Constraints and their Current Values
                                        Value     Constraint
   Distance(Angs):        1   2             1.208535     1.300000

   Using Lagrange Multiplier Algorithm


 Translations and Rotations Projected Out of Hessian

 10 Hessian modes will be used to form the next step
  Hessian Eigenvalues:
    -2.378466   -0.189909    0.604870    1.000000    1.000000    1.000000
     1.000000    1.164354    1.190566    1.198482
**WARNING** Hessian does not have the Desired Local Structure

 Minimum Search - Taking P-RFO Step
 Searching for Lamda that Maximizes Along the Constraint modes Only
 Value Taken    Lamda =   0.05401530
 Searching for Lamda that Minimizes Along All other modes
 Value Taken    Lamda =  -0.21792972
 Calculated Step too Large.  Step scaled by  0.107872
 Step Taken.  Stepsize is  0.300000

                             Maximum     Tolerance    Cnvgd?
         Gradient           0.203865      0.000300      NO
         Displacement       0.135140      0.001200      NO
         Energy change      0.002832      0.000001      NO

 ----------------------------------------------------------------
             Standard Nuclear Orientation (Angstroms)
    I     Atom           X                Y                Z
 ----------------------------------------------------------------
    1      H       0.2577083940     0.5462366995     0.9286441711
    2      C      -0.0232136067    -0.0489509867    -0.0823620845
    3      H       0.8990352918     0.6745193095    -0.5224092316
    4      H      -0.2834578995    -0.6003893835    -1.0205999752
    5      H      -0.8501781796    -0.5715156388     0.6965291202
 ----------------------------------------------------------------
 Nuclear Repulsion Energy =    12.2366292498 hartrees
 There are        6 alpha and        4 beta electrons

                       Distance Matrix (Angstroms)
             H (  1)   C (  2)   H (  3)   H (  4)
   C (  2)  1.206358
   H (  3)  1.591638  1.252036
   H (  4)  2.325331  1.118974  1.808833
   H (  5)  1.590805  1.250446  2.469446  1.808463
 
 Applying Cartesian multipole field
    Component          Value
    ---------          -----
     (2,0,0)        1.00000E-10
     (0,2,0)        2.00000E-10
     (0,0,2)       -3.00000E-10
 Nucleus-field energy     =    -0.0000000013 hartrees
 Requested basis set is 6-31G(d,p)
 There are 16 shells and 35 basis functions
 A cutoff of  1.0D-14 yielded    136 shell pairs
 There are       669 function pairs
 Smallest overlap matrix eigenvalue = 3.04E-02
 Guess from superposition of atomic densities
 Warning:  Energy on first SCF cycle will be non-variational
 SAD guess density has 10.000000 electrons

 -----------------------------------------------------------------------
  General SCF calculation program by
  Eric Jon Sundstrom, Paul Horn, Yuezhi Mao, Dmitri Zuev, Alec White,
  David Stuck, Shaama M.S., Shane Yost, Joonho Lee, David Small,
  Daniel Levine, Susi Lehtola, Hugh Burton, Evgeny Epifanovsky
 -----------------------------------------------------------------------
 Exchange:     0.2000 Hartree-Fock + 0.0800 Slater + 0.7200 B88
 Correlation:  0.1900 VWN1RPA + 0.8100 LYP
 Using SG-1 standard quadrature grid
 using 12 threads for integral computing
 -------------------------------------------------------
 OpenMP Integral computing Module                
 Release: version 1.0, May 2013, Q-Chem Inc. Pittsburgh 
 -------------------------------------------------------
 -------------------------------------------------------
 OpenMP BLAS3 based DFT computing Module                
 Release: version 1.0, May 2013, Q-Chem Inc. Pittsburgh 
 -------------------------------------------------------
 A unrestricted SCF calculation will be
 performed using DIIS
 SCF converges when DIIS error is below 1.0e-06
 Alpha HF Exchange    Energy =  -0.62636779046222
 Beta HF Exchange     Energy =  -0.62636779046222
 DFT Correlation      Energy =  -0.37391314712213
 DFT Exchange         Energy =  -4.96931113272490
 One-Electron (alpha) Energy = -38.17778932837143
 One-Electron (beta)  Energy = -38.17778932837143
 Total Coulomb        Energy =  30.42982233177969
 ---------------------------------------
  Cycle       Energy         DIIS error
 ---------------------------------------
    1     -40.2850869372      3.82e-02  
 Alpha HF Exchange    Energy =  -0.72972160096146
 Beta HF Exchange     Energy =  -0.56768766314408
 DFT Correlation      Energy =  -0.37166377657914
 DFT Exchange         Energy =  -5.15951307298669
 One-Electron (alpha) Energy = -42.94616191419669
 One-Electron (beta)  Energy = -34.64950926150565
 Total Coulomb        Energy =  31.93408937108387
    2     -40.2535386698      4.33e-03  
 Alpha HF Exchange    Energy =  -0.71526376780172
 Beta HF Exchange     Energy =  -0.55716568906850
 DFT Correlation      Energy =  -0.36480935916803
 DFT Exchange         Energy =  -5.05403452503603
 One-Electron (alpha) Energy = -42.28323370202232
 One-Electron (beta)  Energy = -34.20580003850051
 Total Coulomb        Energy =  30.68861818918590
    3     -40.2550596439      4.16e-03  
 Alpha HF Exchange    Energy =  -0.72307085906606
 Beta HF Exchange     Energy =  -0.56309954887447
 DFT Correlation      Energy =  -0.36813164842709
 DFT Exchange         Energy =  -5.11074329660560
 One-Electron (alpha) Energy = -42.62231867192562
 One-Electron (beta)  Energy = -34.45789592422859
 Total Coulomb        Energy =  31.34165052303655
    4     -40.2669801776      2.52e-04  
 Alpha HF Exchange    Energy =  -0.72286275885775
 Beta HF Exchange     Energy =  -0.56312965278591
 DFT Correlation      Energy =  -0.36795340273887
 DFT Exchange         Energy =  -5.10961537600929
 One-Electron (alpha) Energy = -42.60238470606681
 One-Electron (beta)  Energy = -34.45852508083646
 Total Coulomb        Energy =  31.32079434944613
    5     -40.2670473793      4.70e-05  
 Alpha HF Exchange    Energy =  -0.72281040914405
 Beta HF Exchange     Energy =  -0.56317504895149
 DFT Correlation      Energy =  -0.36793216449880
 DFT Exchange         Energy =  -5.10951627601164
 One-Electron (alpha) Energy = -42.59822933036941
 One-Electron (beta)  Energy = -34.46079163604959
 Total Coulomb        Energy =  31.31877506428293
    6     -40.2670505522      1.53e-05  
 Alpha HF Exchange    Energy =  -0.72278988397240
 Beta HF Exchange     Energy =  -0.56319903229318
 DFT Correlation      Energy =  -0.36792627283860
 DFT Exchange         Energy =  -5.10950398545996
 One-Electron (alpha) Energy = -42.59691393483025
 One-Electron (beta)  Energy = -34.46174185046868
 Total Coulomb        Energy =  31.31839480100721
    7     -40.2670509103      3.81e-06  
 Alpha HF Exchange    Energy =  -0.72278852322693
 Beta HF Exchange     Energy =  -0.56320738506565
 DFT Correlation      Energy =  -0.36792663048581
 DFT Exchange         Energy =  -5.10952887245171
 One-Electron (alpha) Energy = -42.59672989590281
 One-Electron (beta)  Energy = -34.46211149968864
 Total Coulomb        Energy =  31.31861262766229
    8     -40.2670509306      5.19e-07  Convergence criterion met
 ---------------------------------------
 SCF time:   CPU 13.31s  wall 1.00s 
<S^2> =          2.003867967
 Alpha HF Exchange    Energy =  -0.72278852322693
 Beta HF Exchange     Energy =  -0.56320738506565
 DFT Correlation      Energy =  -0.36792663048581
 DFT Exchange         Energy =  -5.10952887245171
 One-Electron (alpha) Energy = -42.59672989590281
 One-Electron (beta)  Energy = -34.46211149968864
 Total Coulomb        Energy =  31.31861262766229
 Nuclear repulsion Energy =  12.23662924851037
 SCF   energy in the final basis set =      -40.2670509306
 Total energy in the final basis set =      -40.2670509306
 
 --------------------------------------------------------------
 
                    Orbital Energies (a.u.)
 --------------------------------------------------------------
 
 Alpha MOs
 -- Occupied --
-10.247  -0.714  -0.475  -0.444  -0.251  -0.147
 -- Virtual --
  0.032   0.146   0.173   0.510   0.677   0.702   0.715   0.773
  0.807   0.840   0.910   1.307   1.371   1.413   1.850   1.982
  1.999   2.079   2.213   2.284   2.303   2.421   2.565   2.700
  2.785   2.803   3.164   3.875   4.623
 
 Beta MOs
 -- Occupied --
-10.235  -0.658  -0.437  -0.396
 -- Virtual --
 -0.076  -0.031   0.076   0.177   0.194   0.586   0.721   0.728
  0.751   0.800   0.865   0.884   0.958   1.332   1.429   1.475
  1.925   2.038   2.055   2.115   2.267   2.338   2.356   2.488
  2.622   2.742   2.821   2.847   3.210   3.914   4.669
 --------------------------------------------------------------
 
          Ground-State Mulliken Net Atomic Charges

     Atom                 Charge (a.u.)    Spin (a.u.)
  --------------------------------------------------------
      1 H                     0.122966       0.295364
      2 C                    -0.382156       0.944046
      3 H                     0.055750       0.331005
      4 H                     0.146979       0.100962
      5 H                     0.056460       0.328622
  --------------------------------------------------------
  Sum of atomic charges =    -0.000000
  Sum of spin   charges =     2.000000

 -----------------------------------------------------------------
                    Cartesian Multipole Moments
 -----------------------------------------------------------------
    Charge (ESU x 10^10)
                -0.0000
    Dipole Moment (Debye)
         X       0.0022      Y       0.0094      Z       0.0207
       Tot       0.0228
    Quadrupole Moments (Debye-Ang)
        XX      -9.7224     XY       0.2470     YY      -9.4261
        XZ       0.2930     YZ       0.6870     ZZ      -8.6252
    Octopole Moments (Debye-Ang^2)
       XXX       0.3594    XXY       0.2866    XYY       0.1521
       YYY       0.5679    XXZ       0.3617    XYZ      -0.0781
       YYZ       0.1086    XZZ      -0.2395    YZZ      -0.2577
       ZZZ       0.5570
    Hexadecapole Moments (Debye-Ang^3)
      XXXX     -21.1067   XXXY      -4.3385   XXYY      -6.4614
      XYYY      -4.1636   YYYY     -18.4048   XXXZ       2.4314
      XXYZ       0.1534   XYYZ       1.0212   YYYZ      -0.0300
      XXZZ      -7.5892   XYZZ      -1.3904   YYZZ      -7.0307
      XZZZ       2.1226   YZZZ       0.1921   ZZZZ     -23.1344
 -----------------------------------------------------------------
 Calculating analytic gradient of the SCF energy
 Gradient of SCF Energy
            1           2           3           4           5
    1   0.0017065  -0.0084649   0.0119029  -0.0010600  -0.0040845
    2   0.0036975  -0.0179823   0.0139230  -0.0021892   0.0025511
    3   0.0063908  -0.0305997   0.0083488  -0.0036943   0.0195545
 Max gradient component =       3.060E-02
 RMS gradient           =       1.216E-02
 Gradient time:  CPU 4.60 s  wall 0.54 s
 Geometry Optimization Parameters
   NAtoms,    NIC,     NZ,  NCons,   NDum,   NFix, NCnnct, MaxDiis
        5      20       0       1       0       0       0       0

 Cartesian Hessian Update
 Hessian Updated using BFGS Update


** CONSTRAINED OPTIMIZATION IN CARTESIAN COORDINATES **
   Searching for a Minimum

   Optimization Cycle:   4

                       Coordinates (Angstroms)
     ATOM                X               Y               Z
      1  H         0.2577083940    0.5462366995    0.9286441711
      2  C        -0.0232136067   -0.0489509867   -0.0823620845
      3  H         0.8990352918    0.6745193095   -0.5224092316
      4  H        -0.2834578995   -0.6003893835   -1.0205999752
      5  H        -0.8501781796   -0.5715156388    0.6965291202
   Point Group: c1    Number of degrees of freedom:     9


   Energy is    -40.267050931

              Constraints and their Current Values
                                        Value     Constraint
   Distance(Angs):        1   2             1.206358     1.300000

   Using Lagrange Multiplier Algorithm


 Translations and Rotations Projected Out of Hessian

 10 Hessian modes will be used to form the next step
  Hessian Eigenvalues:
    -1.071252    0.064806    0.695020    1.000000    1.000000    1.000000
     1.000549    1.222825    1.265239    2.063801

 Minimum Search - Taking P-RFO Step
 Searching for Lamda that Maximizes Along the Constraint modes Only
 Value Taken    Lamda =   0.16417494


 ********************************************
 ** ERROR IN DETERMINING Lamda IN CONFormD **
 ********************************************


**WARNING** Problems with Lagrangian - Switching to Penalty functions

   Using Penalty Function Algorithm


 Translations and Rotations Projected Out of Hessian

  9 Hessian modes will be used to form the next step
  Hessian Eigenvalues:
    -0.357382   -0.140342    0.064050    0.742413    1.000000    1.000000
     1.000000    1.000637   20.945837
**WARNING** Hessian does not have the Desired Local Structure

 Minimum Search - Taking Simple RFO Step
 Searching for Lamda that Minimizes Along All modes
 Value Taken    Lamda =  -0.35738281
 Calculated Step too Large.  Step scaled by  0.000839
 Step Taken.  Stepsize is  0.300000

                             Maximum     Tolerance    Cnvgd?
         Gradient           1.476633      0.000300      NO
         Displacement       0.157471      0.001200      NO
         Energy change      0.002649      0.000001      NO

 ----------------------------------------------------------------
             Standard Nuclear Orientation (Angstroms)
    I     Atom           X                Y                Z
 ----------------------------------------------------------------
    1      H       0.3230882025     0.5927705664     0.8829625229
    2      C      -0.1065436418    -0.1083660042    -0.0244585236
    3      H       0.9047324409     0.6887161935    -0.4954271236
    4      H      -0.2618490233    -0.5849417127    -1.0354937606
    5      H      -0.8595339784    -0.5882790429     0.6722188850
 ----------------------------------------------------------------
 Nuclear Repulsion Energy =    12.2192795099 hartrees
 There are        6 alpha and        4 beta electrons

                       Distance Matrix (Angstroms)
             H (  1)   C (  2)   H (  3)   H (  4)
   C (  2)  1.224577
   H (  3)  1.499158  1.371069
   H (  4)  2.325862  1.128466  1.809638
   H (  5)  1.684603  1.132550  2.471184  1.809287
 
 Applying Cartesian multipole field
    Component          Value
    ---------          -----
     (2,0,0)        1.00000E-10
     (0,2,0)        2.00000E-10
     (0,0,2)       -3.00000E-10
 Nucleus-field energy     =    -0.0000000010 hartrees
 Requested basis set is 6-31G(d,p)
 There are 16 shells and 35 basis functions
 A cutoff of  1.0D-14 yielded    136 shell pairs
 There are       669 function pairs
 Smallest overlap matrix eigenvalue = 3.13E-02
 Guess from superposition of atomic densities
 Warning:  Energy on first SCF cycle will be non-variational
 SAD guess density has 10.000000 electrons

 -----------------------------------------------------------------------
  General SCF calculation program by
  Eric Jon Sundstrom, Paul Horn, Yuezhi Mao, Dmitri Zuev, Alec White,
  David Stuck, Shaama M.S., Shane Yost, Joonho Lee, David Small,
  Daniel Levine, Susi Lehtola, Hugh Burton, Evgeny Epifanovsky
 -----------------------------------------------------------------------
 Exchange:     0.2000 Hartree-Fock + 0.0800 Slater + 0.7200 B88
 Correlation:  0.1900 VWN1RPA + 0.8100 LYP
 Using SG-1 standard quadrature grid
 using 12 threads for integral computing
 -------------------------------------------------------
 OpenMP Integral computing Module                
 Release: version 1.0, May 2013, Q-Chem Inc. Pittsburgh 
 -------------------------------------------------------
 -------------------------------------------------------
 OpenMP BLAS3 based DFT computing Module                
 Release: version 1.0, May 2013, Q-Chem Inc. Pittsburgh 
 -------------------------------------------------------
 A unrestricted SCF calculation will be
 performed using DIIS
 SCF converges when DIIS error is below 1.0e-06
 Alpha HF Exchange    Energy =  -0.62605011222023
 Beta HF Exchange     Energy =  -0.62605011222023
 DFT Correlation      Energy =  -0.37376508208457
 DFT Exchange         Energy =  -4.96888415888382
 One-Electron (alpha) Energy = -38.15397720741116
 One-Electron (beta)  Energy = -38.15397720741116
 Total Coulomb        Energy =  30.40319005298528
 ---------------------------------------
  Cycle       Energy         DIIS error
 ---------------------------------------
    1     -40.2802343183      3.82e-02  
 Alpha HF Exchange    Energy =  -0.73046077341529
 Beta HF Exchange     Energy =  -0.56892957223816
 DFT Correlation      Energy =  -0.37074130538197
 DFT Exchange         Energy =  -5.16389954690344
 One-Electron (alpha) Energy = -42.89858357948614
 One-Electron (beta)  Energy = -34.64817810211204
 Total Coulomb        Energy =  31.90803057660927
    2     -40.2534827940      4.38e-03  
 Alpha HF Exchange    Energy =  -0.71635301125231
 Beta HF Exchange     Energy =  -0.55868931201087
 DFT Correlation      Energy =  -0.36381508908937
 DFT Exchange         Energy =  -5.06077506302820
 One-Electron (alpha) Energy = -42.25343490120271
 One-Electron (beta)  Energy = -34.20395446682221
 Total Coulomb        Energy =  30.68188835692559
    3     -40.2558539775      4.11e-03  
 Alpha HF Exchange    Energy =  -0.72428332316786
 Beta HF Exchange     Energy =  -0.56458262208568
 DFT Correlation      Energy =  -0.36697772590810
 DFT Exchange         Energy =  -5.11752394177777
 One-Electron (alpha) Energy = -42.59111188515425
 One-Electron (beta)  Energy = -34.45330791482370
 Total Coulomb        Energy =  31.33094546150745
    4     -40.2675624425      2.99e-04  
 Alpha HF Exchange    Energy =  -0.72413188619696
 Beta HF Exchange     Energy =  -0.56457866812874
 DFT Correlation      Energy =  -0.36667774132653
 DFT Exchange         Energy =  -5.11628376152955
 One-Electron (alpha) Energy = -42.57155630487612
 One-Electron (beta)  Energy = -34.44835450667075
 Total Coulomb        Energy =  31.30463221402161
    5     -40.2676711458      6.46e-05  
 Alpha HF Exchange    Energy =  -0.72413580217595
 Beta HF Exchange     Energy =  -0.56461581470730
 DFT Correlation      Energy =  -0.36663410659164
 DFT Exchange         Energy =  -5.11634617934513
 One-Electron (alpha) Energy = -42.56922876636961
 One-Electron (beta)  Energy = -34.44939308786845
 Total Coulomb        Energy =  31.30339643665381
    6     -40.2676778115      2.00e-05  
 Alpha HF Exchange    Energy =  -0.72412630878835
 Beta HF Exchange     Energy =  -0.56463864095078
 DFT Correlation      Energy =  -0.36661410957956
 DFT Exchange         Energy =  -5.11634902104539
 One-Electron (alpha) Energy = -42.56827980265700
 One-Electron (beta)  Energy = -34.44970657212026
 Total Coulomb        Energy =  31.30275632594598
    7     -40.2676786203      4.94e-06  
 Alpha HF Exchange    Energy =  -0.72413195847049
 Beta HF Exchange     Energy =  -0.56464100864887
 DFT Correlation      Energy =  -0.36661217694865
 DFT Exchange         Energy =  -5.11637589879068
 One-Electron (alpha) Energy = -42.56835085523092
 One-Electron (beta)  Energy = -34.44976305497962
 Total Coulomb        Energy =  31.30291678179405
    8     -40.2676786623      1.14e-06  
 Alpha HF Exchange    Energy =  -0.72413290818474
 Beta HF Exchange     Energy =  -0.56464115251417
 DFT Correlation      Energy =  -0.36661176740016
 DFT Exchange         Energy =  -5.11637984231790
 One-Electron (alpha) Energy = -42.56841286605820
 One-Electron (beta)  Energy = -34.44973160132082
 Total Coulomb        Energy =  31.30295196438180
    9     -40.2676786645      3.09e-07  Convergence criterion met
 ---------------------------------------
 SCF time:   CPU 14.93s  wall 1.00s 
<S^2> =          2.003934974
 Alpha HF Exchange    Energy =  -0.72413290818474
 Beta HF Exchange     Energy =  -0.56464115251417
 DFT Correlation      Energy =  -0.36661176740016
 DFT Exchange         Energy =  -5.11637984231790
 One-Electron (alpha) Energy = -42.56841286605820
 One-Electron (beta)  Energy = -34.44973160132082
 Total Coulomb        Energy =  31.30295196438180
 Nuclear repulsion Energy =  12.21927950893848
 SCF   energy in the final basis set =      -40.2676786645
 Total energy in the final basis set =      -40.2676786645
 
 --------------------------------------------------------------
 
                    Orbital Energies (a.u.)
 --------------------------------------------------------------
 
 Alpha MOs
 -- Occupied --
-10.245  -0.713  -0.470  -0.449  -0.251  -0.150
 -- Virtual --
  0.027   0.154   0.171   0.510   0.647   0.686   0.739   0.769
  0.784   0.857   0.889   1.378   1.382   1.414   1.851   1.970
  2.010   2.060   2.136   2.195   2.421   2.448   2.544   2.689
  2.782   2.856   3.214   3.791   4.520
 
 Beta MOs
 -- Occupied --
-10.233  -0.659  -0.434  -0.405
 -- Virtual --
 -0.075  -0.023   0.070   0.176   0.192   0.587   0.672   0.728
  0.775   0.794   0.845   0.907   0.923   1.416   1.435   1.473
  1.935   2.011   2.075   2.107   2.167   2.254   2.486   2.504
  2.596   2.739   2.817   2.887   3.252   3.827   4.565
 --------------------------------------------------------------
 
          Ground-State Mulliken Net Atomic Charges

     Atom                 Charge (a.u.)    Spin (a.u.)
  --------------------------------------------------------
      1 H                     0.133430       0.233423
      2 C                    -0.367826       0.976618
      3 H                    -0.021854       0.581464
      4 H                     0.154482       0.068376
      5 H                     0.101768       0.140118
  --------------------------------------------------------
  Sum of atomic charges =     0.000000
  Sum of spin   charges =     2.000000

 -----------------------------------------------------------------
                    Cartesian Multipole Moments
 -----------------------------------------------------------------
    Charge (ESU x 10^10)
                 0.0000
    Dipole Moment (Debye)
         X      -0.3411      Y      -0.2348      Z       0.2610
       Tot       0.4895
    Quadrupole Moments (Debye-Ang)
        XX      -9.8718     XY       0.1722     YY      -9.4216
        XZ       0.5016     YZ       0.9076     ZZ      -8.5480
    Octopole Moments (Debye-Ang^2)
       XXX      -0.0971    XXY      -0.1948    XYY      -0.0930
       YYY       0.6130    XXZ       0.9041    XYZ       0.4318
       YYZ       0.4224    XZZ      -0.3672    YZZ      -0.4128
       ZZZ       0.2768
    Hexadecapole Moments (Debye-Ang^3)
      XXXX     -22.3673   XXXY      -5.0374   XXYY      -6.9193
      XYYY      -4.7387   YYYY     -19.2459   XXXZ       2.5266
      XXYZ       0.3471   XYYZ       1.1605   YYYZ       0.2870
      XXZZ      -7.5435   XYZZ      -1.4939   YYZZ      -6.8682
      XZZZ       2.1835   YZZZ       0.4937   ZZZZ     -21.8174
 -----------------------------------------------------------------
 Calculating analytic gradient of the SCF energy
 Gradient of SCF Energy
            1           2           3           4           5
    1   0.0130626  -0.0038495  -0.0061643  -0.0064649   0.0034161
    2   0.0174451  -0.0148071   0.0011447  -0.0097488   0.0059661
    3   0.0157990  -0.0341494   0.0212150  -0.0112501   0.0083854
 Max gradient component =       3.415E-02
 RMS gradient           =       1.413E-02
 Gradient time:  CPU 4.62 s  wall 0.54 s
 Geometry Optimization Parameters
   NAtoms,    NIC,     NZ,  NCons,   NDum,   NFix, NCnnct, MaxDiis
        5      20       0       1       0       0       0       0

 Cartesian Hessian Update
 Hessian Updated using BFGS Update


** CONSTRAINED OPTIMIZATION IN CARTESIAN COORDINATES **
   Searching for a Minimum

   Optimization Cycle:   5

                       Coordinates (Angstroms)
     ATOM                X               Y               Z
      1  H         0.3230882025    0.5927705664    0.8829625229
      2  C        -0.1065436418   -0.1083660042   -0.0244585236
      3  H         0.9047324409    0.6887161935   -0.4954271236
      4  H        -0.2618490233   -0.5849417127   -1.0354937606
      5  H        -0.8595339784   -0.5882790429    0.6722188850
   Point Group: c1    Number of degrees of freedom:     9


   Energy is    -40.267678664

              Constraints and their Current Values
                                        Value     Constraint
   Distance(Angs):        1   2             1.224577     1.300000

   Using Penalty Function Algorithm


 Translations and Rotations Projected Out of Hessian

  9 Hessian modes will be used to form the next step
  Hessian Eigenvalues:
    -1.052404    0.099177    0.626590    0.804579    1.000000    1.000000
     1.000546    2.945186   21.290398
**WARNING** Hessian does not have the Desired Local Structure

 Minimum Search - Taking Simple RFO Step
 Searching for Lamda that Minimizes Along All modes
 Value Taken    Lamda =  -1.05280190
 Calculated Step too Large.  Step scaled by  0.006391
 Step Taken.  Stepsize is  0.300000

                             Maximum     Tolerance    Cnvgd?
         Gradient           1.040350      0.000300      NO
         Displacement       0.146604      0.001200      NO
         Energy change     -0.000628      0.000001      NO

 ----------------------------------------------------------------
             Standard Nuclear Orientation (Angstroms)
    I     Atom           X                Y                Z
 ----------------------------------------------------------------
    1      H       0.3838702300     0.6310800989     0.8253532951
    2      C      -0.1841229015    -0.1574595981     0.0485129595
    3      H       0.9098890472     0.7015890491    -0.4709463958
    4      H      -0.2393824513    -0.5679337835    -1.0481054108
    5      H      -0.8703599244    -0.6073757665     0.6449875520
 ----------------------------------------------------------------
 Nuclear Repulsion Energy =    12.2336867450 hartrees
 There are        6 alpha and        4 beta electrons

                       Distance Matrix (Angstroms)
             H (  1)   C (  2)   H (  3)   H (  4)
   C (  2)  1.244143
   H (  3)  1.400736  1.484811
   H (  4)  2.309962  1.172226  1.807104
   H (  5)  1.771835  1.014459  2.475476  1.807278
 
 Applying Cartesian multipole field
    Component          Value
    ---------          -----
     (2,0,0)        1.00000E-10
     (0,2,0)        2.00000E-10
     (0,0,2)       -3.00000E-10
 Nucleus-field energy     =    -0.0000000007 hartrees
 Requested basis set is 6-31G(d,p)
 There are 16 shells and 35 basis functions
 A cutoff of  1.0D-14 yielded    136 shell pairs
 There are       669 function pairs
 Smallest overlap matrix eigenvalue = 2.46E-02
 Guess from superposition of atomic densities
 Warning:  Energy on first SCF cycle will be non-variational
 SAD guess density has 10.000000 electrons

 -----------------------------------------------------------------------
  General SCF calculation program by
  Eric Jon Sundstrom, Paul Horn, Yuezhi Mao, Dmitri Zuev, Alec White,
  David Stuck, Shaama M.S., Shane Yost, Joonho Lee, David Small,
  Daniel Levine, Susi Lehtola, Hugh Burton, Evgeny Epifanovsky
 -----------------------------------------------------------------------
 Exchange:     0.2000 Hartree-Fock + 0.0800 Slater + 0.7200 B88
 Correlation:  0.1900 VWN1RPA + 0.8100 LYP
 Using SG-1 standard quadrature grid
 using 12 threads for integral computing
 -------------------------------------------------------
 OpenMP Integral computing Module                
 Release: version 1.0, May 2013, Q-Chem Inc. Pittsburgh 
 -------------------------------------------------------
 -------------------------------------------------------
 OpenMP BLAS3 based DFT computing Module                
 Release: version 1.0, May 2013, Q-Chem Inc. Pittsburgh 
 -------------------------------------------------------
 A unrestricted SCF calculation will be
 performed using DIIS
 SCF converges when DIIS error is below 1.0e-06
 Alpha HF Exchange    Energy =  -0.62627972388730
 Beta HF Exchange     Energy =  -0.62627972388730
 DFT Correlation      Energy =  -0.37359610316559
 DFT Exchange         Energy =  -4.97014317736964
 One-Electron (alpha) Energy = -38.13737827442112
 One-Electron (beta)  Energy = -38.13737827442112
 Total Coulomb        Energy =  30.36576768713175
 ---------------------------------------
  Cycle       Energy         DIIS error
 ---------------------------------------
    1     -40.2716008457      3.88e-02  
 Alpha HF Exchange    Energy =  -0.73498870072438
 Beta HF Exchange     Energy =  -0.57187307188438
 DFT Correlation      Energy =  -0.36896793934744
 DFT Exchange         Energy =  -5.18439579414001
 One-Electron (alpha) Energy = -42.89792253243658
 One-Electron (beta)  Energy = -34.67969151024619
 Total Coulomb        Energy =  31.95863121792605
    2     -40.2455215865      4.84e-03  
 Alpha HF Exchange    Energy =  -0.71932049141048
 Beta HF Exchange     Energy =  -0.56161784799565
 DFT Correlation      Energy =  -0.36125170529200
 DFT Exchange         Energy =  -5.07569489166100
 One-Electron (alpha) Energy = -42.23304542599892
 One-Electron (beta)  Energy = -34.18732497330679
 Total Coulomb        Energy =  30.65501165088147
    3     -40.2495569404      4.42e-03  
 Alpha HF Exchange    Energy =  -0.72855509580273
 Beta HF Exchange     Energy =  -0.56757677593569
 DFT Correlation      Energy =  -0.36445245219332
 DFT Exchange         Energy =  -5.13728951947825
 One-Electron (alpha) Energy = -42.60523026120964
 One-Electron (beta)  Energy = -34.44942010113740
 Total Coulomb        Energy =  31.35566267854573
    4     -40.2631747829      3.72e-04  
 Alpha HF Exchange    Energy =  -0.72846143455350
 Beta HF Exchange     Energy =  -0.56736962979150
 DFT Correlation      Energy =  -0.36401687826098
 DFT Exchange         Energy =  -5.13543606433290
 One-Electron (alpha) Energy = -42.59025463284413
 One-Electron (beta)  Energy = -34.43046890041878
 Total Coulomb        Energy =  31.31899954823206
    5     -40.2633212476      7.46e-05  
 Alpha HF Exchange    Energy =  -0.72855607322337
 Beta HF Exchange     Energy =  -0.56737234729900
 DFT Correlation      Energy =  -0.36394670853361
 DFT Exchange         Energy =  -5.13572008013464
 One-Electron (alpha) Energy = -42.59245101540882
 One-Electron (beta)  Energy = -34.42809720024020
 Total Coulomb        Energy =  31.31912651293415
    6     -40.2633301675      2.24e-05  
 Alpha HF Exchange    Energy =  -0.72857910502279
 Beta HF Exchange     Energy =  -0.56736706286132
 DFT Correlation      Energy =  -0.36391808638917
 DFT Exchange         Energy =  -5.13574251012127
 One-Electron (alpha) Energy = -42.59344778196166
 One-Electron (beta)  Energy = -34.42655830050887
 Total Coulomb        Energy =  31.31859483526689
    7     -40.2633312672      7.41e-06  
 Alpha HF Exchange    Energy =  -0.72859556193930
 Beta HF Exchange     Energy =  -0.56735768037741
 DFT Correlation      Energy =  -0.36391136355357
 DFT Exchange         Energy =  -5.13576124160156
 One-Electron (alpha) Energy = -42.59406862548909
 One-Electron (beta)  Energy = -34.42588655103650
 Total Coulomb        Energy =  31.31856287946319
    8     -40.2633314002      2.22e-06  
 Alpha HF Exchange    Energy =  -0.72860106999465
 Beta HF Exchange     Energy =  -0.56735396041778
 DFT Correlation      Energy =  -0.36390936795762
 DFT Exchange         Energy =  -5.13576617147598
 One-Electron (alpha) Energy = -42.59436264974022
 One-Electron (beta)  Energy = -34.42559754212305
 Total Coulomb        Energy =  31.31857260312944
    9     -40.2633314142      5.08e-07  Convergence criterion met
 ---------------------------------------
 SCF time:   CPU 15.19s  wall 1.00s 
<S^2> =          2.002861881
 Alpha HF Exchange    Energy =  -0.72860106999465
 Beta HF Exchange     Energy =  -0.56735396041778
 DFT Correlation      Energy =  -0.36390936795762
 DFT Exchange         Energy =  -5.13576617147598
 One-Electron (alpha) Energy = -42.59436264974022
 One-Electron (beta)  Energy = -34.42559754212305
 Total Coulomb        Energy =  31.31857260312944
 Nuclear repulsion Energy =  12.23368674435718
 SCF   energy in the final basis set =      -40.2633314142
 Total energy in the final basis set =      -40.2633314142
 
 --------------------------------------------------------------
 
                    Orbital Energies (a.u.)
 --------------------------------------------------------------
 
 Alpha MOs
 -- Occupied --
-10.237  -0.715  -0.471  -0.448  -0.251  -0.155
 -- Virtual --
  0.025   0.146   0.185   0.510   0.606   0.665   0.703   0.765
  0.814   0.832   0.945   1.396   1.414   1.493   1.825   1.936
  1.984   2.037   2.113   2.168   2.445   2.540   2.568   2.680
  2.758   2.989   3.246   3.730   4.355
 
 Beta MOs
 -- Occupied --
-10.222  -0.662  -0.428  -0.424
 -- Virtual --
 -0.073  -0.004   0.060   0.158   0.205   0.588   0.626   0.701
  0.744   0.796   0.834   0.901   0.985   1.452   1.471   1.532
  1.903   1.979   2.015   2.123   2.148   2.218   2.484   2.601
  2.614   2.740   2.789   3.007   3.270   3.758   4.398
 --------------------------------------------------------------
 
          Ground-State Mulliken Net Atomic Charges

     Atom                 Charge (a.u.)    Spin (a.u.)
  --------------------------------------------------------
      1 H                     0.165607       0.067231
      2 C                    -0.338365       1.076000
      3 H                    -0.109585       0.801618
      4 H                     0.162967       0.008227
      5 H                     0.119375       0.046924
  --------------------------------------------------------
  Sum of atomic charges =     0.000000
  Sum of spin   charges =     2.000000

 -----------------------------------------------------------------
                    Cartesian Multipole Moments
 -----------------------------------------------------------------
    Charge (ESU x 10^10)
                 0.0000
    Dipole Moment (Debye)
         X      -0.6704      Y      -0.4608      Z       0.5169
       Tot       0.9638
    Quadrupole Moments (Debye-Ang)
        XX     -10.1789     XY      -0.0088     YY      -9.4451
        XZ       0.8612     YZ       1.3244     ZZ      -8.2974
    Octopole Moments (Debye-Ang^2)
       XXX      -0.5020    XXY      -0.6805    XYY      -0.3467
       YYY       0.5965    XXZ       1.2657    XYZ       0.8818
       YYZ       0.6913    XZZ      -0.3057    YZZ      -0.3994
       ZZZ      -0.1332
    Hexadecapole Moments (Debye-Ang^3)
      XXXX     -24.5073   XXXY      -6.1057   XXYY      -7.6425
      XYYY      -5.6037   YYYY     -20.2698   XXXZ       3.0899
      XXYZ       0.7519   XYYZ       1.5089   YYYZ       1.0721
      XXZZ      -7.6343   XYZZ      -1.6500   YYZZ      -6.6115
      XZZZ       2.7748   YZZZ       1.3992   ZZZZ     -20.1119
 -----------------------------------------------------------------
 Calculating analytic gradient of the SCF energy
 Gradient of SCF Energy
            1           2           3           4           5
    1   0.0322080  -0.0417891  -0.0333348  -0.0094012   0.0523171
    2   0.0409258  -0.0355809  -0.0203314  -0.0216560   0.0366426
    3   0.0325093   0.0114195   0.0336817  -0.0392066  -0.0384039
 Max gradient component =       5.232E-02
 RMS gradient           =       3.388E-02
 Gradient time:  CPU 4.61 s  wall 0.56 s
 Geometry Optimization Parameters
   NAtoms,    NIC,     NZ,  NCons,   NDum,   NFix, NCnnct, MaxDiis
        5      20       0       1       0       0       0       0

 Cartesian Hessian Update
 Hessian Updated using BFGS Update


** CONSTRAINED OPTIMIZATION IN CARTESIAN COORDINATES **
   Searching for a Minimum

   Optimization Cycle:   6

                       Coordinates (Angstroms)
     ATOM                X               Y               Z
      1  H         0.3838702300    0.6310800989    0.8253532951
      2  C        -0.1841229015   -0.1574595981    0.0485129595
      3  H         0.9098890472    0.7015890491   -0.4709463958
      4  H        -0.2393824513   -0.5679337835   -1.0481054108
      5  H        -0.8703599244   -0.6073757665    0.6449875520
   Point Group: c1    Number of degrees of freedom:     9


   Energy is    -40.263331414

              Constraints and their Current Values
                                        Value     Constraint
   Distance(Angs):        1   2             1.244143     1.300000

   Using Penalty Function Algorithm


 Translations and Rotations Projected Out of Hessian

  9 Hessian modes will be used to form the next step
  Hessian Eigenvalues:
    -0.642158    0.342320    0.590608    0.936256    0.999996    1.000001
     1.231189    3.141399   20.384338
**WARNING** Hessian does not have the Desired Local Structure

 Minimum Search - Taking Simple RFO Step
 Searching for Lamda that Minimizes Along All modes
 Value Taken    Lamda =  -0.64357844
 Calculated Step too Large.  Step scaled by  0.015425
 Step Taken.  Stepsize is  0.300000

                             Maximum     Tolerance    Cnvgd?
         Gradient           0.670498      0.000300      NO
         Displacement       0.149191      0.001200      NO
         Energy change      0.004347      0.000001      NO

 ----------------------------------------------------------------
             Standard Nuclear Orientation (Angstroms)
    I     Atom           X                Y                Z
 ----------------------------------------------------------------
    1      H       0.3264370485     0.6019526215     0.9014055993
    2      C      -0.1198749158    -0.1228433534    -0.0304354041
    3      H       0.9047089352     0.6873215902    -0.4996194245
    4      H      -0.2622772587    -0.5865217895    -1.0390753624
    5      H      -0.8490998092    -0.5800090689     0.6675265917
 ----------------------------------------------------------------
 Nuclear Repulsion Energy =    12.1945082483 hartrees
 There are        6 alpha and        4 beta electrons

[...]
 One-Electron (alpha) Energy = -42.95046477613474
 One-Electron (beta)  Energy = -34.72951187134697
 Total Coulomb        Energy =  31.64282236070771
    6     -40.2751487006      1.51e-05  
 Alpha HF Exchange    Energy =  -0.72824014322615
 Beta HF Exchange     Energy =  -0.56701885572677
 DFT Correlation      Energy =  -0.36906037307672
 DFT Exchange         Energy =  -5.14091184867586
 One-Electron (alpha) Energy = -42.94984324608031
 One-Electron (beta)  Energy = -34.72985264381795
 Total Coulomb        Energy =  31.64254833053050
    7     -40.2751490977      4.82e-06  
 Alpha HF Exchange    Energy =  -0.72824323516629
 Beta HF Exchange     Energy =  -0.56702197309749
 DFT Correlation      Energy =  -0.36905894622634
 DFT Exchange         Energy =  -5.14093240057805
 One-Electron (alpha) Energy = -42.94986216348587
 One-Electron (beta)  Energy = -34.72995022643882
 Total Coulomb        Energy =  31.64269012999131
    8     -40.2751491327      8.53e-07  Convergence criterion met
 ---------------------------------------
 SCF time:   CPU 13.65s  wall 2.00s 
<S^2> =          2.003469584
 Alpha HF Exchange    Energy =  -0.72824323516629
 Beta HF Exchange     Energy =  -0.56702197309749
 DFT Correlation      Energy =  -0.36905894622634
 DFT Exchange         Energy =  -5.14093240057805
 One-Electron (alpha) Energy = -42.94986216348587
 One-Electron (beta)  Energy = -34.72995022643882
 Total Coulomb        Energy =  31.64269012999131
 Nuclear repulsion Energy =  12.56722968232799
 SCF   energy in the final basis set =      -40.2751491327
 Total energy in the final basis set =      -40.2751491327
 
 --------------------------------------------------------------
 
                    Orbital Energies (a.u.)
 --------------------------------------------------------------
 
 Alpha MOs
 -- Occupied --
-10.235  -0.724  -0.482  -0.453  -0.252  -0.149
 -- Virtual --
  0.051   0.159   0.179   0.512   0.675   0.701   0.733   0.765
  0.843   0.882   0.899   1.293   1.365   1.403   1.876   1.998
  2.076   2.168   2.229   2.252   2.287   2.467   2.624   2.718
  2.830   2.957   3.253   4.004   4.691
 
 Beta MOs
 -- Occupied --
-10.224  -0.669  -0.446  -0.404
 -- Virtual --
 -0.076  -0.027   0.089   0.193   0.195   0.588   0.716   0.747
  0.753   0.797   0.898   0.934   0.938   1.315   1.423   1.464
  1.956   2.057   2.126   2.204   2.284   2.321   2.323   2.535
  2.677   2.775   2.859   2.989   3.297   4.044   4.736
 --------------------------------------------------------------
 
          Ground-State Mulliken Net Atomic Charges

     Atom                 Charge (a.u.)    Spin (a.u.)
  --------------------------------------------------------
      1 H                    -0.004980       0.544492
      2 C                    -0.392236       0.961435
      3 H                     0.161703       0.126902
      4 H                     0.073791       0.240020
      5 H                     0.161723       0.127151
  --------------------------------------------------------
  Sum of atomic charges =    -0.000000
  Sum of spin   charges =     2.000000

 -----------------------------------------------------------------
                    Cartesian Multipole Moments
 -----------------------------------------------------------------
    Charge (ESU x 10^10)
                -0.0000
    Dipole Moment (Debye)
         X      -0.0672      Y      -0.1402      Z      -0.2373
       Tot       0.2837
    Quadrupole Moments (Debye-Ang)
        XX      -8.7465     XY       0.6906     YY      -9.3461
        XZ      -0.8175     YZ      -0.7031     ZZ      -9.5647
    Octopole Moments (Debye-Ang^2)
       XXX       0.1533    XXY       0.1178    XYY       0.0295
       YYY       0.1012    XXZ       0.1018    XYZ      -0.1424
       YYZ      -0.2155    XZZ      -0.3459    YZZ      -0.5493
       ZZZ      -0.4451
    Hexadecapole Moments (Debye-Ang^3)
      XXXX     -15.9087   XXXY      -2.5747   XXYY      -5.2770
      XYYY      -2.7968   YYYY     -17.7749   XXXZ      -0.5646
      XXYZ      -1.2781   XYYZ      -0.2775   YYYZ      -3.3636
      XXZZ      -7.0856   XYZZ      -1.0232   YYZZ      -7.8697
      XZZZ      -1.0169   YZZZ      -3.8876   ZZZZ     -27.8872
 -----------------------------------------------------------------
 Calculating analytic gradient of the SCF energy
 Gradient of SCF Energy
            1           2           3           4           5
    1  -0.0044927   0.0044733  -0.0001330  -0.0000669   0.0002193
    2  -0.0094214   0.0094124  -0.0000882  -0.0000628   0.0001600
    3  -0.0158595   0.0159207   0.0001048  -0.0000261  -0.0001399
 Max gradient component =       1.592E-02
 RMS gradient           =       6.941E-03
 Gradient time:  CPU 4.70 s  wall 0.61 s
 Geometry Optimization Parameters
   NAtoms,    NIC,     NZ,  NCons,   NDum,   NFix, NCnnct, MaxDiis
        5      20       0       1       0       0       0       0

 Cartesian Hessian Update
 Hessian Updated using BFGS Update
**WARNING** Hereditary positive definiteness endangered


** CONSTRAINED OPTIMIZATION IN CARTESIAN COORDINATES **
   Searching for a Minimum

   Optimization Cycle:  22

                       Coordinates (Angstroms)
     ATOM                X               Y               Z
      1  H         0.2862152156    0.6038816821    1.0231517686
      2  C        -0.0180113259   -0.0385140381   -0.0653232262
      3  H         0.7980883344    0.5845016174   -0.5076608497
      4  H        -0.2926525999   -0.6165616516   -1.0434318899
      5  H        -0.7737456241   -0.5334076097    0.5930661972
   Point Group: c1    Number of degrees of freedom:     9


   Energy is    -40.275149133

              Constraints and their Current Values
                                        Value     Constraint
   Distance(Angs):        1   2             1.300001     1.300000

   Using Lagrange Multiplier Algorithm


 Translations and Rotations Projected Out of Hessian

  6 Hessian modes will be used to form the next step
  Hessian Eigenvalues:
    -1.456984    0.775370    0.933844    1.011821    1.013303    1.451355

 Minimum Search - Taking P-RFO Step
 Searching for Lamda that Maximizes Along the Constraint modes Only
 Value Taken    Lamda =   0.00000083
 Searching for Lamda that Minimizes Along All other modes
 Value Taken    Lamda =  -0.00000100
 Step Taken.  Stepsize is  0.001224

                             Maximum     Tolerance    Cnvgd?
         Gradient           0.000941      0.000300      NO
         Displacement       0.001142      0.001200     YES
         Energy change      0.000037      0.000001      NO

 ----------------------------------------------------------------
             Standard Nuclear Orientation (Angstroms)
    I     Atom           X                Y                Z
 ----------------------------------------------------------------
    1      H       0.2862417213     0.6038971757     1.0231253935
    2      C      -0.0180288360    -0.0385258726    -0.0653193956
    3      H       0.7981729244     0.5845557995    -0.5077360353
    4      H      -0.2926148618    -0.6165195375    -1.0434084013
    5      H      -0.7738769480    -0.5335075651     0.5931404387
 ----------------------------------------------------------------
 Nuclear Repulsion Energy =    12.5665102436 hartrees
 There are        6 alpha and        4 beta electrons

                       Distance Matrix (Angstroms)
             H (  1)   C (  2)   H (  3)   H (  4)
   C (  2)  1.300000
   H (  3)  1.614306  1.118100
   H (  4)  2.468816  1.168817  1.708609
   H (  5)  1.613204  1.117981  2.221111  1.707863
 
 Applying Cartesian multipole field
    Component          Value
    ---------          -----
     (2,0,0)        1.00000E-10
     (0,2,0)        2.00000E-10
     (0,0,2)       -3.00000E-10
 Nucleus-field energy     =    -0.0000000015 hartrees
 Requested basis set is 6-31G(d,p)
 There are 16 shells and 35 basis functions
 A cutoff of  1.0D-14 yielded    136 shell pairs
 There are       669 function pairs
 Smallest overlap matrix eigenvalue = 2.95E-02
 Guess from superposition of atomic densities
 Warning:  Energy on first SCF cycle will be non-variational
 SAD guess density has 10.000000 electrons

 -----------------------------------------------------------------------
  General SCF calculation program by
  Eric Jon Sundstrom, Paul Horn, Yuezhi Mao, Dmitri Zuev, Alec White,
  David Stuck, Shaama M.S., Shane Yost, Joonho Lee, David Small,
  Daniel Levine, Susi Lehtola, Hugh Burton, Evgeny Epifanovsky
 -----------------------------------------------------------------------
 Exchange:     0.2000 Hartree-Fock + 0.0800 Slater + 0.7200 B88
 Correlation:  0.1900 VWN1RPA + 0.8100 LYP
 Using SG-1 standard quadrature grid
 using 12 threads for integral computing
 -------------------------------------------------------
 OpenMP Integral computing Module                
 Release: version 1.0, May 2013, Q-Chem Inc. Pittsburgh 
 -------------------------------------------------------
 -------------------------------------------------------
 OpenMP BLAS3 based DFT computing Module                
 Release: version 1.0, May 2013, Q-Chem Inc. Pittsburgh 
 -------------------------------------------------------
 A unrestricted SCF calculation will be
 performed using DIIS
 SCF converges when DIIS error is below 1.0e-06
 Alpha HF Exchange    Energy =  -0.63282913917299
 Beta HF Exchange     Energy =  -0.63282913917299
 DFT Correlation      Energy =  -0.37531653377297
 DFT Exchange         Energy =  -4.98352727213508
 One-Electron (alpha) Energy = -38.45932078584472
 One-Electron (beta)  Energy = -38.45932078584472
 Total Coulomb        Energy =  30.64502258249044
 ---------------------------------------
  Cycle       Energy         DIIS error
 ---------------------------------------
    1     -40.3316108314      4.10e-02  
 Alpha HF Exchange    Energy =  -0.73625701257109
 Beta HF Exchange     Energy =  -0.57215974790550
 DFT Correlation      Energy =  -0.37342013944545
 DFT Exchange         Energy =  -5.19838106069243
 One-Electron (alpha) Energy = -43.33066660158703
 One-Electron (beta)  Energy = -34.94813837044835
 Total Coulomb        Energy =  32.33373953863897
    2     -40.2587731519      4.81e-03  
 Alpha HF Exchange    Energy =  -0.71969374507529
 Beta HF Exchange     Energy =  -0.56051904463178
 DFT Correlation      Energy =  -0.36588103667807
 DFT Exchange         Energy =  -5.07988099144197
 One-Electron (alpha) Energy = -42.60490681788103
 One-Electron (beta)  Energy = -34.46260733175394
 Total Coulomb        Energy =  30.96544501018641
    3     -40.2615337152      4.47e-03  
 Alpha HF Exchange    Energy =  -0.72839756849991
 Beta HF Exchange     Energy =  -0.56692247163241
 DFT Correlation      Energy =  -0.36933356164657
 DFT Exchange         Energy =  -5.14177680067272
 One-Electron (alpha) Energy = -42.96953809894266
 One-Electron (beta)  Energy = -34.72891988408521
 Total Coulomb        Energy =  31.66331018101990
    4     -40.2750679624      2.49e-04  
 Alpha HF Exchange    Energy =  -0.72826681182104
 Beta HF Exchange     Energy =  -0.56696277032285
 DFT Correlation      Energy =  -0.36910719307616
 DFT Exchange         Energy =  -5.14092586033432
 One-Electron (alpha) Energy = -42.95281251165818
 One-Electron (beta)  Energy = -34.72795991039769
 Total Coulomb        Energy =  31.64437994155742
    5     -40.2751448740      4.83e-05  
 Alpha HF Exchange    Energy =  -0.72823736806532
 Beta HF Exchange     Energy =  -0.56699379037179
 DFT Correlation      Energy =  -0.36906861468911
 DFT Exchange         Energy =  -5.14083775406456
 One-Electron (alpha) Energy = -42.94975351819847
 One-Electron (beta)  Energy = -34.72894079757255
 Total Coulomb        Energy =  31.64217280435877
    6     -40.2751487965      1.51e-05  
 Alpha HF Exchange    Energy =  -0.72822954474902
 Beta HF Exchange     Energy =  -0.56701057688745
 DFT Correlation      Energy =  -0.36905802083491
 DFT Exchange         Energy =  -5.14084650410485
 One-Electron (alpha) Energy = -42.94913125280757
 One-Electron (beta)  Energy = -34.72928221686308
 Total Coulomb        Energy =  31.64189868042941
    7     -40.2751491937      4.82e-06  
 Alpha HF Exchange    Energy =  -0.72823263373481
 Beta HF Exchange     Energy =  -0.56701369824217
 DFT Correlation      Energy =  -0.36905659475065
 DFT Exchange         Energy =  -5.14086705920913
 One-Electron (alpha) Energy = -42.94915000378573
 One-Electron (beta)  Energy = -34.72937999939820
 Total Coulomb        Energy =  31.64204051836915
    8     -40.2751492287      8.53e-07  Convergence criterion met
 ---------------------------------------
 SCF time:   CPU 13.52s  wall 1.00s 
<S^2> =          2.003468623
 Alpha HF Exchange    Energy =  -0.72823263373481
 Beta HF Exchange     Energy =  -0.56701369824217
 DFT Correlation      Energy =  -0.36905659475065
 DFT Exchange         Energy =  -5.14086705920913
 One-Electron (alpha) Energy = -42.94915000378573
 One-Electron (beta)  Energy = -34.72937999939820
 Total Coulomb        Energy =  31.64204051836915
 Nuclear repulsion Energy =  12.56651024208262
 SCF   energy in the final basis set =      -40.2751492287
 Total energy in the final basis set =      -40.2751492287
 
 --------------------------------------------------------------
 
                    Orbital Energies (a.u.)
 --------------------------------------------------------------
 
 Alpha MOs
 -- Occupied --
-10.235  -0.724  -0.482  -0.453  -0.252  -0.149
 -- Virtual --
  0.051   0.159   0.179   0.512   0.675   0.701   0.733   0.765
  0.843   0.882   0.899   1.293   1.365   1.403   1.876   1.998
  2.076   2.168   2.229   2.252   2.287   2.467   2.624   2.718
  2.830   2.957   3.252   4.004   4.691
 
 Beta MOs
 -- Occupied --
-10.224  -0.669  -0.446  -0.404
 -- Virtual --
 -0.076  -0.027   0.089   0.193   0.195   0.588   0.716   0.747
  0.753   0.797   0.898   0.934   0.938   1.315   1.423   1.464
  1.956   2.057   2.126   2.204   2.284   2.321   2.323   2.535
  2.677   2.775   2.859   2.989   3.297   4.044   4.736
 --------------------------------------------------------------
 
          Ground-State Mulliken Net Atomic Charges

     Atom                 Charge (a.u.)    Spin (a.u.)
  --------------------------------------------------------
      1 H                    -0.004901       0.544349
      2 C                    -0.392259       0.961407
      3 H                     0.161643       0.127058
      4 H                     0.073858       0.239897
      5 H                     0.161659       0.127289
  --------------------------------------------------------
  Sum of atomic charges =     0.000000
  Sum of spin   charges =     2.000000

 -----------------------------------------------------------------
                    Cartesian Multipole Moments
 -----------------------------------------------------------------
    Charge (ESU x 10^10)
                 0.0000
    Dipole Moment (Debye)
         X      -0.0672      Y      -0.1402      Z      -0.2373
       Tot       0.2837
    Quadrupole Moments (Debye-Ang)
        XX      -8.7471     XY       0.6905     YY      -9.3461
        XZ      -0.8169     YZ      -0.7023     ZZ      -9.5640
    Octopole Moments (Debye-Ang^2)
       XXX       0.1535    XXY       0.1178    XYY       0.0296
       YYY       0.1014    XXZ       0.1019    XYZ      -0.1424
       YYZ      -0.2154    XZZ      -0.3458    YZZ      -0.5491
       ZZZ      -0.4451
    Hexadecapole Moments (Debye-Ang^3)
      XXXX     -15.9125   XXXY      -2.5758   XXYY      -5.2778
      XYYY      -2.7977   YYYY     -17.7757   XXXZ      -0.5627
      XXYZ      -1.2772   XYYZ      -0.2767   YYYZ      -3.3612
      XXZZ      -7.0859   XYZZ      -1.0233   YYZZ      -7.8691
      XZZZ      -1.0148   YZZZ      -3.8847   ZZZZ     -27.8838
 -----------------------------------------------------------------
 Calculating analytic gradient of the SCF energy
 Gradient of SCF Energy
            1           2           3           4           5
    1  -0.0044808   0.0044625  -0.0000946  -0.0000628   0.0001757
    2  -0.0094010   0.0093875  -0.0000582  -0.0000602   0.0001320
    3  -0.0158311   0.0158749   0.0000858  -0.0000294  -0.0001002
 Max gradient component =       1.587E-02
 RMS gradient           =       6.924E-03
 Gradient time:  CPU 4.70 s  wall 0.61 s
 Geometry Optimization Parameters
   NAtoms,    NIC,     NZ,  NCons,   NDum,   NFix, NCnnct, MaxDiis
        5      20       0       1       0       0       0       0

 Cartesian Hessian Update
 Hessian Updated using BFGS Update


** CONSTRAINED OPTIMIZATION IN CARTESIAN COORDINATES **
   Searching for a Minimum

   Optimization Cycle:  23

                       Coordinates (Angstroms)
     ATOM                X               Y               Z
      1  H         0.2862417213    0.6038971757    1.0231253935
      2  C        -0.0180288360   -0.0385258726   -0.0653193956
      3  H         0.7981729244    0.5845557995   -0.5077360353
      4  H        -0.2926148618   -0.6165195375   -1.0434084013
      5  H        -0.7738769480   -0.5335075651    0.5931404387
   Point Group: c1    Number of degrees of freedom:     9


   Energy is    -40.275149229

              Constraints and their Current Values
                                        Value     Constraint
   Distance(Angs):        1   2             1.300000     1.300000

   Using Lagrange Multiplier Algorithm


 Translations and Rotations Projected Out of Hessian

  7 Hessian modes will be used to form the next step
  Hessian Eigenvalues:
    -1.430516    0.170235    0.894330    1.008244    1.011158    1.028717
     1.419355

 Minimum Search - Taking P-RFO Step
 Searching for Lamda that Maximizes Along the Constraint modes Only
 Value Taken    Lamda =   0.00000000
 Searching for Lamda that Minimizes Along All other modes
 Value Taken    Lamda =  -0.00000053
 Step Taken.  Stepsize is  0.001760

                             Maximum     Tolerance    Cnvgd?
         Gradient           0.000176      0.000300     YES
         Displacement       0.000992      0.001200     YES
         Energy change     -0.000000      0.000001     YES


                       Distance Matrix (Angstroms)
             H (  1)   C (  2)   H (  3)   H (  4)
   C (  2)  1.300000
   H (  3)  1.614306  1.118100
   H (  4)  2.468816  1.168817  1.708609
   H (  5)  1.613204  1.117981  2.221111  1.707863
 
 Final energy is   -40.2751492286689     


 ******************************
 **  OPTIMIZATION CONVERGED  **
 ******************************

                       Coordinates (Angstroms)
     ATOM                X               Y               Z
      1  H         0.2862417213    0.6038971757    1.0231253935
      2  C        -0.0180288360   -0.0385258726   -0.0653193956
      3  H         0.7981729244    0.5845557995   -0.5077360353
      4  H        -0.2926148618   -0.6165195375   -1.0434084013
      5  H        -0.7738769480   -0.5335075651    0.5931404387

Z-matrix Print:
$molecule
0 3
C 
H  1 1.117981
H  1 1.118100 2 166.732600
H  1 1.168817 2 96.608853 3 -179.887492 0
H  1 1.300000 2 83.333311 3 0.098858 0
$end

PES scan, value:    1.3000 energy:  -40.2751492287
------- Summary of potential scan: ------ 
    1.3000       -40.2751492287
----------------------------------------- 
Archival summary:
1\1\hpc0243\JobtypUnspecified\ProcedureUnspecified\6-31G**\14(3)\knomura\MonMar1116:32:502019MonMar1116:32:502019\0\\#,JobtypUnspecified,ProcedureUnspecified,6-31G**,\\0,3\C\H,1,1.11798\H,1,1.1181,2,166.733\H,1,1.16882,2,96.6089,3,-179.887,0\H,1,1.3,2,83.3333,3,0.0988578,0\\\@

 Total job time:  52.13s(wall), 529.69s(cpu) 
 Mon Mar 11 16:32:50 2019

        *************************************************************
        *                                                           *
        *  Thank you very much for using Q-Chem.  Have a nice day.  *
        *                                                           *
        *************************************************************


