
Running Job 1 of 1 scan_ch4.xyz.data/inputs/bond_singlet_2.8.in
qchem scan_ch4.xyz.data/inputs/bond_singlet_2.8.in_31319.0 /staging/scratch/2851581/qchem31319/ 1
/usr/usc/qchem/5.1.1/exe/qcprog.exe_s scan_ch4.xyz.data/inputs/bond_singlet_2.8.in_31319.0 /staging/scratch/2851581/qchem31319/
Check license passed

                  Welcome to Q-Chem
     A Quantum Leap Into The Future Of Chemistry


 Q-Chem 5.1, Q-Chem, Inc., Pleasanton, CA (2018)

 Yihan Shao,  Zhengting Gan,  E. Epifanovsky,  A. T. B. Gilbert,  M. Wormit,  
 J. Kussmann,  A. W. Lange,  A. Behn,  Jia Deng,  Xintian Feng,  D. Ghosh,  
 M. Goldey,  P. R. Horn,  L. D. Jacobson,  I. Kaliman,  T. Kus,  A. Landau,  
 Jie Liu,  E. I. Proynov,  R. M. Richard,  R. P. Steele,  E. J. Sundstrom,  
 H. L. Woodcock III,  P. M. Zimmerman,  D. Zuev,  B. Albrecht,  E. Alguire,  
 S. A. Baeppler,  D. Barton,  Z. Benda,  Y. A. Bernard,  E. J. Berquist,  
 K. B. Bravaya,  H. Burton,  D. Casanova,  Chun-Min Chang,  Yunqing Chen,  
 A. Chien,  K. D. Closser,  M. P. Coons,  S. Coriani,  S. Dasgupta,  
 A. L. Dempwolff,  M. Diedenhofen,  Hainam Do,  R. G. Edgar,  Po-Tung Fang,  
 S. Faraji,  S. Fatehi,  Qingguo Feng,  K. D. Fenk,  J. Fosso-Tande,  
 Qinghui Ge,  A. Ghysels,  G. Gidofalvi,  J. Gomes,  J. Gonthier,  A. Gunina,  
 D. Hait,  M. W. D. Hanson-Heine,  P. H. P. Harbach,  A. W. Hauser,  
 J. E. Herr,  E. G. Hohenstein,  Z. C. Holden,  Kerwin Hui,  B. C. Huynh,  
 T.-C. Jagau,  Hyunjun Ji,  B. Kaduk,  K. Khistyaev,  Jaehoon Kim,  
 P. Klunzinger,  K. Koh,  D. Kosenkov,  L. Koulias,  T. Kowalczyk,  
 C. M. Krauter,  A. Kunitsa,  Ka Un Lao,  A. Laurent,  K. V. Lawler,  
 Joonho Lee,  D. Lefrancois,  S. Lehtola,  D. S. Levine,  Yi-Pei Li,  
 You-Sheng Lin,  Fenglai Liu,  E. Livshits,  A. Luenser,  P. Manohar,  
 E. Mansoor,  S. F. Manzer,  Shan-Ping Mao,  Yuezhi Mao,  N. Mardirossian,  
 A. V. Marenich,  T. Markovich,  L. A. Martinez-Martinez,  S. A. Maurer,  
 N. J. Mayhall,  S. C. McKenzie,  J.-M. Mewes,  A. F. Morrison,  
 J. W. Mullinax,  K. Nanda,  T. S. Nguyen-Beck,  R. Olivares-Amaya,  
 J. A. Parkhill,  T. M. Perrine,  F. Plasser,  P. Pokhilko,  S. Prager,  
 A. Prociuk,  E. Ramos,  D. R. Rehn,  F. Rob,  M. Schneider,  N. Sergueev,  
 S. M. Sharada,  S. Sharma,  D. W. Small,  T. Stauch,  T. Stein,  
 Yu-Chuan Su,  A. J. W. Thom,  A. Tkatchenko,  T. Tsuchimochi,  N. M. Tubman,  
 L. Vogt,  M. L. Vidal,  O. Vydrov,  M. A. Watson,  J. Wenzel,  
 M. de Wergifosse,  T. A. Wesolowski,  A. White,  J. Witte,  A. Yamada,  
 Jun Yang,  K. Yao,  S. Yeganeh,  S. R. Yost,  Zhi-Qiang You,  A. Zech,  
 Igor Ying Zhang,  Xing Zhang,  Yan Zhao,  Ying Zhu,  B. R. Brooks,  
 G. K. L. Chan,  C. J. Cramer,  M. S. Gordon,  W. J. Hehre,  A. Klamt,  
 M. W. Schmidt,  C. D. Sherrill,  D. G. Truhlar,  A. Aspuru-Guzik,  R. Baer,  
 A. T. Bell,  N. A. Besley,  Jeng-Da Chai,  A. E. DePrince, III,  
 R. A. DiStasio Jr.,  A. Dreuw,  B. D. Dunietz,  T. R. Furlani,  
 Chao-Ping Hsu,  Yousung Jung,  Jing Kong,  D. S. Lambrecht,  WanZhen Liang,  
 C. Ochsenfeld,  V. A. Rassolov,  L. V. Slipchenko,  J. E. Subotnik,  
 T. Van Voorhis,  J. M. Herbert,  A. I. Krylov,  P. M. W. Gill,  M. Head-Gordon

 Contributors to earlier versions of Q-Chem not listed above: 
 R. D. Adamson,  B. Austin,  J. Baker,  G. J. O. Beran,  K. Brandhorst,  
 S. T. Brown,  E. F. C. Byrd,  A. K. Chakraborty,  C.-L. Cheng,  
 Siu Hung Chien,  D. M. Chipman,  D. L. Crittenden,  H. Dachsel,  
 R. J. Doerksen,  A. D. Dutoi,  L. Fusti-Molnar,  W. A. Goddard III,  
 A. Golubeva-Zadorozhnaya,  S. R. Gwaltney,  G. Hawkins,  A. Heyden,  
 S. Hirata,  G. Kedziora,  F. J. Keil,  C. Kelley,  Jihan Kim,  R. A. King,  
 R. Z. Khaliullin,  P. P. Korambath,  W. Kurlancheek,  A. M. Lee,  M. S. Lee,  
 S. V. Levchenko,  Ching Yeh Lin,  D. Liotard,  R. C. Lochan,  I. Lotan,  
 P. E. Maslen,  N. Nair,  D. P. O'Neill,  D. Neuhauser,  E. Neuscamman,  
 C. M. Oana,  R. Olson,  B. Peters,  R. Peverati,  P. A. Pieniazek,  
 Y. M. Rhee,  J. Ritchie,  M. A. Rohrdanz,  E. Rosta,  N. J. Russ,  
 H. F. Schaefer III,  N. E. Schultz,  N. Shenvi,  A. C. Simmonett,  A. Sodt,  
 D. Stuck,  K. S. Thanthiriwatte,  V. Vanovschi,  Tao Wang,  A. Warshel,  
 C. F. Williams,  Q. Wu,  X. Xu,  W. Zhang

 Please cite Q-Chem as follows:
 Y. Shao et al., Mol. Phys. 113, 184-215 (2015)
 DOI: 10.1080/00268976.2014.952696

 Q-Chem 5.1.1 for Intel X86 EM64T Linux

 Parts of Q-Chem use Armadillo 8.300.2 (Tropical Shenanigans).
 http://arma.sourceforge.net/

 Q-Chem begins on Mon Mar 11 16:21:20 2019  

Host: 
0

     Scratch files written to /staging/scratch/2851581/qchem31319//
 Aug318 |scratch|qcdevops|jenkins|workspace|build_RNUM 6013   
Processing $rem in /usr/usc/qchem/5.1.1/config/preferences.
 MEM_TOTAL  2000 
Input Ideriv = 2
Curr. Ideriv = -1
Max.  Ideriv = 2

Checking the input file for inconsistencies... 	...done.

--------------------------------------------------------------
User input:
--------------------------------------------------------------

$comment
potential surface scanner
$end

$rem
JOBTYPE  PES_SCAN
UNRESTRICTED TRUE
SYM_IGNORE  TRUE
GEOM_OPT_MAX_CYCLES 400
SCF_MAX_CYCLES 400
METHOD   B3LYP
BASIS   6-31G**
PDB_PRINT 2
SCF_CONVERGENCE 6
THRESH 14
SCF_PRINT 1
$end
$molecule
0 1
H 1.073497 0.327208 1.900161
C -0.239901 -0.073155 -0.424640
H 0.123439 0.838580 -0.877294
H 0.259225 -1.008044 -0.636993
H -1.216360 -0.084692 0.038567
$end
$scan
stre 1 2 2.800000 2.801000 0.100000
$end
--------------------------------------------------------------
 ----------------------------------------------------------------
             Standard Nuclear Orientation (Angstroms)
    I     Atom           X                Y                Z
 ----------------------------------------------------------------
    1      H       1.0734970000     0.3272080000     1.9001610000
    2      C      -0.2399010000    -0.0731550000    -0.4246400000
    3      H       0.1234390000     0.8385800000    -0.8772940000
    4      H       0.2592250000    -1.0080440000    -0.6369930000
    5      H      -1.2163600000    -0.0846920000     0.0385670000
 ----------------------------------------------------------------
 Nuclear Repulsion Energy =    11.3717821250 hartrees
 There are        5 alpha and        5 beta electrons
 Requested basis set is 6-31G(d,p)
 There are 16 shells and 35 basis functions

 Total QAlloc Memory Limit   2000 MB
 Mega-Array Size       188 MB
 MEM_STATIC part       192 MB
A total of 1 constraints
  
            1
    1   1.0100000
    2   1.0100000
    3   2.0100000
    4   2.8000000
    5   2.8010000
    6   0.1000000
    7   0.0000000
    8   0.0000000
    9   0.0000000
   10   0.0000000

                       Distance Matrix (Angstroms)
             H (  1)   C (  2)   H (  3)   H (  4)
   C (  2)  2.700001
   H (  3)  2.979659  1.080820
   H (  4)  2.980451  1.080851  1.867138
   H (  5)  2.979705  1.080817  1.867162  1.867167
 
 A cutoff of  1.0D-14 yielded    136 shell pairs
 There are       669 function pairs
 
 -------------------------------------------------------
 OpenMP Integral Computing Module                       
 Release: version 1.0, May 2013, Q-Chem Inc. Pittsburgh 
 -------------------------------------------------------
 Integral Job Info:
 Integral job number is                      11
 Integral operator is                         1
 short-range coefficients                     0
 long-range coefficients              100000000
 Omega coefficients                           0
 if combine SR and LR in K                    0
 Integral screening is                        0
 Integral computing path is                   2
 max size of driver memory is            800000
 size of driver memory is                593474
 size of scratch memory is              2361544
 max col of scratch BK array               1296
 max len of scratch array in speh3          155
 max len of scratch index in speh4           18
 max int batch size is                      520
 min int batch size is                       52
 fixed nKL is                                52
 max L of basis functions is                  2
 order of int derivative is                   0
 number of shells is                         16
 number of basis is                          35
 number of cartesian basis is                35
 number of contracted shell pairs           136
 number of primitive shell pairs            472
 maxK2 (contraction) of shell pair           36
 max number of K2 of shell pair               1
 max number of CS2 of shell pair             16
 max number of PS2 of shell pair             48
 mem total for path MDJ                  507868
 -------------------------------------------------------
 Smallest overlap matrix eigenvalue = 2.68E-02

 Scale SEOQF with 1.000000e+00/1.000000e+00/1.000000e-01

 Standard Electronic Orientation quadrupole field applied
 Nucleus-field energy     =     0.0000000018 hartrees
 Guess from superposition of atomic densities
 Warning:  Energy on first SCF cycle will be non-variational
 SAD guess density has 10.000000 electrons

 -----------------------------------------------------------------------
  General SCF calculation program by
  Eric Jon Sundstrom, Paul Horn, Yuezhi Mao, Dmitri Zuev, Alec White,
  David Stuck, Shaama M.S., Shane Yost, Joonho Lee, David Small,
  Daniel Levine, Susi Lehtola, Hugh Burton, Evgeny Epifanovsky
 -----------------------------------------------------------------------
 Exchange:     0.2000 Hartree-Fock + 0.0800 Slater + 0.7200 B88
 Correlation:  0.1900 VWN1RPA + 0.8100 LYP
 Using SG-1 standard quadrature grid
 using 12 threads for integral computing
 -------------------------------------------------------
 OpenMP Integral computing Module                
 Release: version 1.0, May 2013, Q-Chem Inc. Pittsburgh 
 -------------------------------------------------------
 -------------------------------------------------------
 OpenMP BLAS3 based DFT computing Module                
 Release: version 1.0, May 2013, Q-Chem Inc. Pittsburgh 
 -------------------------------------------------------
 A unrestricted SCF calculation will be
 performed using DIIS
 SCF converges when DIIS error is below 1.0e-06
 Alpha HF Exchange    Energy =  -0.61718794321455
 Beta HF Exchange     Energy =  -0.61718794321455
 DFT Correlation      Energy =  -0.36654494032187
 DFT Exchange         Energy =  -4.95343435473877
 One-Electron (alpha) Energy = -37.24047978400486
 One-Electron (beta)  Energy = -37.24047978400486
 Total Coulomb        Energy =  29.46451181122297
 ---------------------------------------
  Cycle       Energy         DIIS error
 ---------------------------------------
    1     -40.1990208115      3.85e-02  
 Alpha HF Exchange    Energy =  -0.64859520631927
 Beta HF Exchange     Energy =  -0.64859520631927
 DFT Correlation      Energy =  -0.38336072186290
 DFT Exchange         Energy =  -5.19402532121062
 One-Electron (alpha) Energy = -38.59112051675858
 One-Electron (beta)  Energy = -38.59112051675859
 Total Coulomb        Energy =  32.46768067737132
    2     -40.2173546850      1.09e-02  
 Alpha HF Exchange    Energy =  -0.62938785258955
 Beta HF Exchange     Energy =  -0.62938785258955
 DFT Correlation      Energy =  -0.35820745767389
 DFT Exchange         Energy =  -4.96319682088971
 One-Electron (alpha) Energy = -36.08002462419356
 One-Electron (beta)  Energy = -36.08002462419360
 Total Coulomb        Energy =  27.40177955449617
    3     -39.9666675508      1.65e-02  
 Alpha HF Exchange    Energy =  -0.63614892201475
 Beta HF Exchange     Energy =  -0.63614892201475
 DFT Correlation      Energy =  -0.37601404650125
 DFT Exchange         Energy =  -5.09226291987949
 One-Electron (alpha) Energy = -37.99147247853514
 One-Electron (beta)  Energy = -37.99147247853514
 Total Coulomb        Energy =  31.04412730079943
    4     -40.3076103399      3.71e-03  
 Alpha HF Exchange    Energy =  -0.63340576064732
 Beta HF Exchange     Energy =  -0.63340576064732
 DFT Correlation      Energy =  -0.36949489247521
 DFT Exchange         Energy =  -5.05517034982765
 One-Electron (alpha) Energy = -37.33622179025194
 One-Electron (beta)  Energy = -37.33622179025194
 Total Coulomb        Energy =  29.68916695233309
    5     -40.3029712650      3.88e-03  
 Alpha HF Exchange    Energy =  -0.63330932320830
 Beta HF Exchange     Energy =  -0.63330932320830
 DFT Correlation      Energy =  -0.37237120307660
 DFT Exchange         Energy =  -5.06681449488153
 One-Electron (alpha) Energy = -37.65305555417776
 One-Electron (beta)  Energy = -37.65305555417776
 Total Coulomb        Energy =  30.31422641043869
    6     -40.3259069155      2.30e-04  
 Alpha HF Exchange    Energy =  -0.63343257317243
 Beta HF Exchange     Energy =  -0.63343257317243
 DFT Correlation      Energy =  -0.37257565931158
 DFT Exchange         Energy =  -5.06829994347180
 One-Electron (alpha) Energy = -37.67312554738524
 One-Electron (beta)  Energy = -37.67312554738518
 Total Coulomb        Energy =  30.35623400685752
    7     -40.3259757102      3.39e-06  
 Alpha HF Exchange    Energy =  -0.63343460870689
 Beta HF Exchange     Energy =  -0.63343460870689
 DFT Correlation      Energy =  -0.37258045314886
 DFT Exchange         Energy =  -5.06832632364323
 One-Electron (alpha) Energy = -37.67361590703970
 One-Electron (beta)  Energy = -37.67361590703960
 Total Coulomb        Energy =  30.35724999283202
    8     -40.3259756886      5.02e-06  
 Alpha HF Exchange    Energy =  -0.63343264754049
 Beta HF Exchange     Energy =  -0.63343264754049
 DFT Correlation      Energy =  -0.37257720173091
 DFT Exchange         Energy =  -5.06830373416103
 One-Electron (alpha) Energy = -37.67329562067096
 One-Electron (beta)  Energy = -37.67329562067077
 Total Coulomb        Energy =  30.35657962715633
    9     -40.3259757183      1.29e-06  
 Alpha HF Exchange    Energy =  -0.63343201257383
 Beta HF Exchange     Energy =  -0.63343201257383
 DFT Correlation      Energy =  -0.37257619590875
 DFT Exchange         Energy =  -5.06829645281633
 One-Electron (alpha) Energy = -37.67319678450358
 One-Electron (beta)  Energy = -37.67319678450320
 Total Coulomb        Energy =  30.35637239563910
   10     -40.3259757204      1.45e-07  Convergence criterion met
 ---------------------------------------
 SCF time:   CPU 17.09s  wall 1.00s 
<S^2> =          0.000000000
 Alpha HF Exchange    Energy =  -0.63343201257383
 Beta HF Exchange     Energy =  -0.63343201257383
 DFT Correlation      Energy =  -0.37257619590875
 DFT Exchange         Energy =  -5.06829645281633
 One-Electron (alpha) Energy = -37.67319678450358
 One-Electron (beta)  Energy = -37.67319678450320
 Total Coulomb        Energy =  30.35637239563910
 Nuclear repulsion Energy =  11.37178212681555
 SCF   energy in the final basis set =      -40.3259757204
 Total energy in the final basis set =      -40.3259757204
 
 --------------------------------------------------------------
 
                    Orbital Energies (a.u.)
 --------------------------------------------------------------
 
 Alpha MOs
 -- Occupied --
-10.249  -0.699  -0.445  -0.445  -0.226
 -- Virtual --
 -0.122   0.103   0.163   0.163   0.516   0.516   0.554   0.657
  0.861   0.861   0.880   0.946   1.418   1.418   1.890   1.890
  1.940   1.977   2.061   2.061   2.078   2.305   2.517   2.517
  2.710   2.710   3.218   3.423   3.423   4.261
 
 Beta MOs
 -- Occupied --
-10.249  -0.699  -0.445  -0.445  -0.226
 -- Virtual --
 -0.122   0.103   0.163   0.163   0.516   0.516   0.554   0.657
  0.861   0.861   0.880   0.946   1.418   1.418   1.890   1.890
  1.940   1.977   2.061   2.061   2.078   2.305   2.517   2.517
  2.710   2.710   3.218   3.423   3.423   4.261
 --------------------------------------------------------------
 
          Ground-State Mulliken Net Atomic Charges

     Atom                 Charge (a.u.)    Spin (a.u.)
  --------------------------------------------------------
      1 H                    -0.153274      -0.000000
      2 C                    -0.330512       0.000000
      3 H                     0.161273       0.000000
      4 H                     0.161247      -0.000000
      5 H                     0.161266       0.000000
  --------------------------------------------------------
  Sum of atomic charges =     0.000000
  Sum of spin   charges =     0.000000

 -----------------------------------------------------------------
                    Cartesian Multipole Moments
 -----------------------------------------------------------------
    Charge (ESU x 10^10)
                 0.0000
    Dipole Moment (Debye)
         X      -1.0345      Y      -0.3152      Z      -1.8310
       Tot       2.1265
    Quadrupole Moments (Debye-Ang)
        XX      -9.0239     XY      -0.2505     YY      -8.2768
        XZ      -1.4571     YZ      -0.4433     ZZ     -10.7788
    Octopole Moments (Debye-Ang^2)
       XXX      -1.4218    XXY      -0.2299    XYY       0.5937
       YYY      -0.2038    XXZ      -0.2550    XYZ      -0.1472
       YYZ      -0.8781    XZZ      -0.8468    YZZ      -0.0762
       ZZZ      -1.8317
    Hexadecapole Moments (Debye-Ang^3)
      XXXX     -26.8152   XXXY      -1.8507   XXYY      -7.6708
      XYYY      -2.1251   YYYY     -15.8910   XXXZ     -11.6915
      XXYZ      -1.2561   XYYZ      -4.0068   YYYZ      -3.2472
      XXZZ     -14.9640   XYZZ      -0.9465   YYZZ     -11.2440
      XZZZ     -12.8795   YZZZ      -4.2092   ZZZZ     -57.6830
 -----------------------------------------------------------------
 Calculating analytic gradient of the SCF energy
 Gradient of SCF Energy
            1           2           3           4           5
    1   0.0182826  -0.0182846  -0.0000058  -0.0000030   0.0000108
    2   0.0055770  -0.0055738  -0.0000104   0.0000085  -0.0000012
    3   0.0323624  -0.0323658   0.0000015   0.0000052  -0.0000034
 Max gradient component =       3.237E-02
 RMS gradient           =       1.372E-02
 Gradient time:  CPU 4.65 s  wall 0.61 s
 Geometry Optimization Parameters
   NAtoms,    NIC,     NZ,  NCons,   NDum,   NFix, NCnnct, MaxDiis
        5      20       0       1       0       0       0       0


** CONSTRAINED OPTIMIZATION IN DELOCALIZED INTERNAL COORDINATES **
   Searching for a Minimum

   Optimization Cycle:   1

                       Coordinates (Angstroms)
     ATOM                X               Y               Z
      1  H         1.0734970000    0.3272080000    1.9001610000
      2  C        -0.2399010000   -0.0731550000   -0.4246400000
      3  H         0.1234390000    0.8385800000   -0.8772940000
      4  H         0.2592250000   -1.0080440000   -0.6369930000
      5  H        -1.2163600000   -0.0846920000    0.0385670000
   Point Group: c1    Number of degrees of freedom:     9


   Energy is    -40.325975720

              Constraints and their Current Values
                                        Value     Constraint
   Distance(Angs):        1   2             2.700001     2.800000

 Attempting to Generate Delocalized Internal Coordinates

   Using Lagrange Multiplier Algorithm


 10 Hessian modes will be used to form the next step
  Hessian Eigenvalues:
    -0.991944    0.160000    0.160000    0.160000    0.160000    0.160000
     0.358917    0.358954    0.358958    1.008121

 Minimum Search - Taking P-RFO Step
 Searching for Lamda that Maximizes Along the Constraint modes Only
 Value Taken    Lamda =   0.02536345
 Searching for Lamda that Minimizes Along All other modes
 Value Taken    Lamda =  -0.01110674
 Step Taken.  Stepsize is  0.185311

                             Maximum     Tolerance    Cnvgd?
         Gradient            0.188971       0.000300      NO
         Displacement        0.185311       0.001200      NO
         Energy change     *********       0.000001      NO


 New Cartesian Coordinates Obtained by Inverse Iteration

 Displacement from previous Coordinates is:  0.165754
 ----------------------------------------------------------------
             Standard Nuclear Orientation (Angstroms)
    I     Atom           X                Y                Z
 ----------------------------------------------------------------
    1      H       1.1116641786     0.3388516168     1.9677081362
    2      C      -0.2494413305    -0.0760661811    -0.4415227222
    3      H       0.1139128743     0.8356843389    -0.8941696363
    4      H       0.2496851169    -1.0109686090    -0.6538932278
    5      H      -1.2259208393    -0.0876041656     0.0216784500
 ----------------------------------------------------------------
 Nuclear Repulsion Energy =    11.3145381354 hartrees
 There are        5 alpha and        5 beta electrons

                       Distance Matrix (Angstroms)
             H (  1)   C (  2)   H (  3)   H (  4)
   C (  2)  2.798063
   H (  3)  3.071269  1.080835
   H (  4)  3.072103  1.080866  1.867162
   H (  5)  3.071351  1.080833  1.867189  1.867194
 
 Applying Cartesian multipole field
    Component          Value
    ---------          -----
     (2,0,0)        1.00000E-10
     (0,2,0)        2.00000E-10
     (0,0,2)       -3.00000E-11
 Nucleus-field energy     =     0.0000000018 hartrees
 Requested basis set is 6-31G(d,p)
 There are 16 shells and 35 basis functions
 A cutoff of  1.0D-14 yielded    136 shell pairs
 There are       669 function pairs
 Smallest overlap matrix eigenvalue = 2.69E-02
 Guess from superposition of atomic densities
 Warning:  Energy on first SCF cycle will be non-variational
 SAD guess density has 10.000000 electrons

 -----------------------------------------------------------------------
  General SCF calculation program by
  Eric Jon Sundstrom, Paul Horn, Yuezhi Mao, Dmitri Zuev, Alec White,
  David Stuck, Shaama M.S., Shane Yost, Joonho Lee, David Small,
  Daniel Levine, Susi Lehtola, Hugh Burton, Evgeny Epifanovsky
 -----------------------------------------------------------------------
 Exchange:     0.2000 Hartree-Fock + 0.0800 Slater + 0.7200 B88
 Correlation:  0.1900 VWN1RPA + 0.8100 LYP
 Using SG-1 standard quadrature grid
 using 12 threads for integral computing
 -------------------------------------------------------
 OpenMP Integral computing Module                
 Release: version 1.0, May 2013, Q-Chem Inc. Pittsburgh 
 -------------------------------------------------------
 -------------------------------------------------------
 OpenMP BLAS3 based DFT computing Module                
 Release: version 1.0, May 2013, Q-Chem Inc. Pittsburgh 
 -------------------------------------------------------
 A unrestricted SCF calculation will be
 performed using DIIS
 SCF converges when DIIS error is below 1.0e-06
 Alpha HF Exchange    Energy =  -0.61704383414976
 Beta HF Exchange     Energy =  -0.61704383414976
 DFT Correlation      Energy =  -0.36625776189506
 DFT Exchange         Energy =  -4.95319425549680
 One-Electron (alpha) Energy = -37.18327195304215
 One-Electron (beta)  Energy = -37.18327195304215
 Total Coulomb        Energy =  29.40765638170370
 ---------------------------------------
  Cycle       Energy         DIIS error
 ---------------------------------------
    1     -40.1978890729      3.85e-02  
 Alpha HF Exchange    Energy =  -0.64919844579129
 Beta HF Exchange     Energy =  -0.64919844579129
 DFT Correlation      Energy =  -0.38378189334208
 DFT Exchange         Energy =  -5.20018214836292
 One-Electron (alpha) Energy = -38.59070880439815
 One-Electron (beta)  Energy = -38.59070880439808
 Total Coulomb        Energy =  32.55367355898844
    2     -40.1955668459      1.15e-02  
 Alpha HF Exchange    Energy =  -0.62931938990085
 Beta HF Exchange     Energy =  -0.62931938990086
 DFT Correlation      Energy =  -0.35748117425214
 DFT Exchange         Energy =  -4.96089741730284
 One-Electron (alpha) Energy = -35.94791854922480
 One-Electron (beta)  Energy = -35.94791854922479
 Total Coulomb        Energy =  27.22425087231768
    3     -39.9340654603      1.70e-02  
 Alpha HF Exchange    Energy =  -0.63548964807387
 Beta HF Exchange     Energy =  -0.63548964807387
 DFT Correlation      Energy =  -0.37558952211596
 DFT Exchange         Energy =  -5.09068729859815
 One-Electron (alpha) Energy = -37.92422941047963
 One-Electron (beta)  Energy = -37.92422941047962
 Total Coulomb        Energy =  30.96974109267147
    4     -40.3014357080      3.66e-03  
 Alpha HF Exchange    Energy =  -0.63314999766411
 Beta HF Exchange     Energy =  -0.63314999766411
 DFT Correlation      Energy =  -0.36876703746490
 DFT Exchange         Energy =  -5.05352913987068
 One-Electron (alpha) Energy = -37.22033139470763
 One-Electron (beta)  Energy = -37.22033139470759
 Total Coulomb        Energy =  29.52492227701979
    5     -40.2897985479      4.36e-03  
 Alpha HF Exchange    Energy =  -0.63280641902627
 Beta HF Exchange     Energy =  -0.63280641902627
 DFT Correlation      Energy =  -0.37205535136943
 DFT Exchange         Energy =  -5.06648917378378
 One-Electron (alpha) Energy = -37.59122760534217
 One-Electron (beta)  Energy = -37.59122760534216
 Total Coulomb        Energy =  30.25281676326370
    6     -40.3192576735      1.82e-04  
 Alpha HF Exchange    Energy =  -0.63290423920715
 Beta HF Exchange     Energy =  -0.63290423920715
 DFT Correlation      Energy =  -0.37223012184240
 DFT Exchange         Energy =  -5.06772008034060
 One-Electron (alpha) Energy = -37.60861420594277
 One-Electron (beta)  Energy = -37.60861420594266
 Total Coulomb        Energy =  30.28914684793929
    7     -40.3193021074      1.46e-05  
 Alpha HF Exchange    Energy =  -0.63290070806791
 Beta HF Exchange     Energy =  -0.63290070806791
 DFT Correlation      Energy =  -0.37222624321253
 DFT Exchange         Energy =  -5.06768316816730
 One-Electron (alpha) Energy = -37.60825122262884
 One-Electron (beta)  Energy = -37.60825122262867
 Total Coulomb        Energy =  30.28837290751134
    8     -40.3193022281      9.38e-06  
 Alpha HF Exchange    Energy =  -0.63289749927539
 Beta HF Exchange     Energy =  -0.63289749927539
 DFT Correlation      Energy =  -0.37222085863208
 DFT Exchange         Energy =  -5.06764560660173
 One-Electron (alpha) Energy = -37.60771456121765
 One-Electron (beta)  Energy = -37.60771456121734
 Total Coulomb        Energy =  30.28725012272848
    9     -40.3193023263      3.26e-06  
 Alpha HF Exchange    Energy =  -0.63289592280931
 Beta HF Exchange     Energy =  -0.63289592280930
 DFT Correlation      Energy =  -0.37221826442374
 DFT Exchange         Energy =  -5.06762724058948
 One-Electron (alpha) Energy = -37.60745606536484
 One-Electron (beta)  Energy = -37.60745606536419
 Total Coulomb        Energy =  30.28670900444180
   10     -40.3193023397      3.04e-07  Convergence criterion met
 ---------------------------------------
 SCF time:   CPU 16.90s  wall 2.00s 
<S^2> =          0.000000000
 Alpha HF Exchange    Energy =  -0.63289592280931
 Beta HF Exchange     Energy =  -0.63289592280930
 DFT Correlation      Energy =  -0.37221826442374
 DFT Exchange         Energy =  -5.06762724058948
 One-Electron (alpha) Energy = -37.60745606536484
 One-Electron (beta)  Energy = -37.60745606536419
 Total Coulomb        Energy =  30.28670900444180
 Nuclear repulsion Energy =  11.31453813716969
 SCF   energy in the final basis set =      -40.3193023397
 Total energy in the final basis set =      -40.3193023397
 
 --------------------------------------------------------------
 
                    Orbital Energies (a.u.)
 --------------------------------------------------------------
 
 Alpha MOs
 -- Occupied --
-10.250  -0.701  -0.446  -0.446  -0.223
 -- Virtual --
 -0.128   0.102   0.162   0.162   0.515   0.515   0.549   0.654
  0.860   0.860   0.873   0.947   1.416   1.416   1.890   1.890
  1.939   1.976   2.060   2.060   2.072   2.297   2.515   2.515
  2.708   2.708   3.216   3.422   3.422   4.256
 
 Beta MOs
 -- Occupied --
-10.250  -0.701  -0.446  -0.446  -0.223
 -- Virtual --
 -0.128   0.102   0.162   0.162   0.515   0.515   0.549   0.654
  0.860   0.860   0.873   0.947   1.416   1.416   1.890   1.890
  1.939   1.976   2.060   2.060   2.072   2.297   2.515   2.515
  2.708   2.708   3.216   3.422   3.422   4.256
 --------------------------------------------------------------
 
          Ground-State Mulliken Net Atomic Charges

     Atom                 Charge (a.u.)    Spin (a.u.)
  --------------------------------------------------------
      1 H                    -0.155277      -0.000000
      2 C                    -0.330558       0.000000
      3 H                     0.161956      -0.000000
      4 H                     0.161929      -0.000000
      5 H                     0.161950      -0.000000
  --------------------------------------------------------
  Sum of atomic charges =     0.000000
  Sum of spin   charges =    -0.000000

 -----------------------------------------------------------------
                    Cartesian Multipole Moments
 -----------------------------------------------------------------
    Charge (ESU x 10^10)
                 0.0000
    Dipole Moment (Debye)
         X      -1.0847      Y      -0.3305      Z      -1.9198
       Tot       2.2296
    Quadrupole Moments (Debye-Ang)
        XX      -9.0950     XY      -0.2729     YY      -8.2813
        XZ      -1.5872     YZ      -0.4830     ZZ     -11.0068
    Octopole Moments (Debye-Ang^2)
       XXX      -1.5549    XXY      -0.2638    XYY       0.5766
       YYY      -0.2163    XXZ      -0.4482    XYZ      -0.2010
       YYZ      -0.9148    XZZ      -1.1689    YZZ      -0.1739
       ZZZ      -2.4379
    Hexadecapole Moments (Debye-Ang^3)
      XXXX     -27.9944   XXXY      -2.0533   XXYY      -7.8925
      XYYY      -2.2997   YYYY     -15.9816   XXXZ     -12.9026
      XXYZ      -1.4315   XYYZ      -4.3559   YYYZ      -3.5372
      XXZZ     -16.1811   XYZZ      -1.1441   YYZZ     -11.8399
      XZZZ     -14.6559   YZZZ      -4.7613   ZZZZ     -62.5085
 -----------------------------------------------------------------
 Calculating analytic gradient of the SCF energy
 Gradient of SCF Energy
            1           2           3           4           5
    1   0.0167728  -0.0161903  -0.0002212  -0.0002232  -0.0001382
    2   0.0051168  -0.0049361  -0.0001135  -0.0000070  -0.0000603
    3   0.0296857  -0.0286561  -0.0003255  -0.0003322  -0.0003720
 Max gradient component =       2.969E-02
 RMS gradient           =       1.237E-02
 Gradient time:  CPU 4.62 s  wall 0.60 s
 Geometry Optimization Parameters
   NAtoms,    NIC,     NZ,  NCons,   NDum,   NFix, NCnnct, MaxDiis
        5      20       0       1       0       0       0       0

 Cartesian Hessian Update
 Hessian Updated using BFGS Update
**WARNING** Hereditary positive definiteness endangered


** CONSTRAINED OPTIMIZATION IN DELOCALIZED INTERNAL COORDINATES **
   Searching for a Minimum

   Optimization Cycle:   2

                       Coordinates (Angstroms)
     ATOM                X               Y               Z
      1  H         1.1116641786    0.3388516168    1.9677081362
      2  C        -0.2494413305   -0.0760661811   -0.4415227222
      3  H         0.1139128743    0.8356843389   -0.8941696363
      4  H         0.2496851169   -1.0109686090   -0.6538932278
      5  H        -1.2259208393   -0.0876041656    0.0216784500
   Point Group: c1    Number of degrees of freedom:     9


   Energy is    -40.319302340

              Constraints and their Current Values
                                        Value     Constraint
   Distance(Angs):        1   2             2.798063     2.800000
 Hessian Updated using BFGS Update
**WARNING** Hereditary positive definiteness endangered

   Using Lagrange Multiplier Algorithm


  7 Hessian modes will be used to form the next step
  Hessian Eigenvalues:
    -1.008444    0.156671    0.160000    0.358916    0.358953    0.358957
     0.991684

 Minimum Search - Taking P-RFO Step
 Searching for Lamda that Maximizes Along the Constraint modes Only
 Value Taken    Lamda =   0.00000012
 Searching for Lamda that Minimizes Along All other modes
 Value Taken    Lamda =  -0.00004309
 Step Taken.  Stepsize is  0.009707

                             Maximum     Tolerance    Cnvgd?
         Gradient            0.004108       0.000300      NO
         Displacement        0.008977       0.001200      NO
         Energy change      0.006673       0.000001      NO


 New Cartesian Coordinates Obtained by Inverse Iteration

 Displacement from previous Coordinates is:  0.009711
 ----------------------------------------------------------------
             Standard Nuclear Orientation (Angstroms)
    I     Atom           X                Y                Z
 ----------------------------------------------------------------
    1      H       1.1108366480     0.3386133703     1.9662266255
    2      C      -0.2512199428    -0.0766097701    -0.4446634751
    3      H       0.1149594447     0.8363177373    -0.8927565434
    4      H       0.2507597928    -1.0110772971    -0.6524255837
    5      H      -1.2254359426    -0.0873470403     0.0234199768
 ----------------------------------------------------------------
 Nuclear Repulsion Energy =    11.3135282598 hartrees
 There are        5 alpha and        5 beta electrons

                       Distance Matrix (Angstroms)
             H (  1)   C (  2)   H (  3)   H (  4)
   C (  2)  2.800000
   H (  3)  3.068105  1.080885
   H (  4)  3.068996  1.080915  1.867905
   H (  5)  3.068242  1.080886  1.867939  1.867940
 
 Applying Cartesian multipole field
    Component          Value
    ---------          -----
     (2,0,0)        1.00000E-10
     (0,2,0)        2.00000E-10
     (0,0,2)       -3.00000E-11
 Nucleus-field energy     =     0.0000000018 hartrees
 Requested basis set is 6-31G(d,p)
 There are 16 shells and 35 basis functions
 A cutoff of  1.0D-14 yielded    136 shell pairs
 There are       669 function pairs
 Smallest overlap matrix eigenvalue = 2.70E-02
 Guess from superposition of atomic densities
 Warning:  Energy on first SCF cycle will be non-variational
 SAD guess density has 10.000000 electrons

 -----------------------------------------------------------------------
  General SCF calculation program by
  Eric Jon Sundstrom, Paul Horn, Yuezhi Mao, Dmitri Zuev, Alec White,
  David Stuck, Shaama M.S., Shane Yost, Joonho Lee, David Small,
  Daniel Levine, Susi Lehtola, Hugh Burton, Evgeny Epifanovsky
 -----------------------------------------------------------------------
 Exchange:     0.2000 Hartree-Fock + 0.0800 Slater + 0.7200 B88
 Correlation:  0.1900 VWN1RPA + 0.8100 LYP
 Using SG-1 standard quadrature grid
 using 12 threads for integral computing
 -------------------------------------------------------
 OpenMP Integral computing Module                
 Release: version 1.0, May 2013, Q-Chem Inc. Pittsburgh 
 -------------------------------------------------------
 -------------------------------------------------------
 OpenMP BLAS3 based DFT computing Module                
 Release: version 1.0, May 2013, Q-Chem Inc. Pittsburgh 
 -------------------------------------------------------
 A unrestricted SCF calculation will be
 performed using DIIS
 SCF converges when DIIS error is below 1.0e-06
 Alpha HF Exchange    Energy =  -0.61702692834429
 Beta HF Exchange     Energy =  -0.61702692834429
 DFT Correlation      Energy =  -0.36625313753791
 DFT Exchange         Energy =  -4.95316211772221
 One-Electron (alpha) Energy = -37.18234984299507
 One-Electron (beta)  Energy = -37.18234984299507
 Total Coulomb        Energy =  29.40686142877865
 ---------------------------------------
  Cycle       Energy         DIIS error
 ---------------------------------------
    1     -40.1977791076      3.85e-02  
 Alpha HF Exchange    Energy =  -0.64912515149980
 Beta HF Exchange     Energy =  -0.64912515149980
 DFT Correlation      Energy =  -0.38374659200738
 DFT Exchange         Energy =  -5.19984820829198
 One-Electron (alpha) Energy = -38.58747417102276
 One-Electron (beta)  Energy = -38.58747417102279
 Total Coulomb        Energy =  32.54738684842017
    2     -40.1958783353      1.15e-02  
 Alpha HF Exchange    Energy =  -0.62933426875665
 Beta HF Exchange     Energy =  -0.62933426875665
 DFT Correlation      Energy =  -0.35748746693676
 DFT Exchange         Energy =  -4.96100698825425
 One-Electron (alpha) Energy = -35.94810140488677
 One-Electron (beta)  Energy = -35.94810140488675
 Total Coulomb        Energy =  27.22554259877294
    3     -39.9342949421      1.70e-02  
 Alpha HF Exchange    Energy =  -0.63548856941693
 Beta HF Exchange     Energy =  -0.63548856941693
 DFT Correlation      Energy =  -0.37560665058457
 DFT Exchange         Energy =  -5.09083330461597
 One-Electron (alpha) Energy = -37.92518406204930
 One-Electron (beta)  Energy = -37.92518406204928
 Total Coulomb        Energy =  30.97321112795796
    4     -40.3010458286      3.69e-03  
 Alpha HF Exchange    Energy =  -0.63315902884035
 Beta HF Exchange     Energy =  -0.63315902884035
 DFT Correlation      Energy =  -0.36872752340368
 DFT Exchange         Energy =  -5.05341753182846
 One-Electron (alpha) Energy = -37.21506502803523
 One-Electron (beta)  Energy = -37.21506502803517
 Total Coulomb        Energy =  29.51600460631175
    5     -40.2890603011      4.40e-03  
 Alpha HF Exchange    Energy =  -0.63278165745335
 Beta HF Exchange     Energy =  -0.63278165745335
 DFT Correlation      Energy =  -0.37204131608263
 DFT Exchange         Energy =  -5.06640120737811
 One-Electron (alpha) Energy = -37.58930026197759
 One-Electron (beta)  Energy = -37.58930026197746
 Total Coulomb        Energy =  30.24994062002416
    6     -40.3191374807      1.89e-04  
 Alpha HF Exchange    Energy =  -0.63288130219070
 Beta HF Exchange     Energy =  -0.63288130219070
 DFT Correlation      Energy =  -0.37221999976562
 DFT Exchange         Energy =  -5.06766016163147
 One-Electron (alpha) Energy = -37.60708000516100
 One-Electron (beta)  Energy = -37.60708000516080
 Total Coulomb        Energy =  30.28708934521856
    7     -40.3191851693      1.30e-05  
 Alpha HF Exchange    Energy =  -0.63287887798163
 Beta HF Exchange     Energy =  -0.63287887798163
 DFT Correlation      Energy =  -0.37221811049549
 DFT Exchange         Energy =  -5.06763649123172
 One-Electron (alpha) Energy = -37.60691622750944
 One-Electron (beta)  Energy = -37.60691622750910
 Total Coulomb        Energy =  30.28673132613158
    8     -40.3191852250      9.73e-06  
 Alpha HF Exchange    Energy =  -0.63287548974419
 Beta HF Exchange     Energy =  -0.63287548974419
 DFT Correlation      Energy =  -0.37221240379796
 DFT Exchange         Energy =  -5.06759670567049
 One-Electron (alpha) Energy = -37.60634749410115
 One-Electron (beta)  Energy = -37.60634749410055
 Total Coulomb        Energy =  30.28554148373911
    9     -40.3191853318      3.25e-06  
 Alpha HF Exchange    Energy =  -0.63287393938794
 Beta HF Exchange     Energy =  -0.63287393938794
 DFT Correlation      Energy =  -0.37220983931644
 DFT Exchange         Energy =  -5.06757857344930
 One-Electron (alpha) Energy = -37.60609187682850
 One-Electron (beta)  Energy = -37.60609187682721
 Total Coulomb        Energy =  30.28500643848659
   10     -40.3191853451      3.21e-07  Convergence criterion met
 ---------------------------------------
 SCF time:   CPU 17.23s  wall 1.00s 
<S^2> =          0.000000000
 Alpha HF Exchange    Energy =  -0.63287393938794
 Beta HF Exchange     Energy =  -0.63287393938794
 DFT Correlation      Energy =  -0.37220983931644
 DFT Exchange         Energy =  -5.06757857344930
 One-Electron (alpha) Energy = -37.60609187682850
 One-Electron (beta)  Energy = -37.60609187682721
 Total Coulomb        Energy =  30.28500643848659
 Nuclear repulsion Energy =  11.31352826159861
 SCF   energy in the final basis set =      -40.3191853451
 Total energy in the final basis set =      -40.3191853451
 
 --------------------------------------------------------------
 
                    Orbital Energies (a.u.)
 --------------------------------------------------------------
 
 Alpha MOs
 -- Occupied --
-10.250  -0.701  -0.446  -0.446  -0.223
 -- Virtual --
 -0.128   0.102   0.161   0.161   0.515   0.515   0.549   0.653
  0.860   0.860   0.873   0.946   1.417   1.417   1.888   1.888
  1.941   1.975   2.060   2.060   2.072   2.294   2.518   2.518
  2.706   2.706   3.217   3.422   3.422   4.256
 
 Beta MOs
 -- Occupied --
-10.250  -0.701  -0.446  -0.446  -0.223
 -- Virtual --
 -0.128   0.102   0.161   0.161   0.515   0.515   0.549   0.653
  0.860   0.860   0.873   0.946   1.417   1.417   1.888   1.888
  1.941   1.975   2.060   2.060   2.072   2.294   2.518   2.518
  2.706   2.706   3.217   3.422   3.422   4.256
 --------------------------------------------------------------
 
          Ground-State Mulliken Net Atomic Charges

     Atom                 Charge (a.u.)    Spin (a.u.)
  --------------------------------------------------------
      1 H                    -0.155930      -0.000000
      2 C                    -0.330792       0.000000
      3 H                     0.162253      -0.000000
      4 H                     0.162224      -0.000000
      5 H                     0.162245      -0.000000
  --------------------------------------------------------
  Sum of atomic charges =     0.000000
  Sum of spin   charges =     0.000000

 -----------------------------------------------------------------
                    Cartesian Multipole Moments
 -----------------------------------------------------------------
    Charge (ESU x 10^10)
                 0.0000
    Dipole Moment (Debye)
         X      -1.0838      Y      -0.3302      Z      -1.9183
       Tot       2.2279
    Quadrupole Moments (Debye-Ang)
        XX      -9.0980     XY      -0.2749     YY      -8.2782
        XZ      -1.5992     YZ      -0.4866     ZZ     -11.0242
    Octopole Moments (Debye-Ang^2)
       XXX      -1.5300    XXY      -0.2623    XYY       0.5895
       YYY      -0.2069    XXZ      -0.4355    XYZ      -0.2034
       YYZ      -0.8988    XZZ      -1.1717    YZZ      -0.1741
       ZZZ      -2.4045
    Hexadecapole Moments (Debye-Ang^3)
      XXXX     -28.0241   XXXY      -2.0595   XXYY      -7.8949
      XYYY      -2.3036   YYYY     -15.9794   XXXZ     -12.9341
      XXYZ      -1.4363   XYYZ      -4.3639   YYYZ      -3.5457
      XXZZ     -16.2092   XYZZ      -1.1492   YYZZ     -11.8561
      XZZZ     -14.7016   YZZZ      -4.7745   ZZZZ     -62.6264
 -----------------------------------------------------------------
 Calculating analytic gradient of the SCF energy
 Gradient of SCF Energy
            1           2           3           4           5
    1   0.0167145  -0.0164487  -0.0000844  -0.0000775  -0.0001040
    2   0.0050994  -0.0050165  -0.0000128  -0.0000419  -0.0000281
    3   0.0295816  -0.0291214  -0.0001649  -0.0001536  -0.0001418
 Max gradient component =       2.958E-02
 RMS gradient           =       1.245E-02
 Gradient time:  CPU 4.64 s  wall 0.61 s
 Geometry Optimization Parameters
   NAtoms,    NIC,     NZ,  NCons,   NDum,   NFix, NCnnct, MaxDiis
        5      20       0       1       0       0       0       0

 Cartesian Hessian Update
 Hessian Updated using BFGS Update


** CONSTRAINED OPTIMIZATION IN DELOCALIZED INTERNAL COORDINATES **
   Searching for a Minimum

   Optimization Cycle:   3

                       Coordinates (Angstroms)
     ATOM                X               Y               Z
      1  H         1.1108366480    0.3386133703    1.9662266255
      2  C        -0.2512199428   -0.0766097701   -0.4446634751
      3  H         0.1149594447    0.8363177373   -0.8927565434
      4  H         0.2507597928   -1.0110772971   -0.6524255837
      5  H        -1.2254359426   -0.0873470403    0.0234199768
   Point Group: c1    Number of degrees of freedom:     9


   Energy is    -40.319185345

              Constraints and their Current Values
                                        Value     Constraint
   Distance(Angs):        1   2             2.800000     2.800000
 Hessian Updated using BFGS Update

  6 Hessian modes will be used to form the next step
  Hessian Eigenvalues:
     0.088091    0.160000    0.160004    0.358929    0.358956    0.360683

 Minimum Search - Taking Simple RFO Step
 Searching for Lamda that Minimizes Along All modes
 Value Taken    Lamda =  -0.00000428
 Step Taken.  Stepsize is  0.006966

                             Maximum     Tolerance    Cnvgd?
         Gradient           0.000607      0.000300      NO
         Displacement       0.006923      0.001200      NO
         Energy change      0.000117      0.000001      NO


 New Cartesian Coordinates Obtained by Inverse Iteration

 Displacement from previous Coordinates is:  0.008791
 ----------------------------------------------------------------
             Standard Nuclear Orientation (Angstroms)
    I     Atom           X                Y                Z
 ----------------------------------------------------------------
    1      H       1.1096116102     0.3382618311     1.9640281484
    2      C      -0.2524627640    -0.0769922527    -0.4468465757
    3      H       0.1158792211     0.8367373985    -0.8913205896
    4      H       0.2516670310    -1.0110042986    -0.6510137055
    5      H      -1.2247950983    -0.0871056783     0.0249537223
 ----------------------------------------------------------------
 Nuclear Repulsion Energy =    11.3147006250 hartrees
 There are        5 alpha and        5 beta electrons

                       Distance Matrix (Angstroms)
             H (  1)   C (  2)   H (  3)   H (  4)
   C (  2)  2.800000
   H (  3)  3.064147  1.080803
   H (  4)  3.065132  1.080837  1.868244
   H (  5)  3.064376  1.080800  1.868275  1.868278
 
 Applying Cartesian multipole field
    Component          Value
    ---------          -----
     (2,0,0)        1.00000E-10
     (0,2,0)        2.00000E-10
     (0,0,2)       -3.00000E-11
 Nucleus-field energy     =     0.0000000018 hartrees
 Requested basis set is 6-31G(d,p)
 There are 16 shells and 35 basis functions
 A cutoff of  1.0D-14 yielded    136 shell pairs
 There are       669 function pairs
 Smallest overlap matrix eigenvalue = 2.70E-02
 Guess from superposition of atomic densities
 Warning:  Energy on first SCF cycle will be non-variational
 SAD guess density has 10.000000 electrons

 -----------------------------------------------------------------------
  General SCF calculation program by
  Eric Jon Sundstrom, Paul Horn, Yuezhi Mao, Dmitri Zuev, Alec White,
  David Stuck, Shaama M.S., Shane Yost, Joonho Lee, David Small,
  Daniel Levine, Susi Lehtola, Hugh Burton, Evgeny Epifanovsky
 -----------------------------------------------------------------------
 Exchange:     0.2000 Hartree-Fock + 0.0800 Slater + 0.7200 B88
 Correlation:  0.1900 VWN1RPA + 0.8100 LYP
 Using SG-1 standard quadrature grid
 using 12 threads for integral computing
 -------------------------------------------------------
 OpenMP Integral computing Module                
 Release: version 1.0, May 2013, Q-Chem Inc. Pittsburgh 
 -------------------------------------------------------
 -------------------------------------------------------
 OpenMP BLAS3 based DFT computing Module                
 Release: version 1.0, May 2013, Q-Chem Inc. Pittsburgh 
 -------------------------------------------------------
 A unrestricted SCF calculation will be
 performed using DIIS
 SCF converges when DIIS error is below 1.0e-06
 Alpha HF Exchange    Energy =  -0.61703659773044
 Beta HF Exchange     Energy =  -0.61703659773044
 DFT Correlation      Energy =  -0.36625815626964
 DFT Exchange         Energy =  -4.95318679896141
 One-Electron (alpha) Energy = -37.18339420492585
 One-Electron (beta)  Energy = -37.18339420492585
 Total Coulomb        Energy =  29.40776270529257
 ---------------------------------------
  Cycle       Energy         DIIS error
 ---------------------------------------
    1     -40.1978432285      3.85e-02  
 Alpha HF Exchange    Energy =  -0.64909091494077
 Beta HF Exchange     Energy =  -0.64909091494078
 DFT Correlation      Energy =  -0.38372926641067
 DFT Exchange         Energy =  -5.19971277173392
 One-Electron (alpha) Energy = -38.58678497320656
 One-Electron (beta)  Energy = -38.58678497320658
 Total Coulomb        Energy =  32.54425692791545
    2     -40.1962362598      1.14e-02  
 Alpha HF Exchange    Energy =  -0.62935631152625
 Beta HF Exchange     Energy =  -0.62935631152625
 DFT Correlation      Energy =  -0.35750428240535
 DFT Exchange         Energy =  -4.96117798052470
 One-Electron (alpha) Energy = -35.95063379486883
 One-Electron (beta)  Energy = -35.95063379486878
 Total Coulomb        Energy =  27.22926107151034
    3     -39.9347007774      1.70e-02  
 Alpha HF Exchange    Energy =  -0.63550454412763
 Beta HF Exchange     Energy =  -0.63550454412763
 DFT Correlation      Energy =  -0.37562604929465
 DFT Exchange         Energy =  -5.09101630018629
 One-Electron (alpha) Energy = -37.92741568421719
 One-Electron (beta)  Energy = -37.92741568421717
 Total Coulomb        Energy =  30.97689930875512
    4     -40.3008828706      3.71e-03  
 Alpha HF Exchange    Energy =  -0.63318104486403
 Beta HF Exchange     Energy =  -0.63318104486403
 DFT Correlation      Energy =  -0.36871674534114
 DFT Exchange         Energy =  -5.05346261250129
 One-Electron (alpha) Energy = -37.21412306368193
 One-Electron (beta)  Energy = -37.21412306368192
 Total Coulomb        Energy =  29.51334311114051
    5     -40.2887438370      4.42e-03  
 Alpha HF Exchange    Energy =  -0.63278428355079
 Beta HF Exchange     Energy =  -0.63278428355079
 DFT Correlation      Energy =  -0.37204191166758
 DFT Exchange         Energy =  -5.06644403833856
 One-Electron (alpha) Energy = -37.58983209372906
 One-Electron (beta)  Energy = -37.58983209372911
 Total Coulomb        Energy =  30.24988079104408
    6     -40.3191372868      1.94e-04  
 Alpha HF Exchange    Energy =  -0.63288513390303
 Beta HF Exchange     Energy =  -0.63288513390304
 DFT Correlation      Energy =  -0.37222308665312
 DFT Exchange         Energy =  -5.06772133489698
 One-Electron (alpha) Energy = -37.60785934775382
 One-Electron (beta)  Energy = -37.60785934775387
 Total Coulomb        Energy =  30.28754541174328
    7     -40.3191873463      1.16e-05  
 Alpha HF Exchange    Energy =  -0.63288360993445
 Beta HF Exchange     Energy =  -0.63288360993445
 DFT Correlation      Energy =  -0.37222280443836
 DFT Exchange         Energy =  -5.06770843127648
 One-Electron (alpha) Energy = -37.60785637162018
 One-Electron (beta)  Energy = -37.60785637162027
 Total Coulomb        Energy =  30.28752321574164
    8     -40.3191873563      9.88e-06  
 Alpha HF Exchange    Energy =  -0.63288012116264
 Beta HF Exchange     Energy =  -0.63288012116264
 DFT Correlation      Energy =  -0.37221691515340
 DFT Exchange         Energy =  -5.06766738210641
 One-Electron (alpha) Energy = -37.60726957333981
 One-Electron (beta)  Energy = -37.60726957333994
 Total Coulomb        Energy =  30.28629559217561
    9     -40.3191874673      3.19e-06  
 Alpha HF Exchange    Energy =  -0.63287861210202
 Beta HF Exchange     Energy =  -0.63287861210202
 DFT Correlation      Energy =  -0.37221441067345
 DFT Exchange         Energy =  -5.06764968612116
 One-Electron (alpha) Energy = -37.60701992220122
 One-Electron (beta)  Energy = -37.60701992220154
 Total Coulomb        Energy =  30.28577305850087
   10     -40.3191874801      3.29e-07  Convergence criterion met
 ---------------------------------------
 SCF time:   CPU 16.75s  wall 2.00s 
<S^2> =         -0.000000000
 Alpha HF Exchange    Energy =  -0.63287861210202
 Beta HF Exchange     Energy =  -0.63287861210202
 DFT Correlation      Energy =  -0.37221441067345
 DFT Exchange         Energy =  -5.06764968612116
 One-Electron (alpha) Energy = -37.60701992220122
 One-Electron (beta)  Energy = -37.60701992220154
 Total Coulomb        Energy =  30.28577305850087
 Nuclear repulsion Energy =  11.31470062677118
 SCF   energy in the final basis set =      -40.3191874801
 Total energy in the final basis set =      -40.3191874801
 
 --------------------------------------------------------------
 
                    Orbital Energies (a.u.)
 --------------------------------------------------------------
 
 Alpha MOs
 -- Occupied --
-10.250  -0.701  -0.447  -0.447  -0.223
 -- Virtual --
 -0.128   0.102   0.161   0.162   0.515   0.515   0.549   0.652
  0.860   0.860   0.873   0.946   1.417   1.417   1.888   1.888
  1.943   1.975   2.060   2.060   2.072   2.292   2.521   2.521
  2.704   2.704   3.217   3.423   3.423   4.256
 
 Beta MOs
 -- Occupied --
-10.250  -0.701  -0.447  -0.447  -0.223
 -- Virtual --
 -0.128   0.102   0.161   0.162   0.515   0.515   0.549   0.652
  0.860   0.860   0.873   0.946   1.417   1.417   1.888   1.888
  1.943   1.975   2.060   2.060   2.072   2.292   2.521   2.521
  2.704   2.704   3.217   3.423   3.423   4.256
 --------------------------------------------------------------
 
          Ground-State Mulliken Net Atomic Charges

     Atom                 Charge (a.u.)    Spin (a.u.)
  --------------------------------------------------------
      1 H                    -0.156393       0.000000
      2 C                    -0.330977      -0.000000
      3 H                     0.162470       0.000000
      4 H                     0.162439       0.000000
      5 H                     0.162461       0.000000
  --------------------------------------------------------
  Sum of atomic charges =    -0.000000
  Sum of spin   charges =    -0.000000

 -----------------------------------------------------------------
                    Cartesian Multipole Moments
 -----------------------------------------------------------------
    Charge (ESU x 10^10)
                -0.0000
    Dipole Moment (Debye)
         X      -1.0823      Y      -0.3298      Z      -1.9155
       Tot       2.2247
    Quadrupole Moments (Debye-Ang)
        XX      -9.0991     XY      -0.2760     YY      -8.2758
        XZ      -1.6059     YZ      -0.4886     ZZ     -11.0335
    Octopole Moments (Debye-Ang^2)
       XXX      -1.5079    XXY      -0.2604    XYY       0.5995
       YYY      -0.1993    XXZ      -0.4226    XYZ      -0.2044
       YYZ      -0.8854    XZZ      -1.1682    YZZ      -0.1728
       ZZZ      -2.3681
    Hexadecapole Moments (Debye-Ang^3)
      XXXX     -28.0270   XXXY      -2.0611   XXYY      -7.8924
      XYYY      -2.3038   YYYY     -15.9745   XXXZ     -12.9391
      XXYZ      -1.4372   XYYZ      -4.3646   YYYZ      -3.5479
      XXZZ     -16.2102   XYZZ      -1.1499   YYZZ     -11.8589
      XZZZ     -14.7078   YZZZ      -4.7756   ZZZZ     -62.6369
 -----------------------------------------------------------------
 Calculating analytic gradient of the SCF energy
 Gradient of SCF Energy
            1           2           3           4           5
    1   0.0166917  -0.0166914  -0.0000065  -0.0000031   0.0000093
    2   0.0050930  -0.0050886  -0.0000096   0.0000067  -0.0000016
    3   0.0295399  -0.0295437   0.0000003   0.0000046  -0.0000011
 Max gradient component =       2.954E-02
 RMS gradient           =       1.253E-02
 Gradient time:  CPU 4.66 s  wall 0.60 s
 Geometry Optimization Parameters
   NAtoms,    NIC,     NZ,  NCons,   NDum,   NFix, NCnnct, MaxDiis
        5      20       0       1       0       0       0       0

 Cartesian Hessian Update
 Hessian Updated using BFGS Update


** CONSTRAINED OPTIMIZATION IN DELOCALIZED INTERNAL COORDINATES **
   Searching for a Minimum

   Optimization Cycle:   4

                       Coordinates (Angstroms)
     ATOM                X               Y               Z
      1  H         1.1096116102    0.3382618311    1.9640281484
      2  C        -0.2524627640   -0.0769922527   -0.4468465757
      3  H         0.1158792211    0.8367373985   -0.8913205896
      4  H         0.2516670310   -1.0110042986   -0.6510137055
      5  H        -1.2247950983   -0.0871056783    0.0249537223
   Point Group: c1    Number of degrees of freedom:     9


   Energy is    -40.319187480

              Constraints and their Current Values
                                        Value     Constraint
   Distance(Angs):        1   2             2.800000     2.800000
 Hessian Updated using BFGS Update

  7 Hessian modes will be used to form the next step
  Hessian Eigenvalues:
     0.088191    0.160000    0.160000    0.160018    0.358929    0.358956
     0.361043

 Minimum Search - Taking Simple RFO Step
 Searching for Lamda that Minimizes Along All modes
 Value Taken    Lamda =   0.00000000
 Step Taken.  Stepsize is  0.000056

                             Maximum     Tolerance    Cnvgd?
         Gradient           0.000016      0.000300     YES
         Displacement       0.000045      0.001200     YES
         Energy change     -0.000002      0.000001      NO


                       Distance Matrix (Angstroms)
             H (  1)   C (  2)   H (  3)   H (  4)
   C (  2)  2.800000
   H (  3)  3.064147  1.080803
   H (  4)  3.065132  1.080837  1.868244
   H (  5)  3.064376  1.080800  1.868275  1.868278
 
 Final energy is   -40.3191874801294     


 ******************************
 **  OPTIMIZATION CONVERGED  **
 ******************************

                       Coordinates (Angstroms)
     ATOM                X               Y               Z
      1  H         1.1096116102    0.3382618311    1.9640281484
      2  C        -0.2524627640   -0.0769922527   -0.4468465757
      3  H         0.1158792211    0.8367373985   -0.8913205896
      4  H         0.2516670310   -1.0110042986   -0.6510137055
      5  H        -1.2247950983   -0.0871056783    0.0249537223

Z-matrix Print:
$molecule
0 1
C 
H  1 1.080800
H  1 1.080803 2 119.605964
H  1 1.080837 2 119.603062 3 -167.479577 0
H  1 2.800000 2 93.621210 3 96.227763 0
$end

PES scan, value:    2.8000 energy:  -40.3191874801
------- Summary of potential scan: ------ 
    2.8000       -40.3191874801
----------------------------------------- 
Archival summary:
1\1\hpc0243\JobtypUnspecified\ProcedureUnspecified\6-31G**\14\knomura\MonMar1116:21:302019MonMar1116:21:302019\0\\#,JobtypUnspecified,ProcedureUnspecified,6-31G**,\\0,1\C\H,1,1.0808\H,1,1.0808,2,119.606\H,1,1.08084,2,119.603,3,-167.48,0\H,1,2.8,2,93.6212,3,96.2278,0\\\@

 Total job time:  10.67s(wall), 106.05s(cpu) 
 Mon Mar 11 16:21:30 2019

        *************************************************************
        *                                                           *
        *  Thank you very much for using Q-Chem.  Have a nice day.  *
        *                                                           *
        *************************************************************


