
Running Job 1 of 1 scan_ch4.xyz.data/inputs/bond_triplet_2.4.in
qchem scan_ch4.xyz.data/inputs/bond_triplet_2.4.in_32059.0 /staging/scratch/2851581/qchem32059/ 1
/usr/usc/qchem/5.1.1/exe/qcprog.exe_s scan_ch4.xyz.data/inputs/bond_triplet_2.4.in_32059.0 /staging/scratch/2851581/qchem32059/
Check license passed

                  Welcome to Q-Chem
     A Quantum Leap Into The Future Of Chemistry


 Q-Chem 5.1, Q-Chem, Inc., Pleasanton, CA (2018)

 Yihan Shao,  Zhengting Gan,  E. Epifanovsky,  A. T. B. Gilbert,  M. Wormit,  
 J. Kussmann,  A. W. Lange,  A. Behn,  Jia Deng,  Xintian Feng,  D. Ghosh,  
 M. Goldey,  P. R. Horn,  L. D. Jacobson,  I. Kaliman,  T. Kus,  A. Landau,  
 Jie Liu,  E. I. Proynov,  R. M. Richard,  R. P. Steele,  E. J. Sundstrom,  
 H. L. Woodcock III,  P. M. Zimmerman,  D. Zuev,  B. Albrecht,  E. Alguire,  
 S. A. Baeppler,  D. Barton,  Z. Benda,  Y. A. Bernard,  E. J. Berquist,  
 K. B. Bravaya,  H. Burton,  D. Casanova,  Chun-Min Chang,  Yunqing Chen,  
 A. Chien,  K. D. Closser,  M. P. Coons,  S. Coriani,  S. Dasgupta,  
 A. L. Dempwolff,  M. Diedenhofen,  Hainam Do,  R. G. Edgar,  Po-Tung Fang,  
 S. Faraji,  S. Fatehi,  Qingguo Feng,  K. D. Fenk,  J. Fosso-Tande,  
 Qinghui Ge,  A. Ghysels,  G. Gidofalvi,  J. Gomes,  J. Gonthier,  A. Gunina,  
 D. Hait,  M. W. D. Hanson-Heine,  P. H. P. Harbach,  A. W. Hauser,  
 J. E. Herr,  E. G. Hohenstein,  Z. C. Holden,  Kerwin Hui,  B. C. Huynh,  
 T.-C. Jagau,  Hyunjun Ji,  B. Kaduk,  K. Khistyaev,  Jaehoon Kim,  
 P. Klunzinger,  K. Koh,  D. Kosenkov,  L. Koulias,  T. Kowalczyk,  
 C. M. Krauter,  A. Kunitsa,  Ka Un Lao,  A. Laurent,  K. V. Lawler,  
 Joonho Lee,  D. Lefrancois,  S. Lehtola,  D. S. Levine,  Yi-Pei Li,  
 You-Sheng Lin,  Fenglai Liu,  E. Livshits,  A. Luenser,  P. Manohar,  
 E. Mansoor,  S. F. Manzer,  Shan-Ping Mao,  Yuezhi Mao,  N. Mardirossian,  
 A. V. Marenich,  T. Markovich,  L. A. Martinez-Martinez,  S. A. Maurer,  
 N. J. Mayhall,  S. C. McKenzie,  J.-M. Mewes,  A. F. Morrison,  
 J. W. Mullinax,  K. Nanda,  T. S. Nguyen-Beck,  R. Olivares-Amaya,  
 J. A. Parkhill,  T. M. Perrine,  F. Plasser,  P. Pokhilko,  S. Prager,  
 A. Prociuk,  E. Ramos,  D. R. Rehn,  F. Rob,  M. Schneider,  N. Sergueev,  
 S. M. Sharada,  S. Sharma,  D. W. Small,  T. Stauch,  T. Stein,  
 Yu-Chuan Su,  A. J. W. Thom,  A. Tkatchenko,  T. Tsuchimochi,  N. M. Tubman,  
 L. Vogt,  M. L. Vidal,  O. Vydrov,  M. A. Watson,  J. Wenzel,  
 M. de Wergifosse,  T. A. Wesolowski,  A. White,  J. Witte,  A. Yamada,  
 Jun Yang,  K. Yao,  S. Yeganeh,  S. R. Yost,  Zhi-Qiang You,  A. Zech,  
 Igor Ying Zhang,  Xing Zhang,  Yan Zhao,  Ying Zhu,  B. R. Brooks,  
 G. K. L. Chan,  C. J. Cramer,  M. S. Gordon,  W. J. Hehre,  A. Klamt,  
 M. W. Schmidt,  C. D. Sherrill,  D. G. Truhlar,  A. Aspuru-Guzik,  R. Baer,  
 A. T. Bell,  N. A. Besley,  Jeng-Da Chai,  A. E. DePrince, III,  
 R. A. DiStasio Jr.,  A. Dreuw,  B. D. Dunietz,  T. R. Furlani,  
 Chao-Ping Hsu,  Yousung Jung,  Jing Kong,  D. S. Lambrecht,  WanZhen Liang,  
 C. Ochsenfeld,  V. A. Rassolov,  L. V. Slipchenko,  J. E. Subotnik,  
 T. Van Voorhis,  J. M. Herbert,  A. I. Krylov,  P. M. W. Gill,  M. Head-Gordon

 Contributors to earlier versions of Q-Chem not listed above: 
 R. D. Adamson,  B. Austin,  J. Baker,  G. J. O. Beran,  K. Brandhorst,  
 S. T. Brown,  E. F. C. Byrd,  A. K. Chakraborty,  C.-L. Cheng,  
 Siu Hung Chien,  D. M. Chipman,  D. L. Crittenden,  H. Dachsel,  
 R. J. Doerksen,  A. D. Dutoi,  L. Fusti-Molnar,  W. A. Goddard III,  
 A. Golubeva-Zadorozhnaya,  S. R. Gwaltney,  G. Hawkins,  A. Heyden,  
 S. Hirata,  G. Kedziora,  F. J. Keil,  C. Kelley,  Jihan Kim,  R. A. King,  
 R. Z. Khaliullin,  P. P. Korambath,  W. Kurlancheek,  A. M. Lee,  M. S. Lee,  
 S. V. Levchenko,  Ching Yeh Lin,  D. Liotard,  R. C. Lochan,  I. Lotan,  
 P. E. Maslen,  N. Nair,  D. P. O'Neill,  D. Neuhauser,  E. Neuscamman,  
 C. M. Oana,  R. Olson,  B. Peters,  R. Peverati,  P. A. Pieniazek,  
 Y. M. Rhee,  J. Ritchie,  M. A. Rohrdanz,  E. Rosta,  N. J. Russ,  
 H. F. Schaefer III,  N. E. Schultz,  N. Shenvi,  A. C. Simmonett,  A. Sodt,  
 D. Stuck,  K. S. Thanthiriwatte,  V. Vanovschi,  Tao Wang,  A. Warshel,  
 C. F. Williams,  Q. Wu,  X. Xu,  W. Zhang

 Please cite Q-Chem as follows:
 Y. Shao et al., Mol. Phys. 113, 184-215 (2015)
 DOI: 10.1080/00268976.2014.952696

 Q-Chem 5.1.1 for Intel X86 EM64T Linux

 Parts of Q-Chem use Armadillo 8.300.2 (Tropical Shenanigans).
 http://arma.sourceforge.net/

 Q-Chem begins on Mon Mar 11 16:27:55 2019  

Host: 
0

     Scratch files written to /staging/scratch/2851581/qchem32059//
 Aug318 |scratch|qcdevops|jenkins|workspace|build_RNUM 6013   
Processing $rem in /usr/usc/qchem/5.1.1/config/preferences.
 MEM_TOTAL  2000 
Input Ideriv = 2
Curr. Ideriv = -1
Max.  Ideriv = 2

Checking the input file for inconsistencies... 	...done.

--------------------------------------------------------------
User input:
--------------------------------------------------------------

$comment
potential surface scanner
$end

$rem
JOBTYPE  PES_SCAN
UNRESTRICTED TRUE
SYM_IGNORE  TRUE
GEOM_OPT_MAX_CYCLES 400
SCF_MAX_CYCLES 400
METHOD   B3LYP
BASIS   6-31G**
PDB_PRINT 2
SCF_CONVERGENCE 6
THRESH 14
SCF_PRINT 1
$end
$molecule
0 3
H 0.942663 0.315008 1.700236
C -0.255574 -0.082495 -0.457592
H 0.185944 0.851359 -0.780116
H 0.281932 -1.009965 -0.606650
H -1.155068 -0.074005 0.143921
$end
$scan
stre 1 2 2.400000 2.401000 0.100000
$end
--------------------------------------------------------------
 ----------------------------------------------------------------
             Standard Nuclear Orientation (Angstroms)
    I     Atom           X                Y                Z
 ----------------------------------------------------------------
    1      H       0.9426630000     0.3150080000     1.7002360000
    2      C      -0.2555740000    -0.0824950000    -0.4575920000
    3      H       0.1859440000     0.8513590000    -0.7801160000
    4      H       0.2819320000    -1.0099650000    -0.6066500000
    5      H      -1.1550680000    -0.0740050000     0.1439210000
 ----------------------------------------------------------------
 Nuclear Repulsion Energy =    11.5130283544 hartrees
 There are        6 alpha and        4 beta electrons
 Requested basis set is 6-31G(d,p)
 There are 16 shells and 35 basis functions

 Total QAlloc Memory Limit   2000 MB
 Mega-Array Size       188 MB
 MEM_STATIC part       192 MB
A total of 1 constraints
  
            1
    1   1.0100000
    2   1.0100000
    3   2.0100000
    4   2.4000000
    5   2.4010000
    6   0.1000000
    7   0.0000000
    8   0.0000000
    9   0.0000000
   10   0.0000000

                       Distance Matrix (Angstroms)
             H (  1)   C (  2)   H (  3)   H (  4)
   C (  2)  2.500000
   H (  3)  2.648102  1.082147
   H (  4)  2.741139  1.082281  1.871852
   H (  5)  2.640819  1.082118  1.873087  1.871990
 
 A cutoff of  1.0D-14 yielded    136 shell pairs
 There are       669 function pairs
 
 -------------------------------------------------------
 OpenMP Integral Computing Module                       
 Release: version 1.0, May 2013, Q-Chem Inc. Pittsburgh 
 -------------------------------------------------------
 Integral Job Info:
 Integral job number is                      11
 Integral operator is                         1
 short-range coefficients                     0
 long-range coefficients              100000000
 Omega coefficients                           0
 if combine SR and LR in K                    0
 Integral screening is                        0
 Integral computing path is                   2
 max size of driver memory is            800000
 size of driver memory is                593474
 size of scratch memory is              2361544
 max col of scratch BK array               1296
 max len of scratch array in speh3          155
 max len of scratch index in speh4           18
 max int batch size is                      520
 min int batch size is                       52
 fixed nKL is                                52
 max L of basis functions is                  2
 order of int derivative is                   0
 number of shells is                         16
 number of basis is                          35
 number of cartesian basis is                35
 number of contracted shell pairs           136
 number of primitive shell pairs            478
 maxK2 (contraction) of shell pair           36
 max number of K2 of shell pair               1
 max number of CS2 of shell pair             16
 max number of PS2 of shell pair             48
 mem total for path MDJ                  507880
 -------------------------------------------------------
 Smallest overlap matrix eigenvalue = 2.67E-02

 Scale SEOQF with 1.000000e+00/1.000000e+00/1.000000e-01

 Standard Electronic Orientation quadrupole field applied
 Nucleus-field energy     =     0.0000000018 hartrees
 Guess from superposition of atomic densities
 Warning:  Energy on first SCF cycle will be non-variational
 SAD guess density has 10.000000 electrons

 -----------------------------------------------------------------------
  General SCF calculation program by
  Eric Jon Sundstrom, Paul Horn, Yuezhi Mao, Dmitri Zuev, Alec White,
  David Stuck, Shaama M.S., Shane Yost, Joonho Lee, David Small,
  Daniel Levine, Susi Lehtola, Hugh Burton, Evgeny Epifanovsky
 -----------------------------------------------------------------------
 Exchange:     0.2000 Hartree-Fock + 0.0800 Slater + 0.7200 B88
 Correlation:  0.1900 VWN1RPA + 0.8100 LYP
 Using SG-1 standard quadrature grid
 using 12 threads for integral computing
 -------------------------------------------------------
 OpenMP Integral computing Module                
 Release: version 1.0, May 2013, Q-Chem Inc. Pittsburgh 
 -------------------------------------------------------
 -------------------------------------------------------
 OpenMP BLAS3 based DFT computing Module                
 Release: version 1.0, May 2013, Q-Chem Inc. Pittsburgh 
 -------------------------------------------------------
 A unrestricted SCF calculation will be
 performed using DIIS
 SCF converges when DIIS error is below 1.0e-06
 Alpha HF Exchange    Energy =  -0.61750857344785
 Beta HF Exchange     Energy =  -0.61750857344785
 DFT Correlation      Energy =  -0.36738829905148
 DFT Exchange         Energy =  -4.95389115829699
 One-Electron (alpha) Energy = -37.38385884411016
 One-Electron (beta)  Energy = -37.38385884411016
 Total Coulomb        Energy =  29.60922135112058
 ---------------------------------------
  Cycle       Energy         DIIS error
 ---------------------------------------
    1     -40.2017645851      3.84e-02  
 Alpha HF Exchange    Energy =  -0.73847486467814
 Beta HF Exchange     Energy =  -0.58747900038172
 DFT Correlation      Energy =  -0.35724834395670
 DFT Exchange         Energy =  -5.24046016531829
 One-Electron (alpha) Energy = -41.95900365602893
 One-Electron (beta)  Energy = -34.69794485599343
 Total Coulomb        Energy =  31.76188274761239
    2     -40.3056997825      6.43e-03  
 Alpha HF Exchange    Energy =  -0.71881204810569
 Beta HF Exchange     Energy =  -0.57199002899524
 DFT Correlation      Energy =  -0.34732263849132
 DFT Exchange         Energy =  -5.09540908423979
 One-Electron (alpha) Energy = -41.14160245317390
 One-Electron (beta)  Energy = -33.99470181499379
 Total Coulomb        Energy =  30.04169185713110
    3     -40.3151178547      5.53e-03  
 Alpha HF Exchange    Energy =  -0.73030221826625
 Beta HF Exchange     Energy =  -0.57858302574266
 DFT Correlation      Energy =  -0.35161995258485
 DFT Exchange         Energy =  -5.16944677976498
 One-Electron (alpha) Energy = -41.58189637766895
 One-Electron (beta)  Energy = -34.29448234960815
 Total Coulomb        Energy =  30.85776591070897
    4     -40.3355364367      2.13e-04  
 Alpha HF Exchange    Energy =  -0.73058892242679
 Beta HF Exchange     Energy =  -0.57830033760033
 DFT Correlation      Energy =  -0.35141901133567
 DFT Exchange         Energy =  -5.16931958702669
 One-Electron (alpha) Energy = -41.59272520933676
 One-Electron (beta)  Energy = -34.27202568147604
 Total Coulomb        Energy =  30.84575427363717
    5     -40.3355961194      5.19e-05  
 Alpha HF Exchange    Energy =  -0.73071082995640
 Beta HF Exchange     Energy =  -0.57818291456935
 DFT Correlation      Energy =  -0.35137072319077
 DFT Exchange         Energy =  -5.16930190255165
 One-Electron (alpha) Energy = -41.59898737133013
 One-Electron (beta)  Energy = -34.26433472770449
 Total Coulomb        Energy =  30.84425888552295
    6     -40.3356012276      9.06e-06  
 Alpha HF Exchange    Energy =  -0.73074159402259
 Beta HF Exchange     Energy =  -0.57816925766546
 DFT Correlation      Energy =  -0.35136655646279
 DFT Exchange         Energy =  -5.16936639172039
 One-Electron (alpha) Energy = -41.60036961335311
 One-Electron (beta)  Energy = -34.26322772904999
 Total Coulomb        Energy =  30.84461141070462
    7     -40.3356013754      1.51e-06  
 Alpha HF Exchange    Energy =  -0.73074320151554
 Beta HF Exchange     Energy =  -0.57816765720144
 DFT Correlation      Energy =  -0.35136623727619
 DFT Exchange         Energy =  -5.16936636127109
 One-Electron (alpha) Energy = -41.60045726892915
 One-Electron (beta)  Energy = -34.26314318859588
 Total Coulomb        Energy =  30.84461418091444
    8     -40.3356013777      3.24e-07  Convergence criterion met
 ---------------------------------------
 SCF time:   CPU 13.87s  wall 1.00s 
<S^2> =          2.003725486
 Alpha HF Exchange    Energy =  -0.73074320151554
 Beta HF Exchange     Energy =  -0.57816765720144
 DFT Correlation      Energy =  -0.35136623727619
 DFT Exchange         Energy =  -5.16936636127109
 One-Electron (alpha) Energy = -41.60045726892915
 One-Electron (beta)  Energy = -34.26314318859588
 Total Coulomb        Energy =  30.84461418091444
 Nuclear repulsion Energy =  11.51302835620784
 SCF   energy in the final basis set =      -40.3356013777
 Total energy in the final basis set =      -40.3356013777
 
 --------------------------------------------------------------
 
                    Orbital Energies (a.u.)
 --------------------------------------------------------------
 
 Alpha MOs
 -- Occupied --
-10.189  -0.682  -0.415  -0.415  -0.320  -0.210
 -- Virtual --
  0.115   0.182   0.182   0.538   0.538   0.556   0.650   0.836
  0.889   0.889   0.945   1.434   1.435   1.905   1.906   1.923
  1.970   1.970   2.007   2.048   2.324   2.548   2.549   2.725
  2.726   3.249   3.455   3.456   4.298
 
 Beta MOs
 -- Occupied --
-10.175  -0.640  -0.405  -0.405
 -- Virtual --
 -0.083   0.012   0.131   0.187   0.187   0.545   0.545   0.636
  0.723   0.893   0.893   0.975   1.034   1.481   1.482   1.919
  1.919   2.002   2.026   2.219   2.219   2.225   2.373   2.577
  2.578   2.727   2.729   3.256   3.463   3.464   4.336
 --------------------------------------------------------------
 
          Ground-State Mulliken Net Atomic Charges

     Atom                 Charge (a.u.)    Spin (a.u.)
  --------------------------------------------------------
      1 H                    -0.000296       0.998976
      2 C                    -0.367548       1.143960
      3 H                     0.122580      -0.047646
      4 H                     0.122699      -0.047640
      5 H                     0.122564      -0.047651
  --------------------------------------------------------
  Sum of atomic charges =    -0.000000
  Sum of spin   charges =     2.000000

 -----------------------------------------------------------------
                    Cartesian Multipole Moments
 -----------------------------------------------------------------
    Charge (ESU x 10^10)
                -0.0000
    Dipole Moment (Debye)
         X       0.0481      Y       0.0062      Z       0.0756
       Tot       0.0898
    Quadrupole Moments (Debye-Ang)
        XX      -8.8109     XY      -0.1181     YY      -8.3240
        XZ      -0.8750     YZ      -0.2046     ZZ      -9.7688
    Octopole Moments (Debye-Ang^2)
       XXX       1.4734    XXY       0.1500    XYY       1.2627
       YYY       0.5236    XXZ       1.6673    XYZ       0.0231
       YYZ       0.6499    XZZ       0.9485    YZZ       0.3588
       ZZZ       4.1003
    Hexadecapole Moments (Debye-Ang^3)
      XXXX     -23.9358   XXXY      -1.4806   XXYY      -7.0772
      XYYY      -1.6700   YYYY     -16.4490   XXXZ      -8.2113
      XXYZ      -0.9746   XYYZ      -2.8682   YYYZ      -2.6579
      XXZZ     -11.9889   XYZZ      -0.6261   YYZZ      -9.9029
      XZZZ      -8.5273   YZZZ      -3.1141   ZZZZ     -45.9361
 -----------------------------------------------------------------
 Calculating analytic gradient of the SCF energy
 Gradient of SCF Energy
            1           2           3           4           5
    1  -0.0050127   0.0048802   0.0000819   0.0001059  -0.0000553
    2  -0.0017343   0.0018618  -0.0000229  -0.0000115  -0.0000931
    3  -0.0091031   0.0090667  -0.0000836   0.0001368  -0.0000168
 Max gradient component =       9.103E-03
 RMS gradient           =       3.834E-03
 Gradient time:  CPU 4.70 s  wall 0.63 s
 Geometry Optimization Parameters
   NAtoms,    NIC,     NZ,  NCons,   NDum,   NFix, NCnnct, MaxDiis
        5      50       0       1       0       0       0       0


** CONSTRAINED OPTIMIZATION IN DELOCALIZED INTERNAL COORDINATES **
   Searching for a Minimum

   Optimization Cycle:   1

                       Coordinates (Angstroms)
     ATOM                X               Y               Z
      1  H         0.9426630000    0.3150080000    1.7002360000
      2  C        -0.2555740000   -0.0824950000   -0.4575920000
      3  H         0.1859440000    0.8513590000   -0.7801160000
      4  H         0.2819320000   -1.0099650000   -0.6066500000
      5  H        -1.1550680000   -0.0740050000    0.1439210000
   Point Group: c1    Number of degrees of freedom:     9


   Energy is    -40.335601378

              Constraints and their Current Values
                                        Value     Constraint
   Distance(Angs):        1   2             2.500000     2.400000

 Attempting to Generate Delocalized Internal Coordinates

   Using Lagrange Multiplier Algorithm


 10 Hessian modes will be used to form the next step
  Hessian Eigenvalues:
    -0.989681    0.052760    0.055801    0.055911    0.078275    0.078326
     0.297902    0.302058    0.309285    1.010426

 Minimum Search - Taking P-RFO Step
 Searching for Lamda that Maximizes Along the Constraint modes Only
 Value Taken    Lamda =   0.01989514
 Searching for Lamda that Minimizes Along All other modes
 Value Taken    Lamda =  -0.01534124
 Step Taken.  Stepsize is  0.185679

                             Maximum     Tolerance    Cnvgd?
         Gradient            0.188973       0.000300      NO
         Displacement        0.185669       0.001200      NO
         Energy change     *********       0.000001      NO


 New Cartesian Coordinates Obtained by Inverse Iteration

 Displacement from previous Coordinates is:  0.143625
 ----------------------------------------------------------------
             Standard Nuclear Orientation (Angstroms)
    I     Atom           X                Y                Z
 ----------------------------------------------------------------
    1      H       0.9132249617     0.3052251224     1.6472106618
    2      C      -0.2383181261    -0.0760543997    -0.4257031930
    3      H       0.1941604657     0.8629617816    -0.7768833898
    4      H       0.2919841008    -1.0198683901    -0.6018580157
    5      H      -1.1611544021    -0.0723621141     0.1570329368
 ----------------------------------------------------------------
 Nuclear Repulsion Energy =    11.4788284949 hartrees
 There are        6 alpha and        4 beta electrons

                       Distance Matrix (Angstroms)
             H (  1)   C (  2)   H (  3)   H (  4)
   C (  2)  2.401749
   H (  3)  2.589277  1.091841
   H (  4)  2.683304  1.096830  1.893476
   H (  5)  2.581909  1.091431  1.893121  1.893488
 
 Applying Cartesian multipole field
    Component          Value
    ---------          -----
     (2,0,0)        1.00000E-10
     (0,2,0)        2.00000E-10
     (0,0,2)       -3.00000E-11
 Nucleus-field energy     =     0.0000000018 hartrees
 Requested basis set is 6-31G(d,p)
 There are 16 shells and 35 basis functions
 A cutoff of  1.0D-14 yielded    136 shell pairs
 There are       669 function pairs
 Smallest overlap matrix eigenvalue = 2.74E-02
 Guess from superposition of atomic densities
 Warning:  Energy on first SCF cycle will be non-variational
 SAD guess density has 10.000000 electrons

 -----------------------------------------------------------------------
  General SCF calculation program by
  Eric Jon Sundstrom, Paul Horn, Yuezhi Mao, Dmitri Zuev, Alec White,
  David Stuck, Shaama M.S., Shane Yost, Joonho Lee, David Small,
  Daniel Levine, Susi Lehtola, Hugh Burton, Evgeny Epifanovsky
 -----------------------------------------------------------------------
 Exchange:     0.2000 Hartree-Fock + 0.0800 Slater + 0.7200 B88
 Correlation:  0.1900 VWN1RPA + 0.8100 LYP
 Using SG-1 standard quadrature grid
 using 12 threads for integral computing
 -------------------------------------------------------
 OpenMP Integral computing Module                
 Release: version 1.0, May 2013, Q-Chem Inc. Pittsburgh 
 -------------------------------------------------------
 -------------------------------------------------------
 OpenMP BLAS3 based DFT computing Module                
 Release: version 1.0, May 2013, Q-Chem Inc. Pittsburgh 
 -------------------------------------------------------
 A unrestricted SCF calculation will be
 performed using DIIS
 SCF converges when DIIS error is below 1.0e-06
 Alpha HF Exchange    Energy =  -0.61595946694135
 Beta HF Exchange     Energy =  -0.61595946694135
 DFT Correlation      Energy =  -0.36737794162864
 DFT Exchange         Energy =  -4.95034276357667
 One-Electron (alpha) Energy = -37.36710043414217
 One-Electron (beta)  Energy = -37.36710043414217
 Total Coulomb        Energy =  29.61292762575835
 ---------------------------------------
  Cycle       Energy         DIIS error
 ---------------------------------------
    1     -40.1920843849      3.76e-02  
 Alpha HF Exchange    Energy =  -0.73729828864767
 Beta HF Exchange     Energy =  -0.58588938905822
 DFT Correlation      Energy =  -0.35689814301440
 DFT Exchange         Energy =  -5.23063385829652
 One-Electron (alpha) Energy = -41.95297995729651
 One-Electron (beta)  Energy = -34.63162948106942
 Total Coulomb        Energy =  31.71234083242683
    2     -40.3041597883      6.30e-03  
 Alpha HF Exchange    Energy =  -0.71816606766910
 Beta HF Exchange     Energy =  -0.57074682102381
 DFT Correlation      Energy =  -0.34707725257348
 DFT Exchange         Energy =  -5.08895245409159
 One-Electron (alpha) Energy = -41.15159466557672
 One-Electron (beta)  Energy = -33.93349917807796
 Total Coulomb        Energy =  30.01831047350224
    3     -40.3128974688      5.47e-03  
 Alpha HF Exchange    Energy =  -0.72952779408787
 Beta HF Exchange     Energy =  -0.57721362281627
 DFT Correlation      Energy =  -0.35133654808478
 DFT Exchange         Energy =  -5.16200445680279
 One-Electron (alpha) Energy = -41.58942812466036
 One-Electron (beta)  Energy = -34.23117840844751
 Total Coulomb        Energy =  30.82886781420875
    4     -40.3329926440      2.21e-04  
 Alpha HF Exchange    Energy =  -0.72982205438689
 Beta HF Exchange     Energy =  -0.57691323905806
 DFT Correlation      Energy =  -0.35112132685894
 DFT Exchange         Energy =  -5.16182435429179
 One-Electron (alpha) Energy = -41.60060825932425
 One-Electron (beta)  Energy = -34.20732881905504
 Total Coulomb        Energy =  30.81573232797923
    5     -40.3330572283      5.42e-05  
 Alpha HF Exchange    Energy =  -0.72995231221626
 Beta HF Exchange     Energy =  -0.57679295780902
 DFT Correlation      Energy =  -0.35107187814128
 DFT Exchange         Energy =  -5.16182661460105
 One-Electron (alpha) Energy = -41.60723380672144
 One-Electron (beta)  Energy = -34.19938176342431
 Total Coulomb        Energy =  30.81436804056205
    6     -40.3330627957      1.21e-05  
 Alpha HF Exchange    Energy =  -0.72998300045457
 Beta HF Exchange     Energy =  -0.57677696540472
 DFT Correlation      Energy =  -0.35106619675854
 DFT Exchange         Energy =  -5.16188029461737
 One-Electron (alpha) Energy = -41.60865120417989
 One-Electron (beta)  Energy = -34.19812230070074
 Total Coulomb        Energy =  30.81458845405020
    7     -40.3330630114      3.03e-06  
 Alpha HF Exchange    Energy =  -0.72998828319677
 Beta HF Exchange     Energy =  -0.57677436421999
 DFT Correlation      Energy =  -0.35106566185982
 DFT Exchange         Energy =  -5.16189070194717
 One-Electron (alpha) Energy = -41.60889950639280
 One-Electron (beta)  Energy = -34.19793699362943
 Total Coulomb        Energy =  30.81466399360845
    8     -40.3330630209      2.90e-07  Convergence criterion met
 ---------------------------------------
 SCF time:   CPU 13.64s  wall 1.00s 
<S^2> =          2.003926385
 Alpha HF Exchange    Energy =  -0.72998828319677
 Beta HF Exchange     Energy =  -0.57677436421999
 DFT Correlation      Energy =  -0.35106566185982
 DFT Exchange         Energy =  -5.16189070194717
 One-Electron (alpha) Energy = -41.60889950639280
 One-Electron (beta)  Energy = -34.19793699362943
 Total Coulomb        Energy =  30.81466399360845
 Nuclear repulsion Energy =  11.47882849669069
 SCF   energy in the final basis set =      -40.3330630209
 Total energy in the final basis set =      -40.3330630209
 
 --------------------------------------------------------------
 
                    Orbital Energies (a.u.)
 --------------------------------------------------------------
 
 Alpha MOs
 -- Occupied --
-10.192  -0.680  -0.414  -0.413  -0.322  -0.205
 -- Virtual --
  0.110   0.178   0.179   0.541   0.541   0.559   0.657   0.830
  0.881   0.884   0.938   1.435   1.437   1.888   1.891   1.928
  1.975   1.975   2.005   2.048   2.325   2.540   2.547   2.693
  2.695   3.222   3.430   3.430   4.305
 
 Beta MOs
 -- Occupied --
-10.177  -0.637  -0.404  -0.402
 -- Virtual --
 -0.087   0.019   0.127   0.183   0.184   0.548   0.548   0.636
  0.730   0.884   0.887   0.968   1.030   1.482   1.484   1.903
  1.905   1.999   2.025   2.208   2.220   2.221   2.392   2.570
  2.576   2.694   2.696   3.230   3.438   3.438   4.343
 --------------------------------------------------------------
 
          Ground-State Mulliken Net Atomic Charges

     Atom                 Charge (a.u.)    Spin (a.u.)
  --------------------------------------------------------
      1 H                    -0.000903       0.999209
      2 C                    -0.368343       1.146128
      3 H                     0.123323      -0.048338
      4 H                     0.122545      -0.048684
      5 H                     0.123377      -0.048315
  --------------------------------------------------------
  Sum of atomic charges =     0.000000
  Sum of spin   charges =     2.000000

 -----------------------------------------------------------------
                    Cartesian Multipole Moments
 -----------------------------------------------------------------
    Charge (ESU x 10^10)
                -0.0000
    Dipole Moment (Debye)
         X       0.0092      Y      -0.0019      Z       0.0109
       Tot       0.0144
    Quadrupole Moments (Debye-Ang)
        XX      -8.8267     XY      -0.1215     YY      -8.3280
        XZ      -0.9073     YZ      -0.2172     ZZ      -9.8251
    Octopole Moments (Debye-Ang^2)
       XXX       1.1773    XXY       0.1109    XYY       1.2112
       YYY       0.4488    XXZ       1.4844    XYZ       0.0025
       YYZ       0.4835    XZZ       0.7615    YZZ       0.3069
       ZZZ       3.5002
    Hexadecapole Moments (Debye-Ang^3)
      XXXX     -23.3875   XXXY      -1.3514   XXYY      -7.0314
      XYYY      -1.5519   YYYY     -16.5941   XXXZ      -7.5881
      XXYZ      -0.9154   XYYZ      -2.6669   YYYZ      -2.4471
      XXZZ     -11.6039   XYZZ      -0.6018   YYZZ      -9.5586
      XZZZ      -7.9629   YZZZ      -2.9539   ZZZZ     -43.9807
 -----------------------------------------------------------------
 Calculating analytic gradient of the SCF energy
 Gradient of SCF Energy
            1           2           3           4           5
    1  -0.0065002   0.0050928   0.0026098   0.0046486  -0.0058510
    2  -0.0022547   0.0054593   0.0056619  -0.0085840  -0.0002823
    3  -0.0118084   0.0134709  -0.0027938  -0.0018791   0.0030105
 Max gradient component =       1.347E-02
 RMS gradient           =       6.392E-03
 Gradient time:  CPU 4.67 s  wall 0.59 s
 Geometry Optimization Parameters
   NAtoms,    NIC,     NZ,  NCons,   NDum,   NFix, NCnnct, MaxDiis
        5      50       0       1       0       0       0       0

 Cartesian Hessian Update
 Hessian Updated using BFGS Update


** CONSTRAINED OPTIMIZATION IN DELOCALIZED INTERNAL COORDINATES **
   Searching for a Minimum

   Optimization Cycle:   2

                       Coordinates (Angstroms)
     ATOM                X               Y               Z
      1  H         0.9132249617    0.3052251224    1.6472106618
      2  C        -0.2383181261   -0.0760543997   -0.4257031930
      3  H         0.1941604657    0.8629617816   -0.7768833898
      4  H         0.2919841008   -1.0198683901   -0.6018580157
      5  H        -1.1611544021   -0.0723621141    0.1570329368
   Point Group: c1    Number of degrees of freedom:     9


   Energy is    -40.333063021

              Constraints and their Current Values
                                        Value     Constraint
   Distance(Angs):        1   2             2.401749     2.400000
 Hessian Updated using BFGS Update

   Using Lagrange Multiplier Algorithm


 10 Hessian modes will be used to form the next step
  Hessian Eigenvalues:
    -0.984519    0.053230    0.055801    0.055919    0.078275    0.078332
     0.299715    0.302076    0.426842    1.020874

 Minimum Search - Taking P-RFO Step
 Searching for Lamda that Maximizes Along the Constraint modes Only
 Value Taken    Lamda =   0.00001749
 Searching for Lamda that Minimizes Along All other modes
 Value Taken    Lamda =  -0.00035300
 Step Taken.  Stepsize is  0.030933

                             Maximum     Tolerance    Cnvgd?
         Gradient            0.011761       0.000300      NO
         Displacement        0.027438       0.001200      NO
         Energy change      0.002538       0.000001      NO


 New Cartesian Coordinates Obtained by Inverse Iteration

 Displacement from previous Coordinates is:  0.024626
 ----------------------------------------------------------------
             Standard Nuclear Orientation (Angstroms)
    I     Atom           X                Y                Z
 ----------------------------------------------------------------
    1      H       0.9122963332     0.3051724866     1.6458359169
    2      C      -0.2376641742    -0.0769362122    -0.4257782843
    3      H       0.1921748782     0.8569048665    -0.7741572248
    4      H       0.2880660084    -1.0125503091    -0.6002827296
    5      H      -1.1549760456    -0.0726888319     0.1541813219
 ----------------------------------------------------------------
 Nuclear Repulsion Energy =    11.5456470040 hartrees
 There are        6 alpha and        4 beta electrons

                       Distance Matrix (Angstroms)
             H (  1)   C (  2)   H (  3)   H (  4)
   C (  2)  2.400000
   H (  3)  2.584444  1.085444
   H (  4)  2.677892  1.087298  1.879971
   H (  5)  2.577097  1.085280  1.881694  1.880140
 
 Applying Cartesian multipole field
    Component          Value
    ---------          -----
     (2,0,0)        1.00000E-10
     (0,2,0)        2.00000E-10
     (0,0,2)       -3.00000E-11
 Nucleus-field energy     =     0.0000000018 hartrees
 Requested basis set is 6-31G(d,p)
 There are 16 shells and 35 basis functions
 A cutoff of  1.0D-14 yielded    136 shell pairs
 There are       669 function pairs
 Smallest overlap matrix eigenvalue = 2.68E-02
 Guess from superposition of atomic densities
 Warning:  Energy on first SCF cycle will be non-variational
 SAD guess density has 10.000000 electrons

 -----------------------------------------------------------------------
  General SCF calculation program by
  Eric Jon Sundstrom, Paul Horn, Yuezhi Mao, Dmitri Zuev, Alec White,
  David Stuck, Shaama M.S., Shane Yost, Joonho Lee, David Small,
  Daniel Levine, Susi Lehtola, Hugh Burton, Evgeny Epifanovsky
 -----------------------------------------------------------------------
 Exchange:     0.2000 Hartree-Fock + 0.0800 Slater + 0.7200 B88
 Correlation:  0.1900 VWN1RPA + 0.8100 LYP
 Using SG-1 standard quadrature grid
 using 12 threads for integral computing
 -------------------------------------------------------
 OpenMP Integral computing Module                
 Release: version 1.0, May 2013, Q-Chem Inc. Pittsburgh 
 -------------------------------------------------------
 -------------------------------------------------------
 OpenMP BLAS3 based DFT computing Module                
 Release: version 1.0, May 2013, Q-Chem Inc. Pittsburgh 
 -------------------------------------------------------
 A unrestricted SCF calculation will be
 performed using DIIS
 SCF converges when DIIS error is below 1.0e-06
 Alpha HF Exchange    Energy =  -0.61720211017827
 Beta HF Exchange     Energy =  -0.61720211017827
 DFT Correlation      Energy =  -0.36765339194552
 DFT Exchange         Energy =  -4.95313994551386
 One-Electron (alpha) Energy = -37.42250110367671
 One-Electron (beta)  Energy = -37.42250110367671
 Total Coulomb        Energy =  29.65430363155356
 ---------------------------------------
  Cycle       Energy         DIIS error
 ---------------------------------------
    1     -40.2002491279      3.82e-02  
 Alpha HF Exchange    Energy =  -0.73843109952558
 Beta HF Exchange     Energy =  -0.58688987273217
 DFT Correlation      Energy =  -0.35732212962732
 DFT Exchange         Energy =  -5.23837995235526
 One-Electron (alpha) Energy = -42.02613836131766
 One-Electron (beta)  Energy = -34.69364209916375
 Total Coulomb        Energy =  31.79152454605185
    2     -40.3036319629      6.39e-03  
 Alpha HF Exchange    Energy =  -0.71890565345168
 Beta HF Exchange     Energy =  -0.57149348652392
 DFT Correlation      Energy =  -0.34742393962838
 DFT Exchange         Energy =  -5.09421585124431
 One-Electron (alpha) Energy = -41.21341766071598
 One-Electron (beta)  Energy = -33.99026170482498
 Total Coulomb        Energy =  30.07723372470394
    3     -40.3128375659      5.51e-03  
 Alpha HF Exchange    Energy =  -0.73037154463646
 Beta HF Exchange     Energy =  -0.57805320295532
 DFT Correlation      Energy =  -0.35170438176130
 DFT Exchange         Energy =  -5.16800987482328
 One-Electron (alpha) Energy = -41.65398043478870
 One-Electron (beta)  Energy = -34.28985262049692
 Total Coulomb        Energy =  30.89314217103002
    4     -40.3331828827      2.17e-04  
 Alpha HF Exchange    Energy =  -0.73066096473225
 Beta HF Exchange     Energy =  -0.57776254451964
 DFT Correlation      Energy =  -0.35149521916234
 DFT Exchange         Energy =  -5.16785418493686
 One-Electron (alpha) Energy = -41.66496592036784
 One-Electron (beta)  Energy = -34.26667483886481
 Total Coulomb        Energy =  30.88052172386596
    5     -40.3332449430      5.32e-05  
 Alpha HF Exchange    Energy =  -0.73078628939964
 Beta HF Exchange     Energy =  -0.57764520709075
 DFT Correlation      Energy =  -0.35144723514225
 DFT Exchange         Energy =  -5.16785021061226
 One-Electron (alpha) Energy = -41.67135449345339
 One-Electron (beta)  Energy = -34.25896293929068
 Total Coulomb        Energy =  30.87914914392105
    6     -40.3332502253      1.18e-05  
 Alpha HF Exchange    Energy =  -0.73081595983317
 Beta HF Exchange     Energy =  -0.57762982359573
 DFT Correlation      Energy =  -0.35144188192845
 DFT Exchange         Energy =  -5.16790249411502
 One-Electron (alpha) Energy = -41.67272019866351
 One-Electron (beta)  Energy = -34.25775539749988
 Total Coulomb        Energy =  30.87936832341637
    7     -40.3332504265      2.95e-06  
 Alpha HF Exchange    Energy =  -0.73082101210921
 Beta HF Exchange     Energy =  -0.57762732335637
 DFT Correlation      Energy =  -0.35144139261230
 DFT Exchange         Energy =  -5.16791240809504
 One-Electron (alpha) Energy = -41.67295655779047
 One-Electron (beta)  Energy = -34.25757943624429
 Total Coulomb        Energy =  30.87944068907936
    8     -40.3332504354      2.83e-07  Convergence criterion met
 ---------------------------------------
 SCF time:   CPU 13.77s  wall 2.00s 
<S^2> =          2.003835145
 Alpha HF Exchange    Energy =  -0.73082101210921
 Beta HF Exchange     Energy =  -0.57762732335637
 DFT Correlation      Energy =  -0.35144139261230
 DFT Exchange         Energy =  -5.16791240809504
 One-Electron (alpha) Energy = -41.67295655779047
 One-Electron (beta)  Energy = -34.25757943624429
 Total Coulomb        Energy =  30.87944068907936
 Nuclear repulsion Energy =  11.54564700575593
 SCF   energy in the final basis set =      -40.3332504354
 Total energy in the final basis set =      -40.3332504354
 
 --------------------------------------------------------------
 
                    Orbital Energies (a.u.)
 --------------------------------------------------------------
 
 Alpha MOs
 -- Occupied --
-10.190  -0.681  -0.415  -0.414  -0.322  -0.205
 -- Virtual --
  0.112   0.180   0.181   0.538   0.539   0.559   0.658   0.830
  0.887   0.888   0.943   1.435   1.436   1.895   1.896   1.934
  1.976   1.976   2.006   2.051   2.330   2.551   2.554   2.709
  2.711   3.241   3.447   3.448   4.306
 
 Beta MOs
 -- Occupied --
-10.175  -0.639  -0.405  -0.404
 -- Virtual --
 -0.088   0.019   0.130   0.185   0.186   0.545   0.546   0.636
  0.731   0.890   0.891   0.972   1.030   1.482   1.483   1.911
  1.911   2.001   2.032   2.212   2.220   2.221   2.395   2.580
  2.584   2.710   2.712   3.249   3.455   3.456   4.344
 --------------------------------------------------------------
 
          Ground-State Mulliken Net Atomic Charges

     Atom                 Charge (a.u.)    Spin (a.u.)
  --------------------------------------------------------
      1 H                    -0.000894       0.999213
      2 C                    -0.369186       1.144925
      3 H                     0.123448      -0.047985
      4 H                     0.123168      -0.048180
      5 H                     0.123464      -0.047973
  --------------------------------------------------------
  Sum of atomic charges =    -0.000000
  Sum of spin   charges =     2.000000

 -----------------------------------------------------------------
                    Cartesian Multipole Moments
 -----------------------------------------------------------------
    Charge (ESU x 10^10)
                 0.0000
    Dipole Moment (Debye)
         X       0.0105      Y      -0.0027      Z       0.0119
       Tot       0.0161
    Quadrupole Moments (Debye-Ang)
        XX      -8.8164     XY      -0.1205     YY      -8.3213
        XZ      -0.9004     YZ      -0.2152     ZZ      -9.8067
    Octopole Moments (Debye-Ang^2)
       XXX       1.1803    XXY       0.1138    XYY       1.1907
       YYY       0.4548    XXZ       1.4699    XYZ       0.0016
       YYZ       0.4919    XZZ       0.7537    YZZ       0.3028
       ZZZ       3.4756
    Hexadecapole Moments (Debye-Ang^3)
      XXXX     -23.2576   XXXY      -1.3634   XXYY      -6.9754
      XYYY      -1.5545   YYYY     -16.4449   XXXZ      -7.5851
      XXYZ      -0.9169   XYYZ      -2.6591   YYYZ      -2.4505
      XXZZ     -11.5572   XYZZ      -0.6066   YYZZ      -9.5182
      XZZZ      -7.9703   YZZZ      -2.9514   ZZZZ     -43.8502
 -----------------------------------------------------------------
 Calculating analytic gradient of the SCF energy
 Gradient of SCF Energy
            1           2           3           4           5
    1  -0.0065222   0.0063579   0.0008756   0.0015912  -0.0023024
    2  -0.0022717   0.0037455   0.0019296  -0.0031262  -0.0002772
    3  -0.0118589   0.0133085  -0.0013790  -0.0008490   0.0007784
 Max gradient component =       1.331E-02
 RMS gradient           =       5.449E-03
 Gradient time:  CPU 4.60 s  wall 0.62 s
 Geometry Optimization Parameters
   NAtoms,    NIC,     NZ,  NCons,   NDum,   NFix, NCnnct, MaxDiis
        5      50       0       1       0       0       0       0

 Cartesian Hessian Update
 Hessian Updated using BFGS Update


** CONSTRAINED OPTIMIZATION IN DELOCALIZED INTERNAL COORDINATES **
   Searching for a Minimum

   Optimization Cycle:   3

                       Coordinates (Angstroms)
     ATOM                X               Y               Z
      1  H         0.9122963332    0.3051724866    1.6458359169
      2  C        -0.2376641742   -0.0769362122   -0.4257782843
      3  H         0.1921748782    0.8569048665   -0.7741572248
      4  H         0.2880660084   -1.0125503091   -0.6002827296
      5  H        -1.1549760456   -0.0726888319    0.1541813219
   Point Group: c1    Number of degrees of freedom:     9


   Energy is    -40.333250435

              Constraints and their Current Values
                                        Value     Constraint
   Distance(Angs):        1   2             2.400000     2.400000
 Hessian Updated using BFGS Update

  8 Hessian modes will be used to form the next step
  Hessian Eigenvalues:
     0.050706    0.055800    0.055931    0.077963    0.078276    0.286046
     0.301990    0.302852

 Minimum Search - Taking Simple RFO Step
 Searching for Lamda that Minimizes Along All modes
 Value Taken    Lamda =  -0.00007900
 Step Taken.  Stepsize is  0.023384

                             Maximum     Tolerance    Cnvgd?
         Gradient           0.004164      0.000300      NO
         Displacement       0.017075      0.001200      NO
         Energy change     -0.000187      0.000001      NO


 New Cartesian Coordinates Obtained by Inverse Iteration

 Displacement from previous Coordinates is:  0.015221
 ----------------------------------------------------------------
             Standard Nuclear Orientation (Angstroms)
    I     Atom           X                Y                Z
 ----------------------------------------------------------------
    1      H       0.9113082692     0.3054077288     1.6447020094
    2      C      -0.2378368751    -0.0779181177    -0.4271397697
    3      H       0.1911881914     0.8534760113    -0.7716055532
    4      H       0.2859358751    -1.0085685936    -0.5993784515
    5      H      -1.1506984606    -0.0724950288     0.1532207650
 ----------------------------------------------------------------
 Nuclear Repulsion Energy =    11.5845233248 hartrees
 There are        6 alpha and        4 beta electrons

                       Distance Matrix (Angstroms)
             H (  1)   C (  2)   H (  3)   H (  4)
   C (  2)  2.400000
   H (  3)  2.580212  1.081764
   H (  4)  2.674607  1.081718  1.872391
   H (  5)  2.572780  1.081741  1.874403  1.872580
 
 Applying Cartesian multipole field
    Component          Value
    ---------          -----
     (2,0,0)        1.00000E-10
     (0,2,0)        2.00000E-10
     (0,0,2)       -3.00000E-11
 Nucleus-field energy     =     0.0000000018 hartrees
 Requested basis set is 6-31G(d,p)
 There are 16 shells and 35 basis functions
 A cutoff of  1.0D-14 yielded    136 shell pairs
 There are       669 function pairs
 Smallest overlap matrix eigenvalue = 2.65E-02
 Guess from superposition of atomic densities
 Warning:  Energy on first SCF cycle will be non-variational
 SAD guess density has 10.000000 electrons

 -----------------------------------------------------------------------
  General SCF calculation program by
  Eric Jon Sundstrom, Paul Horn, Yuezhi Mao, Dmitri Zuev, Alec White,
  David Stuck, Shaama M.S., Shane Yost, Joonho Lee, David Small,
  Daniel Levine, Susi Lehtola, Hugh Burton, Evgeny Epifanovsky
 -----------------------------------------------------------------------
 Exchange:     0.2000 Hartree-Fock + 0.0800 Slater + 0.7200 B88
 Correlation:  0.1900 VWN1RPA + 0.8100 LYP
 Using SG-1 standard quadrature grid
 using 12 threads for integral computing
 -------------------------------------------------------
 OpenMP Integral computing Module                
 Release: version 1.0, May 2013, Q-Chem Inc. Pittsburgh 
 -------------------------------------------------------
 -------------------------------------------------------
 OpenMP BLAS3 based DFT computing Module                
 Release: version 1.0, May 2013, Q-Chem Inc. Pittsburgh 
 -------------------------------------------------------
 A unrestricted SCF calculation will be
 performed using DIIS
 SCF converges when DIIS error is below 1.0e-06
 Alpha HF Exchange    Energy =  -0.61792821448192
 Beta HF Exchange     Energy =  -0.61792821448192
 DFT Correlation      Energy =  -0.36781233641033
 DFT Exchange         Energy =  -4.95477141404056
 One-Electron (alpha) Energy = -37.45458124674425
 One-Electron (beta)  Energy = -37.45458124674425
 Total Coulomb        Energy =  29.67812061315417
 ---------------------------------------
  Cycle       Energy         DIIS error
 ---------------------------------------
    1     -40.2049587332      3.85e-02  
 Alpha HF Exchange    Energy =  -0.73908743108535
 Beta HF Exchange     Energy =  -0.58747435819287
 DFT Correlation      Energy =  -0.35756860525879
 DFT Exchange         Energy =  -5.24288701164694
 One-Electron (alpha) Energy = -42.06831793938264
 One-Electron (beta)  Energy = -34.72980558053772
 Total Coulomb        Energy =  31.83737126641890
    2     -40.3032463332      6.45e-03  
 Alpha HF Exchange    Energy =  -0.71933404436294
 Beta HF Exchange     Energy =  -0.57192861764961
 DFT Correlation      Energy =  -0.34762522294217
 DFT Exchange         Energy =  -5.09727537673106
 One-Electron (alpha) Energy = -41.24895178720853
 One-Electron (beta)  Energy = -34.02338246893236
 Total Coulomb        Energy =  30.11124246236320
    3     -40.3127317289      5.54e-03  
 Alpha HF Exchange    Energy =  -0.73086076310901
 Beta HF Exchange     Energy =  -0.57854346538971
 DFT Correlation      Energy =  -0.35191803176537
 DFT Exchange         Energy =  -5.17150648261450
 One-Electron (alpha) Energy = -41.69110478746889
 One-Electron (beta)  Energy = -34.32410299785727
 Total Coulomb        Energy =  30.93028765775554
    4     -40.3332255439      2.15e-04  
 Alpha HF Exchange    Energy =  -0.73114741500413
 Beta HF Exchange     Energy =  -0.57825845445310
 DFT Correlation      Energy =  -0.35171240440910
 DFT Exchange         Energy =  -5.17136506390559
 One-Electron (alpha) Energy = -41.70197411934519
 One-Electron (beta)  Energy = -34.30132092244880
 Total Coulomb        Energy =  30.91796888624163
    5     -40.3332861668      5.26e-05  
 Alpha HF Exchange    Energy =  -0.73126996756038
 Beta HF Exchange     Energy =  -0.57814273394030
 DFT Correlation      Energy =  -0.35166519136058
 DFT Exchange         Energy =  -5.17135739489241
 One-Electron (alpha) Energy = -41.70823005475466
 One-Electron (beta)  Energy = -34.29373704263926
 Total Coulomb        Energy =  30.91658776961303
    6     -40.3332912890      1.14e-05  
 Alpha HF Exchange    Energy =  -0.73129910223074
 Beta HF Exchange     Energy =  -0.57812777138548
 DFT Correlation      Energy =  -0.35166008152600
 DFT Exchange         Energy =  -5.17140939097349
 One-Electron (alpha) Energy = -41.70956696277786
 One-Electron (beta)  Energy = -34.29256380633208
 Total Coulomb        Energy =  30.91681230954593
    7     -40.3332914792      2.87e-06  
 Alpha HF Exchange    Energy =  -0.73130387265170
 Beta HF Exchange     Energy =  -0.57812537636240
 DFT Correlation      Energy =  -0.35165962581521
 DFT Exchange         Energy =  -5.17141862617342
 One-Electron (alpha) Energy = -41.70979011666243
 One-Electron (beta)  Energy = -34.29239728604794
 Total Coulomb        Energy =  30.91688008974015
    8     -40.3332914875      2.82e-07  Convergence criterion met
 ---------------------------------------
 SCF time:   CPU 13.71s  wall 1.00s 
<S^2> =          2.003781394
 Alpha HF Exchange    Energy =  -0.73130387265170
 Beta HF Exchange     Energy =  -0.57812537636240
 DFT Correlation      Energy =  -0.35165962581521
 DFT Exchange         Energy =  -5.17141862617342
 One-Electron (alpha) Energy = -41.70979011666243
 One-Electron (beta)  Energy = -34.29239728604794
 Total Coulomb        Energy =  30.91688008974015
 Nuclear repulsion Energy =  11.58452332651925
 SCF   energy in the final basis set =      -40.3332914875
 Total energy in the final basis set =      -40.3332914875
 
 --------------------------------------------------------------
 
                    Orbital Energies (a.u.)
 --------------------------------------------------------------
 
 Alpha MOs
 -- Occupied --
-10.189  -0.683  -0.416  -0.416  -0.322  -0.205
 -- Virtual --
  0.114   0.182   0.182   0.537   0.538   0.560   0.658   0.830
  0.890   0.890   0.946   1.434   1.435   1.899   1.899   1.936
  1.976   1.977   2.006   2.054   2.333   2.557   2.558   2.718
  2.720   3.253   3.457   3.459   4.306
 
 Beta MOs
 -- Occupied --
-10.174  -0.640  -0.406  -0.405
 -- Virtual --
 -0.088   0.018   0.131   0.187   0.187   0.544   0.545   0.637
  0.732   0.893   0.894   0.975   1.030   1.482   1.483   1.915
  1.916   2.001   2.035   2.214   2.220   2.221   2.397   2.587
  2.588   2.720   2.721   3.260   3.465   3.467   4.344
 --------------------------------------------------------------
 
          Ground-State Mulliken Net Atomic Charges

     Atom                 Charge (a.u.)    Spin (a.u.)
  --------------------------------------------------------
      1 H                    -0.000886       0.999206
      2 C                    -0.369561       1.144221
      3 H                     0.123465      -0.047775
      4 H                     0.123528      -0.047882
      5 H                     0.123454      -0.047770
  --------------------------------------------------------
  Sum of atomic charges =    -0.000000
  Sum of spin   charges =     2.000000

 -----------------------------------------------------------------
                    Cartesian Multipole Moments
 -----------------------------------------------------------------
    Charge (ESU x 10^10)
                -0.0000
    Dipole Moment (Debye)
         X       0.0136      Y      -0.0025      Z       0.0164
       Tot       0.0215
    Quadrupole Moments (Debye-Ang)
        XX      -8.8122     XY      -0.1213     YY      -8.3165
        XZ      -0.8970     YZ      -0.2130     ZZ      -9.7982
    Octopole Moments (Debye-Ang^2)
       XXX       1.1969    XXY       0.1188    XYY       1.1830
       YYY       0.4642    XXZ       1.4713    XYZ       0.0019
       YYZ       0.5049    XZZ       0.7549    YZZ       0.3020
       ZZZ       3.4913
    Hexadecapole Moments (Debye-Ang^3)
      XXXX     -23.1860   XXXY      -1.3743   XXYY      -6.9430
      XYYY      -1.5589   YYYY     -16.3625   XXXZ      -7.5867
      XXYZ      -0.9200   XYYZ      -2.6558   YYYZ      -2.4595
      XXZZ     -11.5321   XYZZ      -0.6105   YYZZ      -9.5019
      XZZZ      -7.9757   YZZZ      -2.9557   ZZZZ     -43.7986
 -----------------------------------------------------------------
 Calculating analytic gradient of the SCF energy
 Gradient of SCF Energy
            1           2           3           4           5
    1  -0.0065111   0.0071607  -0.0002053  -0.0002609  -0.0001834
    2  -0.0022776   0.0025186  -0.0002435   0.0001965  -0.0001940
    3  -0.0118496   0.0130601  -0.0004817  -0.0001969  -0.0005319
 Max gradient component =       1.306E-02
 RMS gradient           =       5.273E-03
 Gradient time:  CPU 4.65 s  wall 0.62 s
 Geometry Optimization Parameters
   NAtoms,    NIC,     NZ,  NCons,   NDum,   NFix, NCnnct, MaxDiis
        5      50       0       1       0       0       0       0

 Cartesian Hessian Update
 Hessian Updated using BFGS Update


** CONSTRAINED OPTIMIZATION IN DELOCALIZED INTERNAL COORDINATES **
   Searching for a Minimum

   Optimization Cycle:   4

                       Coordinates (Angstroms)
     ATOM                X               Y               Z
      1  H         0.9113082692    0.3054077288    1.6447020094
      2  C        -0.2378368751   -0.0779181177   -0.4271397697
      3  H         0.1911881914    0.8534760113   -0.7716055532
      4  H         0.2859358751   -1.0085685936   -0.5993784515
      5  H        -1.1506984606   -0.0724950288    0.1532207650
   Point Group: c1    Number of degrees of freedom:     9


   Energy is    -40.333291487

              Constraints and their Current Values
                                        Value     Constraint
   Distance(Angs):        1   2             2.400000     2.400000
 Hessian Updated using BFGS Update

  8 Hessian modes will be used to form the next step
  Hessian Eigenvalues:
     0.041070    0.055800    0.055901    0.077274    0.078276    0.298820
     0.302067    0.348582

 Minimum Search - Taking Simple RFO Step
 Searching for Lamda that Minimizes Along All modes
 Value Taken    Lamda =  -0.00000564
 Step Taken.  Stepsize is  0.011101

                             Maximum     Tolerance    Cnvgd?
         Gradient           0.000472      0.000300      NO
         Displacement       0.010548      0.001200      NO
         Energy change     -0.000041      0.000001      NO


 New Cartesian Coordinates Obtained by Inverse Iteration

 Displacement from previous Coordinates is:  0.004578
 ----------------------------------------------------------------
             Standard Nuclear Orientation (Angstroms)
    I     Atom           X                Y                Z
 ----------------------------------------------------------------
    1      H       0.9104848875     0.3056259809     1.6437786678
    2      C      -0.2382637580    -0.0782912979    -0.4281734788
    3      H       0.1914757370     0.8534284235    -0.7704840952
    4      H       0.2860106605    -1.0086786465    -0.5993504860
    5      H      -1.1498105270    -0.0721824600     0.1540283921
 ----------------------------------------------------------------
 Nuclear Repulsion Energy =    11.5861478632 hartrees
 There are        6 alpha and        4 beta electrons

                       Distance Matrix (Angstroms)
             H (  1)   C (  2)   H (  3)   H (  4)
   C (  2)  2.400000
   H (  3)  2.577931  1.081644
   H (  4)  2.673760  1.081566  1.872342
   H (  5)  2.570391  1.081626  1.873640  1.872482
 
 Applying Cartesian multipole field
    Component          Value
    ---------          -----
     (2,0,0)        1.00000E-10
     (0,2,0)        2.00000E-10
     (0,0,2)       -3.00000E-11
 Nucleus-field energy     =     0.0000000018 hartrees
 Requested basis set is 6-31G(d,p)
 There are 16 shells and 35 basis functions
 A cutoff of  1.0D-14 yielded    136 shell pairs
 There are       669 function pairs
 Smallest overlap matrix eigenvalue = 2.65E-02
 Guess from superposition of atomic densities
 Warning:  Energy on first SCF cycle will be non-variational
 SAD guess density has 10.000000 electrons

 -----------------------------------------------------------------------
  General SCF calculation program by
  Eric Jon Sundstrom, Paul Horn, Yuezhi Mao, Dmitri Zuev, Alec White,
  David Stuck, Shaama M.S., Shane Yost, Joonho Lee, David Small,
  Daniel Levine, Susi Lehtola, Hugh Burton, Evgeny Epifanovsky
 -----------------------------------------------------------------------
 Exchange:     0.2000 Hartree-Fock + 0.0800 Slater + 0.7200 B88
 Correlation:  0.1900 VWN1RPA + 0.8100 LYP
 Using SG-1 standard quadrature grid
 using 12 threads for integral computing
 -------------------------------------------------------
 OpenMP Integral computing Module                
 Release: version 1.0, May 2013, Q-Chem Inc. Pittsburgh 
 -------------------------------------------------------
 -------------------------------------------------------
 OpenMP BLAS3 based DFT computing Module                
 Release: version 1.0, May 2013, Q-Chem Inc. Pittsburgh 
 -------------------------------------------------------
 A unrestricted SCF calculation will be
 performed using DIIS
 SCF converges when DIIS error is below 1.0e-06
 Alpha HF Exchange    Energy =  -0.61795377645509
 Beta HF Exchange     Energy =  -0.61795377645509
 DFT Correlation      Energy =  -0.36782065205904
 DFT Exchange         Energy =  -4.95482577900756
 One-Electron (alpha) Energy = -37.45599689224549
 One-Electron (beta)  Energy = -37.45599689224549
 Total Coulomb        Energy =  29.67927570648774
 ---------------------------------------
  Cycle       Energy         DIIS error
 ---------------------------------------
    1     -40.2051241970      3.85e-02  
 Alpha HF Exchange    Energy =  -0.73910616118224
 Beta HF Exchange     Energy =  -0.58749079688518
 DFT Correlation      Energy =  -0.35757845966933
 DFT Exchange         Energy =  -5.24301331290759
 One-Electron (alpha) Energy = -42.07008948642546
 One-Electron (beta)  Energy = -34.73111387929578
 Total Coulomb        Energy =  31.83900650844937
    2     -40.3032377229      6.45e-03  
 Alpha HF Exchange    Energy =  -0.71934896898625
 Beta HF Exchange     Energy =  -0.57194048136902
 DFT Correlation      Energy =  -0.34763390155230
 DFT Exchange         Energy =  -5.09736831568983
 One-Electron (alpha) Energy = -41.25053830111749
 One-Electron (beta)  Energy = -34.02463457847023
 Total Coulomb        Energy =  30.11258437819613
    3     -40.3127323040      5.54e-03  
 Alpha HF Exchange    Energy =  -0.73087698911129
 Beta HF Exchange     Energy =  -0.57855745099749
 DFT Correlation      Energy =  -0.35192684531758
 DFT Exchange         Energy =  -5.17161284847261
 One-Electron (alpha) Energy = -41.69272638821730
 One-Electron (beta)  Energy = -34.32539326277682
 Total Coulomb        Energy =  30.93171492210237
    4     -40.3332309978      2.15e-04  
 Alpha HF Exchange    Energy =  -0.73116353595521
 Beta HF Exchange     Energy =  -0.57827264864403
 DFT Correlation      Energy =  -0.35172132384662
 DFT Exchange         Energy =  -5.17147187469969
 One-Electron (alpha) Energy = -41.70358641914942
 One-Electron (beta)  Energy = -34.30263009681754
 Total Coulomb        Energy =  30.91940645258516
    5     -40.3332915815      5.26e-05  
 Alpha HF Exchange    Energy =  -0.73128602367413
 Beta HF Exchange     Energy =  -0.57815693554364
 DFT Correlation      Energy =  -0.35167409187593
 DFT Exchange         Energy =  -5.17146397002394
 One-Electron (alpha) Energy = -41.70983917045649
 One-Electron (beta)  Energy = -34.29504662338170
 Total Coulomb        Energy =  30.91802225209597
    6     -40.3332966979      1.13e-05  
 Alpha HF Exchange    Energy =  -0.73131518055279
 Beta HF Exchange     Energy =  -0.57814204073298
 DFT Correlation      Energy =  -0.35166903432915
 DFT Exchange         Energy =  -5.17151635959551
 One-Electron (alpha) Energy = -41.71117590430508
 One-Electron (beta)  Energy = -34.29387799025996
 Total Coulomb        Energy =  30.91825175932093
    7     -40.3332968854      2.85e-06  
 Alpha HF Exchange    Energy =  -0.73131982013426
 Beta HF Exchange     Energy =  -0.57813968766023
 DFT Correlation      Energy =  -0.35166858635747
 DFT Exchange         Energy =  -5.17152525152427
 One-Electron (alpha) Energy = -41.71139345686656
 One-Electron (beta)  Energy = -34.29371510800017
 Total Coulomb        Energy =  30.91831715201545
    8     -40.3332968935      2.83e-07  Convergence criterion met
 ---------------------------------------
 SCF time:   CPU 13.84s  wall 1.00s 
<S^2> =          2.003778116
 Alpha HF Exchange    Energy =  -0.73131982013426
 Beta HF Exchange     Energy =  -0.57813968766023
 DFT Correlation      Energy =  -0.35166858635747
 DFT Exchange         Energy =  -5.17152525152427
 One-Electron (alpha) Energy = -41.71139345686656
 One-Electron (beta)  Energy = -34.29371510800017
 Total Coulomb        Energy =  30.91831715201545
 Nuclear repulsion Energy =  11.58614786500875
 SCF   energy in the final basis set =      -40.3332968935
 Total energy in the final basis set =      -40.3332968935
 
 --------------------------------------------------------------
 
                    Orbital Energies (a.u.)
 --------------------------------------------------------------
 
 Alpha MOs
 -- Occupied --
-10.189  -0.683  -0.416  -0.416  -0.322  -0.205
 -- Virtual --
  0.114   0.182   0.182   0.537   0.537   0.560   0.658   0.830
  0.890   0.890   0.946   1.434   1.435   1.899   1.899   1.936
  1.976   1.977   2.006   2.054   2.333   2.557   2.557   2.719
  2.721   3.253   3.458   3.459   4.306
 
 Beta MOs
 -- Occupied --
-10.174  -0.640  -0.406  -0.405
 -- Virtual --
 -0.088   0.018   0.131   0.187   0.187   0.544   0.545   0.637
  0.733   0.893   0.894   0.975   1.030   1.482   1.483   1.915
  1.916   2.001   2.035   2.215   2.220   2.221   2.397   2.586
  2.587   2.721   2.722   3.260   3.466   3.467   4.344
 --------------------------------------------------------------
 
          Ground-State Mulliken Net Atomic Charges

     Atom                 Charge (a.u.)    Spin (a.u.)
  --------------------------------------------------------
      1 H                    -0.000890       0.999199
      2 C                    -0.369529       1.144179
      3 H                     0.123440      -0.047759
      4 H                     0.123553      -0.047864
      5 H                     0.123426      -0.047755
  --------------------------------------------------------
  Sum of atomic charges =     0.000000
  Sum of spin   charges =     2.000000

 -----------------------------------------------------------------
                    Cartesian Multipole Moments
 -----------------------------------------------------------------
    Charge (ESU x 10^10)
                 0.0000
    Dipole Moment (Debye)
         X       0.0156      Y      -0.0021      Z       0.0199
       Tot       0.0254
    Quadrupole Moments (Debye-Ang)
        XX      -8.8140     XY      -0.1222     YY      -8.3157
        XZ      -0.8980     YZ      -0.2122     ZZ      -9.8004
    Octopole Moments (Debye-Ang^2)
       XXX       1.2102    XXY       0.1215    XYY       1.1863
       YYY       0.4690    XXZ       1.4791    XYZ       0.0024
       YYZ       0.5119    XZZ       0.7590    YZZ       0.3025
       ZZZ       3.5150
    Hexadecapole Moments (Debye-Ang^3)
      XXXX     -23.1802   XXXY      -1.3773   XXYY      -6.9407
      XYYY      -1.5608   YYYY     -16.3632   XXXZ      -7.5840
      XXYZ      -0.9219   XYYZ      -2.6547   YYYZ      -2.4648
      XXZZ     -11.5288   XYZZ      -0.6116   YYZZ      -9.5046
      XZZZ      -7.9719   YZZZ      -2.9602   ZZZZ     -43.8006
 -----------------------------------------------------------------
 Calculating analytic gradient of the SCF energy
 Gradient of SCF Energy
            1           2           3           4           5
    1  -0.0065042   0.0071778  -0.0002793  -0.0002986  -0.0000958
    2  -0.0022799   0.0024204  -0.0002888   0.0002801  -0.0001318
    3  -0.0118423   0.0129708  -0.0004046  -0.0001586  -0.0005653
 Max gradient component =       1.297E-02
 RMS gradient           =       5.255E-03
 Gradient time:  CPU 4.61 s  wall 0.61 s
 Geometry Optimization Parameters
   NAtoms,    NIC,     NZ,  NCons,   NDum,   NFix, NCnnct, MaxDiis
        5      50       0       1       0       0       0       0

 Cartesian Hessian Update
 Hessian Updated using BFGS Update


** CONSTRAINED OPTIMIZATION IN DELOCALIZED INTERNAL COORDINATES **
   Searching for a Minimum

   Optimization Cycle:   5

                       Coordinates (Angstroms)
     ATOM                X               Y               Z
      1  H         0.9104848875    0.3056259809    1.6437786678
      2  C        -0.2382637580   -0.0782912979   -0.4281734788
      3  H         0.1914757370    0.8534284235   -0.7704840952
      4  H         0.2860106605   -1.0086786465   -0.5993504860
      5  H        -1.1498105270   -0.0721824600    0.1540283921
   Point Group: c1    Number of degrees of freedom:     9


   Energy is    -40.333296894

              Constraints and their Current Values
                                        Value     Constraint
   Distance(Angs):        1   2             2.400000     2.400000
 Hessian Updated using BFGS Update

  8 Hessian modes will be used to form the next step
  Hessian Eigenvalues:
     0.003046    0.055800    0.055988    0.078275    0.081678    0.298168
     0.302064    0.359262

 Minimum Search - Taking Simple RFO Step
 Searching for Lamda that Minimizes Along All modes
 Value Taken    Lamda =  -0.00007569
 Step Taken.  Stepsize is  0.154974

                             Maximum     Tolerance    Cnvgd?
         Gradient           0.000525      0.000300      NO
         Displacement       0.147023      0.001200      NO
         Energy change     -0.000005      0.000001      NO


 New Cartesian Coordinates Obtained by Inverse Iteration

 Displacement from previous Coordinates is:  0.064550
 ----------------------------------------------------------------
             Standard Nuclear Orientation (Angstroms)
    I     Atom           X                Y                Z
 ----------------------------------------------------------------
    1      H       0.8985770673     0.3091308045     1.6308164010
    2      C      -0.2447154329    -0.0829179292    -0.4426304092
    3      H       0.1972297149     0.8536413773    -0.7553665112
    4      H       0.2872497399    -1.0111719568    -0.5997861237
    5      H      -1.1384440892    -0.0687802958     0.1667656432
 ----------------------------------------------------------------
 Nuclear Repulsion Energy =    11.5926672659 hartrees
 There are        6 alpha and        4 beta electrons

                       Distance Matrix (Angstroms)
             H (  1)   C (  2)   H (  3)   H (  4)
   C (  2)  2.400000
   H (  3)  2.546026  1.081787
   H (  4)  2.663176  1.081360  1.873456
   H (  5)  2.536871  1.081811  1.866873  1.873047
 
 Applying Cartesian multipole field
    Component          Value
    ---------          -----
     (2,0,0)        1.00000E-10
     (0,2,0)        2.00000E-10
     (0,0,2)       -3.00000E-11
 Nucleus-field energy     =     0.0000000018 hartrees
 Requested basis set is 6-31G(d,p)
 There are 16 shells and 35 basis functions
 A cutoff of  1.0D-14 yielded    136 shell pairs
 There are       669 function pairs
 Smallest overlap matrix eigenvalue = 2.64E-02
 Guess from superposition of atomic densities
 Warning:  Energy on first SCF cycle will be non-variational
 SAD guess density has 10.000000 electrons

 -----------------------------------------------------------------------
  General SCF calculation program by
  Eric Jon Sundstrom, Paul Horn, Yuezhi Mao, Dmitri Zuev, Alec White,
  David Stuck, Shaama M.S., Shane Yost, Joonho Lee, David Small,
  Daniel Levine, Susi Lehtola, Hugh Burton, Evgeny Epifanovsky
 -----------------------------------------------------------------------
 Exchange:     0.2000 Hartree-Fock + 0.0800 Slater + 0.7200 B88
 Correlation:  0.1900 VWN1RPA + 0.8100 LYP
 Using SG-1 standard quadrature grid
 using 12 threads for integral computing
 -------------------------------------------------------
 OpenMP Integral computing Module                
 Release: version 1.0, May 2013, Q-Chem Inc. Pittsburgh 
 -------------------------------------------------------
 -------------------------------------------------------
 OpenMP BLAS3 based DFT computing Module                
 Release: version 1.0, May 2013, Q-Chem Inc. Pittsburgh 
 -------------------------------------------------------
 A unrestricted SCF calculation will be
 performed using DIIS
 SCF converges when DIIS error is below 1.0e-06
 Alpha HF Exchange    Energy =  -0.61800777847099
 Beta HF Exchange     Energy =  -0.61800777847099
 DFT Correlation      Energy =  -0.36787440026184
 DFT Exchange         Energy =  -4.95489447620694
 One-Electron (alpha) Energy = -37.46256099260572
 One-Electron (beta)  Energy = -37.46256099260572
 Total Coulomb        Energy =  29.68576015352292
 ---------------------------------------
  Cycle       Energy         DIIS error
 ---------------------------------------
    1     -40.2054789974      3.85e-02  
 Alpha HF Exchange    Energy =  -0.73908604062995
 Beta HF Exchange     Energy =  -0.58746219219401
 DFT Correlation      Energy =  -0.35760777471967
 DFT Exchange         Energy =  -5.24281323610427
 One-Electron (alpha) Energy = -42.07697794766703
 One-Electron (beta)  Energy = -34.73399743263685
 Total Coulomb        Energy =  31.84200556761130
    2     -40.3032717886      6.45e-03  
 Alpha HF Exchange    Energy =  -0.71938985311120
 Beta HF Exchange     Energy =  -0.57191456130098
 DFT Correlation      Energy =  -0.34766648087552
 DFT Exchange         Energy =  -5.09738982104206
 One-Electron (alpha) Energy = -41.25789241377471
 One-Electron (beta)  Energy = -34.02819751074119
 Total Coulomb        Energy =  30.11701155265867
    3     -40.3127718205      5.54e-03  
 Alpha HF Exchange    Energy =  -0.73090485138337
 Beta HF Exchange     Energy =  -0.57853818516868
 DFT Correlation      Energy =  -0.35195504262362
 DFT Exchange         Energy =  -5.17161980655189
 One-Electron (alpha) Energy = -41.69977757272009
 One-Electron (beta)  Energy = -34.32902652185112
 Total Coulomb        Energy =  30.93588344960200
    4     -40.3332712630      2.15e-04  
 Alpha HF Exchange    Energy =  -0.73119039462200
 Beta HF Exchange     Energy =  -0.57825447912135
 DFT Correlation      Energy =  -0.35174900361728
 DFT Exchange         Energy =  -5.17147814040202
 One-Electron (alpha) Energy = -41.71050974989105
 One-Electron (beta)  Energy = -34.30638245916423
 Total Coulomb        Energy =  30.92356496240977
    5     -40.3333319967      5.20e-05  
 Alpha HF Exchange    Energy =  -0.73131273031676
 Beta HF Exchange     Energy =  -0.57813857780861
 DFT Correlation      Energy =  -0.35170129042121
 DFT Exchange         Energy =  -5.17146846902612
 One-Electron (alpha) Energy = -41.71674909393867
 One-Electron (beta)  Energy = -34.29878208918385
 Total Coulomb        Energy =  30.92214789117388
    6     -40.3333370918      9.88e-06  
 Alpha HF Exchange    Energy =  -0.73134281656038
 Beta HF Exchange     Energy =  -0.57812426163861
 DFT Correlation      Energy =  -0.35169675525225
 DFT Exchange         Energy =  -5.17152727201363
 One-Electron (alpha) Energy = -41.71811682310189
 One-Electron (beta)  Energy = -34.29764412291082
 Total Coulomb        Energy =  30.92244752955848
    7     -40.3333372542      2.23e-06  
 Alpha HF Exchange    Energy =  -0.73134553595814
 Beta HF Exchange     Energy =  -0.57812245731043
 DFT Correlation      Energy =  -0.35169639997908
 DFT Exchange         Energy =  -5.17153083922699
 One-Electron (alpha) Energy = -41.71825291158022
 One-Electron (beta)  Energy = -34.29753174934231
 Total Coulomb        Energy =  30.92247536683834
    8     -40.3333372589      3.20e-07  Convergence criterion met
 ---------------------------------------
 SCF time:   CPU 13.85s  wall 1.00s 
<S^2> =          2.003741107
 Alpha HF Exchange    Energy =  -0.73134553595814
 Beta HF Exchange     Energy =  -0.57812245731043
 DFT Correlation      Energy =  -0.35169639997908
 DFT Exchange         Energy =  -5.17153083922699
 One-Electron (alpha) Energy = -41.71825291158022
 One-Electron (beta)  Energy = -34.29753174934231
 Total Coulomb        Energy =  30.92247536683834
 Nuclear repulsion Energy =  11.59266726769606
 SCF   energy in the final basis set =      -40.3333372589
 Total energy in the final basis set =      -40.3333372589
 
 --------------------------------------------------------------
 
                    Orbital Energies (a.u.)
 --------------------------------------------------------------
 
 Alpha MOs
 -- Occupied --
-10.189  -0.683  -0.416  -0.415  -0.323  -0.206
 -- Virtual --
  0.114   0.181   0.182   0.536   0.538   0.559   0.660   0.830
  0.888   0.891   0.946   1.433   1.434   1.898   1.903   1.925
  1.976   1.976   2.007   2.063   2.338   2.545   2.550   2.724
  2.731   3.251   3.454   3.459   4.304
 
 Beta MOs
 -- Occupied --
-10.174  -0.641  -0.406  -0.405
 -- Virtual --
 -0.088   0.017   0.131   0.186   0.187   0.543   0.545   0.637
  0.735   0.892   0.894   0.974   1.030   1.480   1.481   1.916
  1.921   2.002   2.024   2.218   2.219   2.224   2.400   2.574
  2.579   2.727   2.733   3.259   3.462   3.467   4.342
 --------------------------------------------------------------
 
          Ground-State Mulliken Net Atomic Charges

     Atom                 Charge (a.u.)    Spin (a.u.)
  --------------------------------------------------------
      1 H                    -0.000964       0.999087
      2 C                    -0.368674       1.143468
      3 H                     0.123005      -0.047499
      4 H                     0.123692      -0.047552
      5 H                     0.122941      -0.047504
  --------------------------------------------------------
  Sum of atomic charges =    -0.000000
  Sum of spin   charges =     2.000000

 -----------------------------------------------------------------
                    Cartesian Multipole Moments
 -----------------------------------------------------------------
    Charge (ESU x 10^10)
                -0.0000
    Dipole Moment (Debye)
         X       0.0450      Y       0.0036      Z       0.0682
       Tot       0.0817
    Quadrupole Moments (Debye-Ang)
        XX      -8.8429     XY      -0.1321     YY      -8.3119
        XZ      -0.9138     YZ      -0.2008     ZZ      -9.8348
    Octopole Moments (Debye-Ang^2)
       XXX       1.4039    XXY       0.1547    XYY       1.2379
       YYY       0.5280    XXZ       1.5910    XYZ       0.0071
       YYZ       0.6117    XZZ       0.8201    YZZ       0.3078
       ZZZ       3.8509
    Hexadecapole Moments (Debye-Ang^3)
      XXXX     -23.1310   XXXY      -1.4187   XXYY      -6.9208
      XYYY      -1.5889   YYYY     -16.4124   XXXZ      -7.5449
      XXYZ      -0.9500   XYYZ      -2.6404   YYYZ      -2.5396
      XXZZ     -11.4944   XYZZ      -0.6259   YYZZ      -9.5527
      XZZZ      -7.9164   YZZZ      -3.0247   ZZZZ     -43.8621
 -----------------------------------------------------------------
 Calculating analytic gradient of the SCF energy
 Gradient of SCF Energy
            1           2           3           4           5
    1  -0.0064117   0.0071404  -0.0006527  -0.0001996   0.0001236
    2  -0.0023100   0.0013069   0.0000544   0.0003746   0.0005741
    3  -0.0117432   0.0116406   0.0002389   0.0001808  -0.0003172
 Max gradient component =       1.174E-02
 RMS gradient           =       4.991E-03
 Gradient time:  CPU 4.67 s  wall 0.62 s
 Geometry Optimization Parameters
   NAtoms,    NIC,     NZ,  NCons,   NDum,   NFix, NCnnct, MaxDiis
        5      50       0       1       0       0       0       0

 Cartesian Hessian Update
 Hessian Updated using BFGS Update


** CONSTRAINED OPTIMIZATION IN DELOCALIZED INTERNAL COORDINATES **
   Searching for a Minimum

   Optimization Cycle:   6

                       Coordinates (Angstroms)
     ATOM                X               Y               Z
      1  H         0.8985770673    0.3091308045    1.6308164010
      2  C        -0.2447154329   -0.0829179292   -0.4426304092
      3  H         0.1972297149    0.8536413773   -0.7553665112
      4  H         0.2872497399   -1.0111719568   -0.5997861237
      5  H        -1.1384440892   -0.0687802958    0.1667656432
   Point Group: c1    Number of degrees of freedom:     9


   Energy is    -40.333337259

              Constraints and their Current Values
                                        Value     Constraint
   Distance(Angs):        1   2             2.400000     2.400000
 Hessian Updated using BFGS Update

  8 Hessian modes will be used to form the next step
  Hessian Eigenvalues:
     0.002874    0.055800    0.056146    0.078276    0.086021    0.298104
     0.302064    0.355790

 Minimum Search - Taking Simple RFO Step
 Searching for Lamda that Minimizes Along All modes
 Value Taken    Lamda =  -0.00000475
 Step Taken.  Stepsize is  0.015929

                             Maximum     Tolerance    Cnvgd?
         Gradient           0.000511      0.000300      NO
         Displacement       0.013144      0.001200      NO
         Energy change     -0.000040      0.000001      NO


 New Cartesian Coordinates Obtained by Inverse Iteration

 Displacement from previous Coordinates is:  0.007362
 ----------------------------------------------------------------
             Standard Nuclear Orientation (Angstroms)
    I     Atom           X                Y                Z
 ----------------------------------------------------------------
    1      H       0.8972065050     0.3098663569     1.6296988704
    2      C      -0.2456485545    -0.0828368420    -0.4438652437
    3      H       0.1988987540     0.8535911966    -0.7542602324
    4      H       0.2870164375    -1.0113466899    -0.6004144152
    5      H      -1.1375761421    -0.0693720216     0.1686400209
 ----------------------------------------------------------------
 Nuclear Repulsion Energy =    11.5902902024 hartrees
 There are        6 alpha and        4 beta electrons

                       Distance Matrix (Angstroms)
             H (  1)   C (  2)   H (  3)   H (  4)
   C (  2)  2.400000
   H (  3)  2.542938  1.082065
   H (  4)  2.662957  1.081836  1.873346
   H (  5)  2.533546  1.082072  1.868093  1.873026
 
 Applying Cartesian multipole field
    Component          Value
    ---------          -----
     (2,0,0)        1.00000E-10
     (0,2,0)        2.00000E-10
     (0,0,2)       -3.00000E-11
 Nucleus-field energy     =     0.0000000018 hartrees
 Requested basis set is 6-31G(d,p)
 There are 16 shells and 35 basis functions
 A cutoff of  1.0D-14 yielded    136 shell pairs
 There are       669 function pairs
 Smallest overlap matrix eigenvalue = 2.64E-02
 Guess from superposition of atomic densities
 Warning:  Energy on first SCF cycle will be non-variational
 SAD guess density has 10.000000 electrons

 -----------------------------------------------------------------------
  General SCF calculation program by
  Eric Jon Sundstrom, Paul Horn, Yuezhi Mao, Dmitri Zuev, Alec White,
  David Stuck, Shaama M.S., Shane Yost, Joonho Lee, David Small,
  Daniel Levine, Susi Lehtola, Hugh Burton, Evgeny Epifanovsky
 -----------------------------------------------------------------------
 Exchange:     0.2000 Hartree-Fock + 0.0800 Slater + 0.7200 B88
 Correlation:  0.1900 VWN1RPA + 0.8100 LYP
 Using SG-1 standard quadrature grid
 using 12 threads for integral computing
 -------------------------------------------------------
 OpenMP Integral computing Module                
 Release: version 1.0, May 2013, Q-Chem Inc. Pittsburgh 
 -------------------------------------------------------
 -------------------------------------------------------
 OpenMP BLAS3 based DFT computing Module                
 Release: version 1.0, May 2013, Q-Chem Inc. Pittsburgh 
 -------------------------------------------------------
 A unrestricted SCF calculation will be
 performed using DIIS
 SCF converges when DIIS error is below 1.0e-06
 Alpha HF Exchange    Energy =  -0.61795686242234
 Beta HF Exchange     Energy =  -0.61795686242234
 DFT Correlation      Energy =  -0.36786769621975
 DFT Exchange         Energy =  -4.95477438519735
 One-Electron (alpha) Energy = -37.46072576468040
 One-Electron (beta)  Energy = -37.46072576468040
 Total Coulomb        Energy =  29.68456610689290
 ---------------------------------------
[...]
 Alpha HF Exchange    Energy =  -0.73074185918885
 Beta HF Exchange     Energy =  -0.57675022529063
 DFT Correlation      Energy =  -0.35398641079210
 DFT Exchange         Energy =  -5.16444579859700
 One-Electron (alpha) Energy = -41.76425887037552
 One-Electron (beta)  Energy = -34.29791085289950
 Total Coulomb        Energy =  30.91991295466921
    6     -40.3392288247      9.93e-06  
 Alpha HF Exchange    Energy =  -0.73077369349038
 Beta HF Exchange     Energy =  -0.57673990737501
 DFT Correlation      Energy =  -0.35398342785735
 DFT Exchange         Energy =  -5.16452884414233
 One-Electron (alpha) Energy = -41.76576582157337
 One-Electron (beta)  Energy = -34.29687623108360
 Total Coulomb        Energy =  30.92048668961968
    7     -40.3392289982      1.24e-06  
 Alpha HF Exchange    Energy =  -0.73077631818059
 Beta HF Exchange     Energy =  -0.57673599637675
 DFT Correlation      Energy =  -0.35398355275187
 DFT Exchange         Energy =  -5.16452435660037
 One-Electron (alpha) Energy = -41.76591907033894
 One-Electron (beta)  Energy = -34.29670936721693
 Total Coulomb        Energy =  30.92046742223815
    8     -40.3392290015      2.15e-07  Convergence criterion met
 ---------------------------------------
 SCF time:   CPU 13.51s  wall 1.00s 
<S^2> =          2.003967817
 Alpha HF Exchange    Energy =  -0.73077631818059
 Beta HF Exchange     Energy =  -0.57673599637675
 DFT Correlation      Energy =  -0.35398355275187
 DFT Exchange         Energy =  -5.16452435660037
 One-Electron (alpha) Energy = -41.76591907033894
 One-Electron (beta)  Energy = -34.29670936721693
 Total Coulomb        Energy =  30.92046742223815
 Nuclear repulsion Energy =  11.62895223772539
 SCF   energy in the final basis set =      -40.3392290015
 Total energy in the final basis set =      -40.3392290015
 
 --------------------------------------------------------------
 
                    Orbital Energies (a.u.)
 --------------------------------------------------------------
 
 Alpha MOs
 -- Occupied --
-10.195  -0.687  -0.427  -0.421  -0.298  -0.228
 -- Virtual --
  0.125   0.175   0.177   0.533   0.538   0.581   0.685   0.764
  0.882   0.897   0.951   1.430   1.433   1.856   1.903   1.952
  1.956   1.978   2.007   2.178   2.275   2.551   2.562   2.712
  2.721   3.249   3.450   3.463   4.272
 
 Beta MOs
 -- Occupied --
-10.180  -0.643  -0.410  -0.409
 -- Virtual --
 -0.061  -0.053   0.146   0.180   0.185   0.546   0.606   0.611
  0.715   0.871   0.887   0.965   0.991   1.478   1.482   1.899
  1.910   1.998   2.034   2.162   2.185   2.284   2.329   2.583
  2.592   2.715   2.723   3.257   3.459   3.473   4.309
 --------------------------------------------------------------
 
          Ground-State Mulliken Net Atomic Charges

     Atom                 Charge (a.u.)    Spin (a.u.)
  --------------------------------------------------------
      1 H                    -0.010698       0.977822
      2 C                    -0.362092       1.155148
      3 H                     0.126151      -0.050844
      4 H                     0.120537      -0.031288
      5 H                     0.126102      -0.050837
  --------------------------------------------------------
  Sum of atomic charges =    -0.000000
  Sum of spin   charges =     2.000000

 -----------------------------------------------------------------
                    Cartesian Multipole Moments
 -----------------------------------------------------------------
    Charge (ESU x 10^10)
                 0.0000
    Dipole Moment (Debye)
         X      -0.0404      Y      -0.0820      Z      -0.1414
       Tot       0.1684
    Quadrupole Moments (Debye-Ang)
        XX      -8.9879     XY       0.7177     YY      -9.1648
        XZ      -0.3515     YZ       0.0750     ZZ      -8.6626
    Octopole Moments (Debye-Ang^2)
       XXX       1.0787    XXY       0.6976    XYY       0.1640
       YYY       1.9111    XXZ       1.1817    XYZ      -0.3782
       YYZ       0.5361    XZZ      -0.2793    YZZ      -0.5842
       ZZZ       1.7455
    Hexadecapole Moments (Debye-Ang^3)
      XXXX     -15.8898   XXXY      -3.5913   XXYY      -6.2954
      XYYY      -3.6588   YYYY     -23.2612   XXXZ      -3.7146
      XXYZ      -3.1235   XYYZ      -1.0981   YYYZ      -8.7366
      XXZZ      -9.9552   XYZZ      -0.8921   YYZZ     -10.8459
      XZZZ      -3.2802   YZZZ      -8.1070   ZZZZ     -43.5277
 -----------------------------------------------------------------
 Calculating analytic gradient of the SCF energy
 Gradient of SCF Energy
            1           2           3           4           5
    1  -0.0016549   0.0017216  -0.0001078  -0.0000280   0.0000691
    2  -0.0035272   0.0035679  -0.0000420  -0.0000441   0.0000454
    3  -0.0059887   0.0059097   0.0000859   0.0000714  -0.0000783
 Max gradient component =       5.989E-03
 RMS gradient           =       2.604E-03
 Gradient time:  CPU 4.68 s  wall 0.60 s
 Geometry Optimization Parameters
   NAtoms,    NIC,     NZ,  NCons,   NDum,   NFix, NCnnct, MaxDiis
        5      50       0       1       0       0       0       0

 Cartesian Hessian Update
 Hessian Updated using BFGS Update


** CONSTRAINED OPTIMIZATION IN DELOCALIZED INTERNAL COORDINATES **
   Searching for a Minimum

   Optimization Cycle:  32

                       Coordinates (Angstroms)
     ATOM                X               Y               Z
      1  H         0.4508074410    0.9453817833    1.6131940110
      2  C        -0.1112943266   -0.2344674975   -0.3997637389
      3  H         0.6769041709    0.5059582344   -0.4177914811
      4  H        -0.3602646756   -0.7731055952   -1.3065761632
      5  H        -0.6562556098   -0.4438649251    0.5107363722
   Point Group: c1    Number of degrees of freedom:     9


   Energy is    -40.339229002

              Constraints and their Current Values
                                        Value     Constraint
   Distance(Angs):        1   2             2.400000     2.400000
 Hessian Updated using BFGS Update

  8 Hessian modes will be used to form the next step
  Hessian Eigenvalues:
     0.001272    0.005385    0.046163    0.061988    0.079991    0.262042
     0.321575    0.432306

 Minimum Search - Taking Simple RFO Step
 Searching for Lamda that Minimizes Along All modes
 Value Taken    Lamda =   0.00000000
 Step Taken.  Stepsize is  0.019832

                             Maximum     Tolerance    Cnvgd?
         Gradient           0.000123      0.000300     YES
         Displacement       0.014705      0.001200      NO
         Energy change     -0.000002      0.000001      NO


 New Cartesian Coordinates Obtained by Inverse Iteration

 Displacement from previous Coordinates is:  0.014162
 ----------------------------------------------------------------
             Standard Nuclear Orientation (Angstroms)
    I     Atom           X                Y                Z
 ----------------------------------------------------------------
    1      H       0.4485179689     0.9479248106     1.6125204300
    2      C      -0.1108690626    -0.2349765539    -0.3994020676
    3      H       0.6793454867     0.5033992926    -0.4174895801
    4      H      -0.3628584190    -0.7698797714    -1.3076515951
    5      H      -0.6542389740    -0.4465657778     0.5118218128
 ----------------------------------------------------------------
 Nuclear Repulsion Energy =    11.6277755465 hartrees
 There are        6 alpha and        4 beta electrons

                       Distance Matrix (Angstroms)
             H (  1)   C (  2)   H (  3)   H (  4)
   C (  2)  2.400000
   H (  3)  2.090891  1.081649
   H (  4)  3.483761  1.083761  1.870780
   H (  5)  2.090984  1.081827  1.882684  1.870807
 
 Applying Cartesian multipole field
    Component          Value
    ---------          -----
     (2,0,0)        1.00000E-10
     (0,2,0)        2.00000E-10
     (0,0,2)       -3.00000E-11
 Nucleus-field energy     =     0.0000000015 hartrees
 Requested basis set is 6-31G(d,p)
 There are 16 shells and 35 basis functions
 A cutoff of  1.0D-14 yielded    136 shell pairs
 There are       669 function pairs
 Smallest overlap matrix eigenvalue = 2.68E-02
 Guess from superposition of atomic densities
 Warning:  Energy on first SCF cycle will be non-variational
 SAD guess density has 10.000000 electrons

 -----------------------------------------------------------------------
  General SCF calculation program by
  Eric Jon Sundstrom, Paul Horn, Yuezhi Mao, Dmitri Zuev, Alec White,
  David Stuck, Shaama M.S., Shane Yost, Joonho Lee, David Small,
  Daniel Levine, Susi Lehtola, Hugh Burton, Evgeny Epifanovsky
 -----------------------------------------------------------------------
 Exchange:     0.2000 Hartree-Fock + 0.0800 Slater + 0.7200 B88
 Correlation:  0.1900 VWN1RPA + 0.8100 LYP
 Using SG-1 standard quadrature grid
 using 12 threads for integral computing
 -------------------------------------------------------
 OpenMP Integral computing Module                
 Release: version 1.0, May 2013, Q-Chem Inc. Pittsburgh 
 -------------------------------------------------------
 -------------------------------------------------------
 OpenMP BLAS3 based DFT computing Module                
 Release: version 1.0, May 2013, Q-Chem Inc. Pittsburgh 
 -------------------------------------------------------
 A unrestricted SCF calculation will be
 performed using DIIS
 SCF converges when DIIS error is below 1.0e-06
 Alpha HF Exchange    Energy =  -0.61885048768626
 Beta HF Exchange     Energy =  -0.61885048768626
 DFT Correlation      Energy =  -0.36872994898937
 DFT Exchange         Energy =  -4.95664144993110
 One-Electron (alpha) Energy = -37.49859507164687
 One-Electron (beta)  Energy = -37.49859507164687
 Total Coulomb        Energy =  29.72062138556054
 ---------------------------------------
  Cycle       Energy         DIIS error
 ---------------------------------------
    1     -40.2118655840      3.85e-02  
 Alpha HF Exchange    Energy =  -0.73774542080281
 Beta HF Exchange     Energy =  -0.58528085523919
 DFT Correlation      Energy =  -0.36006279566740
 DFT Exchange         Energy =  -5.23072544744356
 One-Electron (alpha) Energy = -42.12763678413990
 One-Electron (beta)  Energy = -34.70683441045749
 Total Coulomb        Energy =  31.81074973125721
    2     -40.3097604345      6.31e-03  
 Alpha HF Exchange    Energy =  -0.71906354031033
 Beta HF Exchange     Energy =  -0.56964666676115
 DFT Correlation      Energy =  -0.35055407779900
 DFT Exchange         Energy =  -5.08862468453955
 One-Electron (alpha) Energy = -41.31501919262739
 One-Electron (beta)  Energy = -34.01309263729637
 Total Coulomb        Energy =  30.10954547183126
    3     -40.3186797795      5.48e-03  
 Alpha HF Exchange    Energy =  -0.73042604857234
 Beta HF Exchange     Energy =  -0.57698546528291
 DFT Correlation      Energy =  -0.35437588406520
 DFT Exchange         Energy =  -5.16451951738143
 One-Electron (alpha) Energy = -41.75242312349578
 One-Electron (beta)  Energy = -34.32481568113958
 Total Coulomb        Energy =  30.93663392210697
    4     -40.3391362498      2.51e-04  
 Alpha HF Exchange    Energy =  -0.73063347631345
 Beta HF Exchange     Energy =  -0.57682369060743
 DFT Correlation      Energy =  -0.35404906685192
 DFT Exchange         Energy =  -5.16438060828287
 One-Electron (alpha) Energy = -41.75849205248122
 One-Electron (beta)  Energy = -34.30383051196760
 Total Coulomb        Energy =  30.92120994272932
    5     -40.3392239158      5.38e-05  
 Alpha HF Exchange    Energy =  -0.73072748421757
 Beta HF Exchange     Energy =  -0.57673602958642
 DFT Correlation      Energy =  -0.35397981479517
 DFT Exchange         Energy =  -5.16434335447216
 One-Electron (alpha) Energy = -41.76308440169853
 One-Electron (beta)  Energy = -34.29691685393404
 Total Coulomb        Energy =  30.91878314040687
    6     -40.3392292503      9.93e-06  
 Alpha HF Exchange    Energy =  -0.73075929919378
 Beta HF Exchange     Energy =  -0.57672573135688
 DFT Correlation      Energy =  -0.35397683017466
 DFT Exchange         Energy =  -5.16442639723605
 One-Electron (alpha) Energy = -41.76459063251813
 One-Electron (beta)  Energy = -34.29588272391118
 Total Coulomb        Energy =  30.91935664263472
    7     -40.3392294238      1.25e-06  
 Alpha HF Exchange    Energy =  -0.73076193084671
 Beta HF Exchange     Energy =  -0.57672182058192
 DFT Correlation      Energy =  -0.35397695546760
 DFT Exchange         Energy =  -5.16442193990216
 One-Electron (alpha) Energy = -41.76474407569507
 One-Electron (beta)  Energy = -34.29571594791867
 Total Coulomb        Energy =  30.91933769530833
    8     -40.3392294271      2.32e-07  Convergence criterion met
 ---------------------------------------
 SCF time:   CPU 15.74s  wall 2.00s 
<S^2> =          2.003968921
 Alpha HF Exchange    Energy =  -0.73076193084671
 Beta HF Exchange     Energy =  -0.57672182058192
 DFT Correlation      Energy =  -0.35397695546760
 DFT Exchange         Energy =  -5.16442193990216
 One-Electron (alpha) Energy = -41.76474407569507
 One-Electron (beta)  Energy = -34.29571594791867
 Total Coulomb        Energy =  30.91933769530833
 Nuclear repulsion Energy =  11.62777554799274
 SCF   energy in the final basis set =      -40.3392294271
 Total energy in the final basis set =      -40.3392294271
 
 --------------------------------------------------------------
 
                    Orbital Energies (a.u.)
 --------------------------------------------------------------
 
 Alpha MOs
 -- Occupied --
-10.195  -0.686  -0.427  -0.421  -0.298  -0.228
 -- Virtual --
  0.125   0.175   0.177   0.533   0.538   0.581   0.685   0.764
  0.882   0.897   0.951   1.430   1.434   1.856   1.902   1.952
  1.956   1.978   2.007   2.178   2.275   2.551   2.562   2.712
  2.721   3.248   3.450   3.463   4.272
 
 Beta MOs
 -- Occupied --
-10.180  -0.643  -0.410  -0.409
 -- Virtual --
 -0.061  -0.053   0.146   0.180   0.184   0.546   0.606   0.611
  0.715   0.871   0.887   0.965   0.991   1.478   1.482   1.900
  1.909   1.998   2.034   2.163   2.185   2.284   2.329   2.582
  2.592   2.714   2.723   3.256   3.459   3.473   4.309
 --------------------------------------------------------------
 
          Ground-State Mulliken Net Atomic Charges

     Atom                 Charge (a.u.)    Spin (a.u.)
  --------------------------------------------------------
      1 H                    -0.010711       0.977823
      2 C                    -0.362084       1.155145
      3 H                     0.126159      -0.050841
      4 H                     0.120510      -0.031279
      5 H                     0.126126      -0.050848
  --------------------------------------------------------
  Sum of atomic charges =     0.000000
  Sum of spin   charges =     2.000000

 -----------------------------------------------------------------
                    Cartesian Multipole Moments
 -----------------------------------------------------------------
    Charge (ESU x 10^10)
                 0.0000
    Dipole Moment (Debye)
         X      -0.0399      Y      -0.0825      Z      -0.1416
       Tot       0.1686
    Quadrupole Moments (Debye-Ang)
        XX      -8.9854     XY       0.7189     YY      -9.1711
        XZ      -0.3485     YZ       0.0700     ZZ      -8.6592
    Octopole Moments (Debye-Ang^2)
       XXX       1.0796    XXY       0.6988    XYY       0.1613
       YYY       1.9179    XXZ       1.1763    XYZ      -0.3781
       YYZ       0.5419    XZZ      -0.2845    YZZ      -0.5810
       ZZZ       1.7370
    Hexadecapole Moments (Debye-Ang^3)
      XXXX     -15.8788   XXXY      -3.5871   XXYY      -6.2978
      XYYY      -3.6590   YYYY     -23.2977   XXXZ      -3.7005
      XXYZ      -3.1250   XYYZ      -1.0947   YYYZ      -8.7542
      XXZZ      -9.9478   XYZZ      -0.8881   YYZZ     -10.8571
      XZZZ      -3.2588   YZZZ      -8.1211   ZZZZ     -43.5042
 -----------------------------------------------------------------
 Calculating analytic gradient of the SCF energy
 Gradient of SCF Energy
            1           2           3           4           5
    1  -0.0016598   0.0017566  -0.0000505  -0.0000113  -0.0000349
    2  -0.0035196   0.0035761  -0.0000352   0.0000008  -0.0000221
    3  -0.0059862   0.0059159  -0.0000079   0.0000140   0.0000641
 Max gradient component =       5.986E-03
 RMS gradient           =       2.606E-03
 Gradient time:  CPU 4.67 s  wall 0.60 s
 Geometry Optimization Parameters
   NAtoms,    NIC,     NZ,  NCons,   NDum,   NFix, NCnnct, MaxDiis
        5      50       0       1       0       0       0       0

 Cartesian Hessian Update
 Hessian Updated using BFGS Update


** CONSTRAINED OPTIMIZATION IN DELOCALIZED INTERNAL COORDINATES **
   Searching for a Minimum

   Optimization Cycle:  33

                       Coordinates (Angstroms)
     ATOM                X               Y               Z
      1  H         0.4485179689    0.9479248106    1.6125204300
      2  C        -0.1108690626   -0.2349765539   -0.3994020676
      3  H         0.6793454867    0.5033992926   -0.4174895801
      4  H        -0.3628584190   -0.7698797714   -1.3076515951
      5  H        -0.6542389740   -0.4465657778    0.5118218128
   Point Group: c1    Number of degrees of freedom:     9


   Energy is    -40.339229427

              Constraints and their Current Values
                                        Value     Constraint
   Distance(Angs):        1   2             2.400000     2.400000
 Hessian Updated using BFGS Update

  8 Hessian modes will be used to form the next step
  Hessian Eigenvalues:
     0.001203    0.005502    0.047006    0.062239    0.080668    0.262414
     0.325703    0.441135

 Minimum Search - Taking Simple RFO Step
 Searching for Lamda that Minimizes Along All modes
 Value Taken    Lamda =   0.00000000
 Step Taken.  Stepsize is  0.001209

                             Maximum     Tolerance    Cnvgd?
         Gradient           0.000092      0.000300     YES
         Displacement       0.000730      0.001200     YES
         Energy change     -0.000000      0.000001     YES


                       Distance Matrix (Angstroms)
             H (  1)   C (  2)   H (  3)   H (  4)
   C (  2)  2.400000
   H (  3)  2.090891  1.081649
   H (  4)  3.483761  1.083761  1.870780
   H (  5)  2.090984  1.081827  1.882684  1.870807
 
 Final energy is   -40.3392294271111     


 ******************************
 **  OPTIMIZATION CONVERGED  **
 ******************************

                       Coordinates (Angstroms)
     ATOM                X               Y               Z
      1  H         0.4485179689    0.9479248106    1.6125204300
      2  C        -0.1108690626   -0.2349765539   -0.3994020676
      3  H         0.6793454867    0.5033992926   -0.4174895801
      4  H        -0.3628584190   -0.7698797714   -1.3076515951
      5  H        -0.6542389740   -0.4465657778    0.5118218128

Z-matrix Print:
$molecule
0 3
C 
H  1 1.081649
H  1 1.081827 2 120.966721
H  1 1.083761 2 119.523268 3 179.926504 0
H  2 2.090891 1 92.765167 3 0.134055 0
$end

PES scan, value:    2.4000 energy:  -40.3392294271
------- Summary of potential scan: ------ 
    2.4000       -40.3392294271
----------------------------------------- 
Archival summary:
1\1\hpc0243\JobtypUnspecified\ProcedureUnspecified\6-31G**\14(3)\knomura\MonMar1116:29:102019MonMar1116:29:102019\0\\#,JobtypUnspecified,ProcedureUnspecified,6-31G**,\\0,3\C\H,1,1.08165\H,1,1.08183,2,120.967\H,1,1.08376,2,119.523,3,179.927,0\H,2,2.09089,1,92.7652,3,0.134055,0\\\@

 Total job time:  74.41s(wall), 757.24s(cpu) 
 Mon Mar 11 16:29:10 2019

        *************************************************************
        *                                                           *
        *  Thank you very much for using Q-Chem.  Have a nice day.  *
        *                                                           *
        *************************************************************


