
Running Job 1 of 1 halogens/Bromine/03/Br_2_4.xyz.data/inputs/bond_triplet_4.5.in
qchem halogens/Bromine/03/Br_2_4.xyz.data/inputs/bond_triplet_4.5.in_10815.0 /staging/scratch/2868759/qchem10815/ 1
/usr/usc/qchem/5.1.1/exe/qcprog.exe_s halogens/Bromine/03/Br_2_4.xyz.data/inputs/bond_triplet_4.5.in_10815.0 /staging/scratch/2868759/qchem10815/
Check license passed

                  Welcome to Q-Chem
     A Quantum Leap Into The Future Of Chemistry


 Q-Chem 5.1, Q-Chem, Inc., Pleasanton, CA (2018)

 Yihan Shao,  Zhengting Gan,  E. Epifanovsky,  A. T. B. Gilbert,  M. Wormit,  
 J. Kussmann,  A. W. Lange,  A. Behn,  Jia Deng,  Xintian Feng,  D. Ghosh,  
 M. Goldey,  P. R. Horn,  L. D. Jacobson,  I. Kaliman,  T. Kus,  A. Landau,  
 Jie Liu,  E. I. Proynov,  R. M. Richard,  R. P. Steele,  E. J. Sundstrom,  
 H. L. Woodcock III,  P. M. Zimmerman,  D. Zuev,  B. Albrecht,  E. Alguire,  
 S. A. Baeppler,  D. Barton,  Z. Benda,  Y. A. Bernard,  E. J. Berquist,  
 K. B. Bravaya,  H. Burton,  D. Casanova,  Chun-Min Chang,  Yunqing Chen,  
 A. Chien,  K. D. Closser,  M. P. Coons,  S. Coriani,  S. Dasgupta,  
 A. L. Dempwolff,  M. Diedenhofen,  Hainam Do,  R. G. Edgar,  Po-Tung Fang,  
 S. Faraji,  S. Fatehi,  Qingguo Feng,  K. D. Fenk,  J. Fosso-Tande,  
 Qinghui Ge,  A. Ghysels,  G. Gidofalvi,  J. Gomes,  J. Gonthier,  A. Gunina,  
 D. Hait,  M. W. D. Hanson-Heine,  P. H. P. Harbach,  A. W. Hauser,  
 J. E. Herr,  E. G. Hohenstein,  Z. C. Holden,  Kerwin Hui,  B. C. Huynh,  
 T.-C. Jagau,  Hyunjun Ji,  B. Kaduk,  K. Khistyaev,  Jaehoon Kim,  
 P. Klunzinger,  K. Koh,  D. Kosenkov,  L. Koulias,  T. Kowalczyk,  
 C. M. Krauter,  A. Kunitsa,  Ka Un Lao,  A. Laurent,  K. V. Lawler,  
 Joonho Lee,  D. Lefrancois,  S. Lehtola,  D. S. Levine,  Yi-Pei Li,  
 You-Sheng Lin,  Fenglai Liu,  E. Livshits,  A. Luenser,  P. Manohar,  
 E. Mansoor,  S. F. Manzer,  Shan-Ping Mao,  Yuezhi Mao,  N. Mardirossian,  
 A. V. Marenich,  T. Markovich,  L. A. Martinez-Martinez,  S. A. Maurer,  
 N. J. Mayhall,  S. C. McKenzie,  J.-M. Mewes,  A. F. Morrison,  
 J. W. Mullinax,  K. Nanda,  T. S. Nguyen-Beck,  R. Olivares-Amaya,  
 J. A. Parkhill,  T. M. Perrine,  F. Plasser,  P. Pokhilko,  S. Prager,  
 A. Prociuk,  E. Ramos,  D. R. Rehn,  F. Rob,  M. Schneider,  N. Sergueev,  
 S. M. Sharada,  S. Sharma,  D. W. Small,  T. Stauch,  T. Stein,  
 Yu-Chuan Su,  A. J. W. Thom,  A. Tkatchenko,  T. Tsuchimochi,  N. M. Tubman,  
 L. Vogt,  M. L. Vidal,  O. Vydrov,  M. A. Watson,  J. Wenzel,  
 M. de Wergifosse,  T. A. Wesolowski,  A. White,  J. Witte,  A. Yamada,  
 Jun Yang,  K. Yao,  S. Yeganeh,  S. R. Yost,  Zhi-Qiang You,  A. Zech,  
 Igor Ying Zhang,  Xing Zhang,  Yan Zhao,  Ying Zhu,  B. R. Brooks,  
 G. K. L. Chan,  C. J. Cramer,  M. S. Gordon,  W. J. Hehre,  A. Klamt,  
 M. W. Schmidt,  C. D. Sherrill,  D. G. Truhlar,  A. Aspuru-Guzik,  R. Baer,  
 A. T. Bell,  N. A. Besley,  Jeng-Da Chai,  A. E. DePrince, III,  
 R. A. DiStasio Jr.,  A. Dreuw,  B. D. Dunietz,  T. R. Furlani,  
 Chao-Ping Hsu,  Yousung Jung,  Jing Kong,  D. S. Lambrecht,  WanZhen Liang,  
 C. Ochsenfeld,  V. A. Rassolov,  L. V. Slipchenko,  J. E. Subotnik,  
 T. Van Voorhis,  J. M. Herbert,  A. I. Krylov,  P. M. W. Gill,  M. Head-Gordon

 Contributors to earlier versions of Q-Chem not listed above: 
 R. D. Adamson,  B. Austin,  J. Baker,  G. J. O. Beran,  K. Brandhorst,  
 S. T. Brown,  E. F. C. Byrd,  A. K. Chakraborty,  C.-L. Cheng,  
 Siu Hung Chien,  D. M. Chipman,  D. L. Crittenden,  H. Dachsel,  
 R. J. Doerksen,  A. D. Dutoi,  L. Fusti-Molnar,  W. A. Goddard III,  
 A. Golubeva-Zadorozhnaya,  S. R. Gwaltney,  G. Hawkins,  A. Heyden,  
 S. Hirata,  G. Kedziora,  F. J. Keil,  C. Kelley,  Jihan Kim,  R. A. King,  
 R. Z. Khaliullin,  P. P. Korambath,  W. Kurlancheek,  A. M. Lee,  M. S. Lee,  
 S. V. Levchenko,  Ching Yeh Lin,  D. Liotard,  R. C. Lochan,  I. Lotan,  
 P. E. Maslen,  N. Nair,  D. P. O'Neill,  D. Neuhauser,  E. Neuscamman,  
 C. M. Oana,  R. Olson,  B. Peters,  R. Peverati,  P. A. Pieniazek,  
 Y. M. Rhee,  J. Ritchie,  M. A. Rohrdanz,  E. Rosta,  N. J. Russ,  
 H. F. Schaefer III,  N. E. Schultz,  N. Shenvi,  A. C. Simmonett,  A. Sodt,  
 D. Stuck,  K. S. Thanthiriwatte,  V. Vanovschi,  Tao Wang,  A. Warshel,  
 C. F. Williams,  Q. Wu,  X. Xu,  W. Zhang

 Please cite Q-Chem as follows:
 Y. Shao et al., Mol. Phys. 113, 184-215 (2015)
 DOI: 10.1080/00268976.2014.952696

 Q-Chem 5.1.1 for Intel X86 EM64T Linux

 Parts of Q-Chem use Armadillo 8.300.2 (Tropical Shenanigans).
 http://arma.sourceforge.net/

 Q-Chem begins on Thu Mar 14 00:54:09 2019  

Host: 
0

     Scratch files written to /staging/scratch/2868759/qchem10815//
 Aug318 |scratch|qcdevops|jenkins|workspace|build_RNUM 6013   
Processing $rem in /usr/usc/qchem/5.1.1/config/preferences.
 MEM_TOTAL  2000 
Input Ideriv = 2
Curr. Ideriv = -1
Max.  Ideriv = 2

Checking the input file for inconsistencies... 	...done.

--------------------------------------------------------------
User input:
--------------------------------------------------------------

$comment
potential surface scanner
$end

$rem
JOBTYPE  PES_SCAN
UNRESTRICTED TRUE
SYM_IGNORE  TRUE
GEOM_OPT_MAX_CYCLES 400
SCF_MAX_CYCLES 400
METHOD   B3LYP
BASIS   6-31G**
PDB_PRINT 2
SCF_CONVERGENCE 6
THRESH 14
SCF_PRINT 1
$end
$molecule
0 3
Br 1.908104 0.367829 0.489093
Br 0.778576 2.418287 -1.180713
C -0.647032 -1.292194 -0.184275
C -0.018316 -1.554151 0.997522
C -1.739774 -0.306321 -0.364469
H -0.288756 -1.800622 -1.078202
H -0.354280 -1.099889 1.924548
H 0.754594 -2.311474 1.067445
H -2.165003 0.024753 0.585903
H -1.330396 0.578988 -0.878958
H -2.532922 -0.704205 -1.007095
$end
$scan
stre 2 4 4.500000 4.501000 0.100000
$end
--------------------------------------------------------------
 ----------------------------------------------------------------
             Standard Nuclear Orientation (Angstroms)
    I     Atom           X                Y                Z
 ----------------------------------------------------------------
    1      Br      1.9081040000     0.3678290000     0.4890930000
    2      Br      0.7785760000     2.4182870000    -1.1807130000
    3      C      -0.6470320000    -1.2921940000    -0.1842750000
    4      C      -0.0183160000    -1.5541510000     0.9975220000
    5      C      -1.7397740000    -0.3063210000    -0.3644690000
    6      H      -0.2887560000    -1.8006220000    -1.0782020000
    7      H      -0.3542800000    -1.0998890000     1.9245480000
    8      H       0.7545940000    -2.3114740000     1.0674450000
    9      H      -2.1650030000     0.0247530000     0.5859030000
   10      H      -1.3303960000     0.5789880000    -0.8789580000
   11      H      -2.5329220000    -0.7042050000    -1.0070950000
 ----------------------------------------------------------------
 Nuclear Repulsion Energy =   539.3379487079 hartrees
 There are       48 alpha and       46 beta electrons
 Requested basis set is 6-31G(d,p)
 There are 46 shells and 145 basis functions

 Total QAlloc Memory Limit   2000 MB
 Mega-Array Size       188 MB
 MEM_STATIC part       192 MB
A total of 1 constraints
  
            1
    1   1.0100000
    2   2.0100000
    3   4.0100000
    4   4.5000000
    5   4.5010000
    6   0.1000000
    7   0.0000000
    8   0.0000000
    9   0.0000000
   10   0.0000000

                       Distance Matrix (Angstroms)
             Br(  1)   Br(  2)   C (  3)   C (  4)   C (  5)   H (  6)
   Br(  2)  2.875494
   C (  3)  3.120548  4.097916
   C (  4)  2.768321  4.600001  1.364020
   C (  5)  3.806581  3.798925  1.482734  2.524979
   H (  6)  3.461905  4.353033  1.089021  2.107728  2.201773
   H (  7)  3.055014  4.827377  2.137714  1.085635  2.790868  3.084125
   H (  8)  2.973843  5.236929  2.137824  1.084351  3.506122  2.439949
   H (  9)  4.088676  4.185044  2.152152  2.696411  1.092537  3.101861
   H ( 10)  3.521936  2.814576  2.109714  3.129379  1.102752  2.605236
   H ( 11)  4.807343  4.554791  2.139940  3.326280  1.095611  2.498693
             H (  7)   H (  8)   H (  9)   H ( 10)
   H (  8)  1.852610
   H (  9)  2.517043  3.770131
   H ( 10)  3.410436  4.060842  1.774701
   H ( 11)  3.673905  4.206518  1.790080  1.763256
 
 A cutoff of  1.0D-14 yielded    943 shell pairs
 There are      9408 function pairs
 
 -------------------------------------------------------
 OpenMP Integral Computing Module                       
 Release: version 1.0, May 2013, Q-Chem Inc. Pittsburgh 
 -------------------------------------------------------
 Integral Job Info:
 Integral job number is                      11
 Integral operator is                         1
 short-range coefficients                     0
 long-range coefficients              100000000
 Omega coefficients                           0
 if combine SR and LR in K                    0
 Integral screening is                        0
 Integral computing path is                   2
 max size of driver memory is            800000
 size of driver memory is                593474
 size of scratch memory is             15267112
 max col of scratch BK array               1296
 max len of scratch array in speh3          155
 max len of scratch index in speh4           18
 max int batch size is                      520
 min int batch size is                       52
 fixed nKL is                                52
 max L of basis functions is                  2
 order of int derivative is                   0
 number of shells is                         46
 number of basis is                         145
 number of cartesian basis is               145
 number of contracted shell pairs           943
 number of primitive shell pairs           3956
 maxK2 (contraction) of shell pair           36
 max number of K2 of shell pair               1
 max number of CS2 of shell pair             69
 max number of PS2 of shell pair            414
 mem total for path MDJ                  530940
 -------------------------------------------------------
 Smallest overlap matrix eigenvalue = 7.23E-04

 Scale SEOQF with 1.000000e-01/1.000000e-01/1.000000e-01

 Standard Electronic Orientation quadrupole field applied
 Nucleus-field energy     =     0.0000000163 hartrees
 Guess from superposition of atomic densities
 Warning:  Energy on first SCF cycle will be non-variational
 SAD guess density has 93.945746 electrons

 -----------------------------------------------------------------------
  General SCF calculation program by
  Eric Jon Sundstrom, Paul Horn, Yuezhi Mao, Dmitri Zuev, Alec White,
  David Stuck, Shaama M.S., Shane Yost, Joonho Lee, David Small,
  Daniel Levine, Susi Lehtola, Hugh Burton, Evgeny Epifanovsky
 -----------------------------------------------------------------------
 Exchange:     0.2000 Hartree-Fock + 0.0800 Slater + 0.7200 B88
 Correlation:  0.1900 VWN1RPA + 0.8100 LYP
 Using SG-1 standard quadrature grid
 using 12 threads for integral computing
 -------------------------------------------------------
 OpenMP Integral computing Module                
 Release: version 1.0, May 2013, Q-Chem Inc. Pittsburgh 
 -------------------------------------------------------
 -------------------------------------------------------
 OpenMP BLAS3 based DFT computing Module                
 Release: version 1.0, May 2013, Q-Chem Inc. Pittsburgh 
 -------------------------------------------------------
 A unrestricted SCF calculation will be
 performed using DIIS
 SCF converges when DIIS error is below 1.0e-06
 Alpha HF Exchange    Energy = -19.60198655086056
 Beta HF Exchange     Energy = -19.60198655086056
 DFT Correlation      Energy =  -5.19395086839798
 DFT Exchange         Energy = -155.85784835981048
 One-Electron (alpha) Energy = -4195.68444571406235
 One-Electron (beta)  Energy = -4195.68444571406235
 Total Coulomb        Energy = 2779.45346081968773
 ---------------------------------------
  Cycle       Energy         DIIS error
 ---------------------------------------
    1   -5272.8332542142      1.83e-01  
 Alpha HF Exchange    Energy = -19.84137007770507
 Beta HF Exchange     Energy = -19.61653780471424
 DFT Correlation      Energy =  -5.24193038862686
 DFT Exchange         Energy = -157.04994406334706
 One-Electron (alpha) Energy = -4233.68996988568779
 One-Electron (beta)  Energy = -4180.58553028224378
 Total Coulomb        Energy = 2811.20189064353417
    2   -5265.4854431346      1.04e-02  
 Alpha HF Exchange    Energy = -19.69244206006326
 Beta HF Exchange     Energy = -19.47853682242549
 DFT Correlation      Energy =  -5.20498406577653
 DFT Exchange         Energy = -155.92507381255155
 One-Electron (alpha) Energy = -4217.39154098464951
 One-Electron (beta)  Energy = -4161.06968631788823
 Total Coulomb        Energy = 2774.01918017274375
    3   -5265.4051351664      4.64e-03  
 Alpha HF Exchange    Energy = -19.80684422673664
 Beta HF Exchange     Energy = -19.59447658153868
 DFT Correlation      Energy =  -5.22684142054342
 DFT Exchange         Energy = -156.78644304178113
 One-Electron (alpha) Energy = -4230.79222744401250
 One-Electron (beta)  Energy = -4177.56189300041933
 Total Coulomb        Energy = 2805.05091219109545
    4   -5265.3798647998      4.46e-03  
 Alpha HF Exchange    Energy = -19.78249565259928
 Beta HF Exchange     Energy = -19.54825110523715
 DFT Correlation      Energy =  -5.22668505243562
 DFT Exchange         Energy = -156.56334025549742
 One-Electron (alpha) Energy = -4227.73406737474852
 One-Electron (beta)  Energy = -4170.94028594496194
 Total Coulomb        Energy = 2794.85411400606927
    5   -5265.6030626552      1.50e-03  
 Alpha HF Exchange    Energy = -19.76949034292013
 Beta HF Exchange     Energy = -19.53877055460978
 DFT Correlation      Energy =  -5.22235119065266
 DFT Exchange         Energy = -156.45953832297673
 One-Electron (alpha) Energy = -4226.50504413005638
 One-Electron (beta)  Energy = -4170.43673094309725
 Total Coulomb        Energy = 2792.96661210685261
    6   -5265.6273646533      6.28e-04  
 Alpha HF Exchange    Energy = -19.76956243848000
 Beta HF Exchange     Energy = -19.53783248987598
 DFT Correlation      Energy =  -5.22205930065204
 DFT Exchange         Energy = -156.45672023745598
 One-Electron (alpha) Energy = -4226.54326612870955
 One-Electron (beta)  Energy = -4170.44385195819450
 Total Coulomb        Energy = 2793.00123840688821
    7   -5265.6341054223      2.83e-04  
 Alpha HF Exchange    Energy = -19.77041028063324
 Beta HF Exchange     Energy = -19.53878156477735
 DFT Correlation      Energy =  -5.22242399854380
 DFT Exchange         Energy = -156.46316054685590
 One-Electron (alpha) Energy = -4226.55634281007315
 One-Electron (beta)  Energy = -4170.10240773677560
 Total Coulomb        Energy = 2792.68001566297289
    8   -5265.6355625505      9.03e-05  
 Alpha HF Exchange    Energy = -19.77077545804119
 Beta HF Exchange     Energy = -19.53978152168684
 DFT Correlation      Energy =  -5.22233984281654
 DFT Exchange         Energy = -156.46591502144400
 One-Electron (alpha) Energy = -4226.64014545442569
 One-Electron (beta)  Energy = -4170.24750364103602
 Total Coulomb        Energy = 2792.91265888379030
    9   -5265.6358533315      4.54e-05  
 Alpha HF Exchange    Energy = -19.77064322237108
 Beta HF Exchange     Energy = -19.54039195700372
 DFT Correlation      Energy =  -5.22226511321631
 DFT Exchange         Energy = -156.46592055158467
 One-Electron (alpha) Energy = -4226.62545859522743
 One-Electron (beta)  Energy = -4170.22663803037176
 Total Coulomb        Energy = 2792.87738121892562
   10   -5265.6359875267      2.18e-05  
 Alpha HF Exchange    Energy = -19.77059201087598
 Beta HF Exchange     Energy = -19.54067241419060
 DFT Correlation      Energy =  -5.22219564958653
 DFT Exchange         Energy = -156.46604402051344
 One-Electron (alpha) Energy = -4226.62080711850012
 One-Electron (beta)  Energy = -4170.22982045022945
 Total Coulomb        Energy = 2792.87617608453047
   11   -5265.6360068552      7.05e-06  
 Alpha HF Exchange    Energy = -19.77053006788145
 Beta HF Exchange     Energy = -19.54075926606680
 DFT Correlation      Energy =  -5.22218028594475
 DFT Exchange         Energy = -156.46592250705547
 One-Electron (alpha) Energy = -4226.61048087164090
 One-Electron (beta)  Energy = -4170.22501519079105
 Total Coulomb        Energy = 2792.86093069826211
   12   -5265.6360087669      3.39e-06  
 Alpha HF Exchange    Energy = -19.77053184270541
 Beta HF Exchange     Energy = -19.54079311262878
 DFT Correlation      Energy =  -5.22218295006343
 DFT Exchange         Energy = -156.46602223238091
 One-Electron (alpha) Energy = -4226.61038800395363
 One-Electron (beta)  Energy = -4170.22879238624955
 Total Coulomb        Energy = 2792.86475277383124
   13   -5265.6360090300      1.98e-06  
 Alpha HF Exchange    Energy = -19.77053103558056
 Beta HF Exchange     Energy = -19.54080787568498
 DFT Correlation      Energy =  -5.22218303053569
 DFT Exchange         Energy = -156.46606316168334
 One-Electron (alpha) Energy = -4226.61013168847148
 One-Electron (beta)  Energy = -4170.23092963721137
 Total Coulomb        Energy = 2792.86668858073472
   14   -5265.6360091243      6.40e-07  Convergence criterion met
 ---------------------------------------
 SCF time:   CPU 55.38s  wall 4.00s 
<S^2> =          2.005073292
 Alpha HF Exchange    Energy = -19.77053103558056
 Beta HF Exchange     Energy = -19.54080787568498
 DFT Correlation      Energy =  -5.22218303053569
 DFT Exchange         Energy = -156.46606316168334
 One-Electron (alpha) Energy = -4226.61013168847148
 One-Electron (beta)  Energy = -4170.23092963721137
 Total Coulomb        Energy = 2792.86668858073472
 Nuclear repulsion Energy = 539.33794872417798
 SCF   energy in the final basis set =    -5265.6360091243
 Total energy in the final basis set =    -5265.6360091243
 
 --------------------------------------------------------------
 
                    Orbital Energies (a.u.)
 --------------------------------------------------------------
 
 Alpha MOs
 -- Occupied --
*******-482.838 -62.529 -62.496 -56.350 -56.349 -56.346 -56.318
-56.314 -56.313 -10.259 -10.248 -10.211  -8.716  -8.683  -6.544
 -6.539  -6.531  -6.514  -6.502  -6.499  -2.638  -2.638  -2.632
 -2.629  -2.628  -2.606  -2.604  -2.602  -2.593  -2.593  -0.842
 -0.779  -0.737  -0.725  -0.603  -0.514  -0.468  -0.448  -0.409
 -0.394  -0.366  -0.353  -0.307  -0.290  -0.267  -0.264  -0.251
 -- Virtual --
 -0.043   0.078   0.101   0.119   0.147   0.150   0.155   0.215
  0.247   0.262   0.310   0.315   0.338   0.364   0.367   0.386
  0.417   0.457   0.484   0.493   0.511   0.532   0.541   0.567
  0.577   0.585   0.613   0.625   0.633   0.634   0.654   0.678
  0.716   0.749   0.792   0.821   0.856   0.861   0.874   0.899
  0.944   1.049   1.135   1.176   1.257   1.291   1.345   1.436
  1.583   1.738   1.768   1.794   1.808   1.846   1.893   1.966
  2.015   2.045   2.065   2.079   2.135   2.254   2.327   2.336
  2.434   2.453   2.494   2.595   2.614   2.659   2.782   2.828
  2.834   2.952   3.155   3.232   3.374   3.408   3.437   3.597
  4.166   4.357   4.538   4.652   4.685   4.692   4.714   4.735
  4.746   4.750   4.768   4.803   4.892   6.246   6.321  90.175
 90.400
 
 Beta MOs
 -- Occupied --
*******-482.836 -62.528 -62.495 -56.346 -56.346 -56.345 -56.314
-56.312 -56.312 -10.255 -10.246 -10.211  -8.712  -8.680  -6.536
 -6.534  -6.529  -6.506  -6.499  -6.497  -2.632  -2.632  -2.628
 -2.626  -2.625  -2.600  -2.599  -2.597  -2.591  -2.591  -0.831
 -0.744  -0.724  -0.699  -0.598  -0.510  -0.465  -0.440  -0.407
 -0.393  -0.323  -0.310  -0.294  -0.264  -0.256
 -- Virtual --
 -0.185  -0.155  -0.020   0.080   0.102   0.121   0.151   0.152
  0.157   0.223   0.250   0.273   0.315   0.320   0.353   0.370
  0.384   0.400   0.431   0.463   0.492   0.517   0.536   0.550
  0.561   0.584   0.593   0.600   0.626   0.636   0.644   0.658
  0.679   0.695   0.722   0.760   0.794   0.824   0.860   0.864
  0.899   0.901   0.953   1.055   1.141   1.179   1.265   1.295
  1.358   1.442   1.585   1.751   1.775   1.800   1.820   1.854
  1.904   1.972   2.017   2.047   2.068   2.083   2.142   2.256
  2.329   2.340   2.440   2.458   2.501   2.601   2.617   2.662
  2.784   2.830   2.837   2.953   3.157   3.234   3.376   3.410
  3.438   3.599   4.174   4.361   4.543   4.662   4.693   4.703
  4.724   4.739   4.755   4.759   4.775   4.814   4.904   6.260
  6.334  90.180  90.406
 --------------------------------------------------------------
 
          Ground-State Mulliken Net Atomic Charges

     Atom                 Charge (a.u.)    Spin (a.u.)
  --------------------------------------------------------
      1 Br                   -0.102181       0.865901
      2 Br                   -0.223545       0.752369
      3 C                     0.018300       0.269688
      4 C                    -0.220893       0.117463
      5 C                    -0.365163      -0.010934
      6 H                     0.137890      -0.011888
      7 H                     0.150547      -0.005122
      8 H                     0.153851      -0.004601
      9 H                     0.130333       0.001042
     10 H                     0.185083       0.015978
     11 H                     0.135779       0.010104
  --------------------------------------------------------
  Sum of atomic charges =    -0.000000
  Sum of spin   charges =     2.000000

 -----------------------------------------------------------------
                    Cartesian Multipole Moments
 -----------------------------------------------------------------
    Charge (ESU x 10^10)
                -0.0000
    Dipole Moment (Debye)
         X      -2.7639      Y      -4.3912      Z       1.1784
       Tot       5.3208
    Quadrupole Moments (Debye-Ang)
        XX     -56.9774     XY      -2.5434     YY     -59.2446
        XZ       1.7200     YZ       1.4917     ZZ     -56.1077
    Octopole Moments (Debye-Ang^2)
       XXX    -106.3539    XXY     -34.2547    XYY     -35.2935
       YYY    -115.6602    XXZ      10.8050    XYZ       0.6262
       YYZ      13.9698    XZZ     -38.0328    YZZ     -38.7907
       ZZZ      35.9670
    Hexadecapole Moments (Debye-Ang^3)
      XXXX    -689.9856   XXXY    -162.4057   XXYY    -271.5396
      XYYY    -187.5622   YYYY    -923.7845   XXXZ      -9.5121
      XXYZ      62.8841   XYYZ       4.6528   YYYZ     173.9024
      XXZZ    -170.4104   XYZZ     -60.4223   YYZZ    -200.3425
      XZZZ     -15.3905   YZZZ     173.9604   ZZZZ    -315.7671
 -----------------------------------------------------------------
 Calculating analytic gradient of the SCF energy
 Gradient of SCF Energy
            1           2           3           4           5           6
    1  -0.0000894   0.0002514  -0.0000552  -0.0001158  -0.0000133   0.0000433
    2  -0.0001306   0.0003560  -0.0000522  -0.0003771   0.0000077   0.0000761
    3   0.0000136  -0.0000360  -0.0000392   0.0002828   0.0000300  -0.0000411
            7           8           9          10          11
    1  -0.0001282  -0.0000452   0.0000101   0.0001015   0.0000409
    2  -0.0001154   0.0000010   0.0000497   0.0000948   0.0000900
    3   0.0000093   0.0000024  -0.0000514  -0.0000756  -0.0000948
 Max gradient component =       3.771E-04
 RMS gradient           =       1.292E-04
 Gradient time:  CPU 15.33 s  wall 1.37 s
 Geometry Optimization Parameters
   NAtoms,    NIC,     NZ,  NCons,   NDum,   NFix, NCnnct, MaxDiis
       11      81       0       1       0       0       0       0


** CONSTRAINED OPTIMIZATION IN DELOCALIZED INTERNAL COORDINATES **
   Searching for a Minimum

   Optimization Cycle:   1

                       Coordinates (Angstroms)
     ATOM                X               Y               Z
      1  Br        1.9081040000    0.3678290000    0.4890930000
      2  Br        0.7785760000    2.4182870000   -1.1807130000
      3  C        -0.6470320000   -1.2921940000   -0.1842750000
      4  C        -0.0183160000   -1.5541510000    0.9975220000
      5  C        -1.7397740000   -0.3063210000   -0.3644690000
      6  H        -0.2887560000   -1.8006220000   -1.0782020000
      7  H        -0.3542800000   -1.0998890000    1.9245480000
      8  H         0.7545940000   -2.3114740000    1.0674450000
      9  H        -2.1650030000    0.0247530000    0.5859030000
     10  H        -1.3303960000    0.5789880000   -0.8789580000
     11  H        -2.5329220000   -0.7042050000   -1.0070950000
   Point Group: c1    Number of degrees of freedom:    27


   Energy is  -5265.636009124

              Constraints and their Current Values
                                        Value     Constraint
   Distance(Angs):        2   4             4.600001     4.500000

 Attempting to Generate Delocalized Internal Coordinates

   Using Lagrange Multiplier Algorithm


 28 Hessian modes will be used to form the next step
  Hessian Eigenvalues:
    -0.997651    0.025725    0.029958    0.045019    0.045233    0.046523
     0.053065    0.061605    0.071594    0.084303    0.088553    0.091622
     0.093974    0.106159    0.124793    0.130505    0.143407    0.159814
     0.176201    0.308654    0.327751    0.336473    0.341722    0.345211
     0.349260    0.353220    0.507841    1.002354

 Minimum Search - Taking P-RFO Step
 Searching for Lamda that Maximizes Along the Constraint modes Only
 Value Taken    Lamda =   0.01753663
 Searching for Lamda that Minimizes Along All other modes
 Value Taken    Lamda =  -0.01755935
 Step Taken.  Stepsize is  0.185729

                             Maximum     Tolerance    Cnvgd?
         Gradient            0.188974       0.000300      NO
         Displacement        0.185715       0.001200      NO
         Energy change     *********       0.000001      NO


 New Cartesian Coordinates Obtained by Inverse Iteration

 Displacement from previous Coordinates is:  0.199292
 ----------------------------------------------------------------
             Standard Nuclear Orientation (Angstroms)
    I     Atom           X                Y                Z
 ----------------------------------------------------------------
    1      Br      1.9477979814     0.3622623817     0.5152579863
    2      Br      0.7786808827     2.3612833095    -1.1467331931
    3      C      -0.6473419522    -1.2792752014    -0.1948709509
    4      C      -0.0122739458    -1.5256316681     0.9820707828
    5      C      -1.7502660611    -0.3093919644    -0.3667171685
    6      H      -0.2932463312    -1.7927647069    -1.0875676459
    7      H      -0.3520900085    -1.0697280753     1.9068814689
    8      H       0.7606856348    -2.2945000612     1.0569292171
    9      H      -2.1702187760     0.0230017701     0.5855440857
   10      H      -1.3507222868     0.5619298767    -0.8797555309
   11      H      -2.5462101374    -0.7161846607    -1.0002400515
 ----------------------------------------------------------------
 Nuclear Repulsion Energy =   542.2754997311 hartrees
 There are       48 alpha and       46 beta electrons

                       Distance Matrix (Angstroms)
             Br(  1)   Br(  2)   C (  3)   C (  4)   C (  5)   H (  6)
   Br(  2)  2.850462
   C (  3)  3.151774  4.024084
   C (  4)  2.761148  4.501725  1.359851
   C (  5)  3.860658  3.759854  1.478731  2.513779
   H (  6)  3.497924  4.290530  1.089019  2.105637  2.200665
   H (  7)  3.045767  4.730227  2.132709  1.085632  2.775294  3.081066
   H (  8)  2.959904  5.150997  2.140146  1.092808  3.503184  2.441593
   H (  9)  4.132566  4.142989  2.150378  2.685559  1.092542  3.101505
   H ( 10)  3.586944  2.800591  2.086587  3.100928  1.087219  2.589600
   H ( 11)  4.863732  4.532899  2.138081  3.317468  1.095609  2.498499
             H (  7)   H (  8)   H (  9)   H ( 10)
   H (  8)  1.860310
   H (  9)  2.499116  3.766062
   H ( 10)  3.380077  4.045736  1.763270
   H ( 11)  3.659305  4.202212  1.789547  1.754219
 
 Applying Cartesian multipole field
    Component          Value
    ---------          -----
     (2,0,0)        1.00000E-11
     (0,2,0)        2.00000E-11
     (0,0,2)       -3.00000E-11
 Nucleus-field energy     =     0.0000000160 hartrees
 Requested basis set is 6-31G(d,p)
 There are 46 shells and 145 basis functions
 A cutoff of  1.0D-14 yielded    944 shell pairs
 There are      9441 function pairs
 Smallest overlap matrix eigenvalue = 7.23E-04
 Guess from superposition of atomic densities
 Warning:  Energy on first SCF cycle will be non-variational
 SAD guess density has 93.945746 electrons

 -----------------------------------------------------------------------
  General SCF calculation program by
  Eric Jon Sundstrom, Paul Horn, Yuezhi Mao, Dmitri Zuev, Alec White,
  David Stuck, Shaama M.S., Shane Yost, Joonho Lee, David Small,
  Daniel Levine, Susi Lehtola, Hugh Burton, Evgeny Epifanovsky
 -----------------------------------------------------------------------
 Exchange:     0.2000 Hartree-Fock + 0.0800 Slater + 0.7200 B88
 Correlation:  0.1900 VWN1RPA + 0.8100 LYP
 Using SG-1 standard quadrature grid
 using 12 threads for integral computing
 -------------------------------------------------------
 OpenMP Integral computing Module                
 Release: version 1.0, May 2013, Q-Chem Inc. Pittsburgh 
 -------------------------------------------------------
 -------------------------------------------------------
 OpenMP BLAS3 based DFT computing Module                
 Release: version 1.0, May 2013, Q-Chem Inc. Pittsburgh 
 -------------------------------------------------------
 A unrestricted SCF calculation will be
 performed using DIIS
 SCF converges when DIIS error is below 1.0e-06
 Alpha HF Exchange    Energy = -19.60407115078499
 Beta HF Exchange     Energy = -19.60407115078499
 DFT Correlation      Energy =  -5.19460477607187
 DFT Exchange         Energy = -155.86194979255441
 One-Electron (alpha) Energy = -4198.61032892880394
 One-Electron (beta)  Energy = -4198.61032892880394
 Total Coulomb        Energy = 2782.35027516406944
 ---------------------------------------
  Cycle       Energy         DIIS error
 ---------------------------------------
    1   -5272.8595798166      1.83e-01  
 Alpha HF Exchange    Energy = -19.84267696119858
 Beta HF Exchange     Energy = -19.61744952013301
 DFT Correlation      Energy =  -5.24275159766064
 DFT Exchange         Energy = -157.05810532898130
 One-Electron (alpha) Energy = -4236.72387655715556
 One-Electron (beta)  Energy = -4183.44094370463336
 Total Coulomb        Energy = 2814.16541189592590
    2   -5265.4848920267      1.04e-02  
 Alpha HF Exchange    Energy = -19.69365781245110
 Beta HF Exchange     Energy = -19.47889773067817
 DFT Correlation      Energy =  -5.20558955964697
 DFT Exchange         Energy = -155.92973732379653
 One-Electron (alpha) Energy = -4220.44267754008069
 One-Electron (beta)  Energy = -4163.91589066720189
 Total Coulomb        Energy = 2776.97803569625285
    3   -5265.4129151905      4.60e-03  
 Alpha HF Exchange    Energy = -19.80837454719650
 Beta HF Exchange     Energy = -19.59450667156412
 DFT Correlation      Energy =  -5.22787465985668
 DFT Exchange         Energy = -156.79390520729777
 One-Electron (alpha) Energy = -4233.83562081711352
 One-Electron (beta)  Energy = -4180.35597371333733
 Total Coulomb        Energy = 2807.94706111742198
    4   -5265.3936947518      4.38e-03  
 Alpha HF Exchange    Energy = -19.78330657844374
 Beta HF Exchange     Energy = -19.54895429938756
 DFT Correlation      Energy =  -5.22734727814697
 DFT Exchange         Energy = -156.56806605558219
 One-Electron (alpha) Energy = -4230.71554234996620
 One-Electron (beta)  Energy = -4173.73581917390311
 Total Coulomb        Energy = 2797.70030403960527
    5   -5265.6032319487      1.50e-03  
 Alpha HF Exchange    Energy = -19.77068821224567
 Beta HF Exchange     Energy = -19.53975800303470
 DFT Correlation      Energy =  -5.22309563862169
 DFT Exchange         Energy = -156.46724468632638
 One-Electron (alpha) Energy = -4229.52476001727882
 One-Electron (beta)  Energy = -4173.33584126592632
 Total Coulomb        Energy = 2795.95790516737816
    6   -5265.6279829089      5.96e-04  
 Alpha HF Exchange    Energy = -19.77064523846497
 Beta HF Exchange     Energy = -19.53876727427584
 DFT Correlation      Energy =  -5.22279703805573
 DFT Exchange         Energy = -156.46382068732777
 One-Electron (alpha) Energy = -4229.54395219821163
 One-Electron (beta)  Energy = -4173.29886481518861
 Total Coulomb        Energy = 2795.92930152368717
    7   -5265.6340459807      2.67e-04  
 Alpha HF Exchange    Energy = -19.77141874149611
 Beta HF Exchange     Energy = -19.53965314270916
 DFT Correlation      Energy =  -5.22313357782407
 DFT Exchange         Energy = -156.46972290778618
 One-Electron (alpha) Energy = -4229.55355360283738
 One-Electron (beta)  Energy = -4172.97907893160846
 Total Coulomb        Energy = 2795.62572732681292
    8   -5265.6353338303      8.88e-05  
 Alpha HF Exchange    Energy = -19.77177994735468
 Beta HF Exchange     Energy = -19.54059474384715
 DFT Correlation      Energy =  -5.22305413214147
 DFT Exchange         Energy = -156.47241220712289
 One-Electron (alpha) Energy = -4229.63493344723338
 One-Electron (beta)  Energy = -4173.12362741458128
 Total Coulomb        Energy = 2795.85530244511847
    9   -5265.6355997001      4.43e-05  
 Alpha HF Exchange    Energy = -19.77165330047026
 Beta HF Exchange     Energy = -19.54114778350880
 DFT Correlation      Energy =  -5.22298632123154
 DFT Exchange         Energy = -156.47237694144627
 One-Electron (alpha) Energy = -4229.62016621320436
 One-Electron (beta)  Energy = -4173.10295687815051
 Total Coulomb        Energy = 2795.82006696339340
   10   -5265.6357207275      2.13e-05  
 Alpha HF Exchange    Energy = -19.77160377603541
 Beta HF Exchange     Energy = -19.54140481382199
 DFT Correlation      Energy =  -5.22291953056981
 DFT Exchange         Energy = -156.47247047519039
 One-Electron (alpha) Energy = -4229.61529609954687
 One-Electron (beta)  Energy = -4173.10584175485474
 Total Coulomb        Energy = 2795.81829819163522
   11   -5265.6357385113      6.61e-06  
 Alpha HF Exchange    Energy = -19.77154416749831
 Beta HF Exchange     Energy = -19.54148523815448
 DFT Correlation      Energy =  -5.22290491736472
 DFT Exchange         Energy = -156.47234882273443
 One-Electron (alpha) Energy = -4229.60510111939129
 One-Electron (beta)  Energy = -4173.10116824213128
 Total Coulomb        Energy = 2795.80331254390967
   12   -5265.6357402163      2.90e-06  
 Alpha HF Exchange    Energy = -19.77154741549657
 Beta HF Exchange     Energy = -19.54151644825593
 DFT Correlation      Energy =  -5.22290746962336
 DFT Exchange         Energy = -156.47244963582853
 One-Electron (alpha) Energy = -4229.60521346330461
 One-Electron (beta)  Energy = -4173.10509000100774
 Total Coulomb        Energy = 2795.80748426852051
   13   -5265.6357404179      1.92e-06  
 Alpha HF Exchange    Energy = -19.77154610804049
 Beta HF Exchange     Energy = -19.54152798876093
 DFT Correlation      Energy =  -5.22290735376288
 DFT Exchange         Energy = -156.47247979693012
 One-Electron (alpha) Energy = -4229.60485182145658
 One-Electron (beta)  Energy = -4173.10675531055858
 Total Coulomb        Energy = 2795.80882813641347
   14   -5265.6357404960      5.96e-07  Convergence criterion met
 ---------------------------------------
 SCF time:   CPU 53.81s  wall 5.00s 
<S^2> =          2.005374915
 Alpha HF Exchange    Energy = -19.77154610804049
 Beta HF Exchange     Energy = -19.54152798876093
 DFT Correlation      Energy =  -5.22290735376288
 DFT Exchange         Energy = -156.47247979693012
 One-Electron (alpha) Energy = -4229.60485182145658
 One-Electron (beta)  Energy = -4173.10675531055858
 Total Coulomb        Energy = 2795.80882813641347
 Nuclear repulsion Energy = 542.27549974711019
 SCF   energy in the final basis set =    -5265.6357404960
 Total energy in the final basis set =    -5265.6357404960
 
 --------------------------------------------------------------
 
                    Orbital Energies (a.u.)
 --------------------------------------------------------------
 
 Alpha MOs
 -- Occupied --
*******-482.838 -62.529 -62.495 -56.351 -56.349 -56.346 -56.318
-56.314 -56.313 -10.257 -10.247 -10.210  -8.717  -8.682  -6.544
 -6.540  -6.532  -6.513  -6.501  -6.499  -2.639  -2.638  -2.632
 -2.629  -2.628  -2.606  -2.603  -2.601  -2.593  -2.593  -0.843
 -0.781  -0.737  -0.725  -0.603  -0.513  -0.467  -0.451  -0.408
 -0.394  -0.366  -0.355  -0.308  -0.290  -0.267  -0.264  -0.249
 -- Virtual --
 -0.041   0.078   0.101   0.120   0.149   0.152   0.155   0.216
  0.248   0.264   0.311   0.316   0.337   0.364   0.368   0.387
  0.415   0.457   0.486   0.493   0.514   0.531   0.540   0.565
  0.576   0.583   0.612   0.624   0.633   0.637   0.657   0.682
  0.720   0.750   0.790   0.820   0.856   0.861   0.880   0.898
  0.945   1.051   1.139   1.180   1.254   1.290   1.347   1.440
  1.582   1.736   1.769   1.799   1.810   1.846   1.898   1.970
  2.017   2.047   2.073   2.079   2.141   2.257   2.328   2.335
  2.437   2.454   2.494   2.593   2.620   2.664   2.783   2.837
  2.844   2.952   3.164   3.228   3.374   3.421   3.442   3.595
  4.168   4.360   4.542   4.650   4.683   4.689   4.712   4.735
  4.749   4.751   4.769   4.804   4.900   6.244   6.324  90.161
 90.416
 
 Beta MOs
 -- Occupied --
*******-482.836 -62.528 -62.494 -56.347 -56.346 -56.345 -56.313
-56.312 -56.312 -10.253 -10.245 -10.210  -8.713  -8.679  -6.537
 -6.534  -6.530  -6.505  -6.499  -6.497  -2.632  -2.632  -2.628
 -2.626  -2.625  -2.600  -2.598  -2.597  -2.591  -2.591  -0.832
 -0.746  -0.724  -0.698  -0.597  -0.510  -0.465  -0.442  -0.406
 -0.392  -0.323  -0.312  -0.295  -0.264  -0.255
 -- Virtual --
 -0.185  -0.153  -0.018   0.080   0.102   0.121   0.152   0.154
  0.158   0.224   0.251   0.274   0.315   0.320   0.352   0.370
  0.384   0.401   0.429   0.463   0.493   0.517   0.540   0.550
  0.559   0.583   0.592   0.598   0.625   0.636   0.645   0.658
  0.682   0.701   0.727   0.761   0.792   0.823   0.859   0.864
  0.900   0.906   0.954   1.057   1.145   1.183   1.262   1.295
  1.359   1.446   1.583   1.749   1.776   1.805   1.820   1.855
  1.908   1.976   2.020   2.049   2.076   2.083   2.149   2.259
  2.329   2.339   2.443   2.460   2.500   2.599   2.623   2.667
  2.785   2.840   2.847   2.953   3.166   3.229   3.376   3.424
  3.443   3.597   4.176   4.364   4.546   4.660   4.691   4.701
  4.722   4.739   4.758   4.760   4.776   4.814   4.912   6.258
  6.338  90.167  90.421
 --------------------------------------------------------------
 
          Ground-State Mulliken Net Atomic Charges

     Atom                 Charge (a.u.)    Spin (a.u.)
  --------------------------------------------------------
      1 Br                   -0.097309       0.870117
      2 Br                   -0.226498       0.749369
      3 C                     0.021788       0.278046
      4 C                    -0.224304       0.105376
      5 C                    -0.364941      -0.010163
      6 H                     0.137136      -0.012269
      7 H                     0.150128      -0.004639
      8 H                     0.153101      -0.003882
      9 H                     0.129926       0.001104
     10 H                     0.185640       0.016043
     11 H                     0.135333       0.010898
  --------------------------------------------------------
  Sum of atomic charges =    -0.000000
  Sum of spin   charges =     2.000000

 -----------------------------------------------------------------
                    Cartesian Multipole Moments
 -----------------------------------------------------------------
    Charge (ESU x 10^10)
                -0.0000
    Dipole Moment (Debye)
         X      -2.7710      Y      -4.3241      Z       1.1282
       Tot       5.2582
    Quadrupole Moments (Debye-Ang)
        XX     -56.8975     XY      -2.4897     YY     -59.1910
        XZ       1.7070     YZ       1.5034     ZZ     -56.0994
    Octopole Moments (Debye-Ang^2)
       XXX    -108.4463    XXY     -33.1759    XYY     -35.9431
       YYY    -112.2688    XXZ       9.7774    XYZ       0.5848
       YYZ      12.7595    XZZ     -38.7313    YZZ     -37.6126
       ZZZ      32.7799
    Hexadecapole Moments (Debye-Ang^3)
      XXXX    -707.5629   XXXY    -159.4174   XXYY    -268.2672
      XYYY    -184.6939   YYYY    -888.7499   XXXZ     -15.1850
      XXYZ      59.4987   XYYZ       2.6464   YYYZ     164.5756
      XXZZ    -172.2716   XYZZ     -59.5872   YYZZ    -193.6265
      XZZZ     -21.2359   YZZZ     164.2415   ZZZZ    -308.8736
 -----------------------------------------------------------------
 Calculating analytic gradient of the SCF energy
 Gradient of SCF Energy
            1           2           3           4           5           6
    1   0.0001274   0.0005668   0.0011194  -0.0060359   0.0041225  -0.0000112
    2   0.0006887  -0.0008427   0.0017613   0.0055252   0.0059430  -0.0002006
    3  -0.0004132   0.0006928   0.0018619  -0.0036824  -0.0034522   0.0000739
            7           8           9          10          11
    1  -0.0005379   0.0035894  -0.0001256  -0.0028003  -0.0000145
    2  -0.0000579  -0.0043432   0.0001907  -0.0086606  -0.0000039
    3  -0.0001331   0.0001575  -0.0001565   0.0049620   0.0000893
 Max gradient component =       8.661E-03
 RMS gradient           =       2.987E-03
 Gradient time:  CPU 15.27 s  wall 1.35 s
 Geometry Optimization Parameters
   NAtoms,    NIC,     NZ,  NCons,   NDum,   NFix, NCnnct, MaxDiis
       11      81       0       1       0       0       0       0

 Cartesian Hessian Update
 Hessian Updated using BFGS Update


** CONSTRAINED OPTIMIZATION IN DELOCALIZED INTERNAL COORDINATES **
   Searching for a Minimum

   Optimization Cycle:   2

                       Coordinates (Angstroms)
     ATOM                X               Y               Z
      1  Br        1.9477979814    0.3622623817    0.5152579863
      2  Br        0.7786808827    2.3612833095   -1.1467331931
      3  C        -0.6473419522   -1.2792752014   -0.1948709509
      4  C        -0.0122739458   -1.5256316681    0.9820707828
      5  C        -1.7502660611   -0.3093919644   -0.3667171685
      6  H        -0.2932463312   -1.7927647069   -1.0875676459
      7  H        -0.3520900085   -1.0697280753    1.9068814689
      8  H         0.7606856348   -2.2945000612    1.0569292171
      9  H        -2.1702187760    0.0230017701    0.5855440857
     10  H        -1.3507222868    0.5619298767   -0.8797555309
     11  H        -2.5462101374   -0.7161846607   -1.0002400515
   Point Group: c1    Number of degrees of freedom:    27


   Energy is  -5265.635740496

              Constraints and their Current Values
                                        Value     Constraint
   Distance(Angs):        2   4             4.501725     4.500000
 Hessian Updated using BFGS Update

   Using Lagrange Multiplier Algorithm


 28 Hessian modes will be used to form the next step
  Hessian Eigenvalues:
    -0.990930    0.026561    0.030382    0.045034    0.045239    0.046665
     0.053204    0.061591    0.071574    0.084296    0.088583    0.091609
     0.093973    0.106356    0.124801    0.130598    0.143937    0.159866
     0.177929    0.327644    0.335698    0.341721    0.345211    0.349260
     0.353220    0.441432    0.558858    1.014464

 Minimum Search - Taking P-RFO Step
 Searching for Lamda that Maximizes Along the Constraint modes Only
 Value Taken    Lamda =   0.00001686
 Searching for Lamda that Minimizes Along All other modes
 Value Taken    Lamda =  -0.00029956
 Step Taken.  Stepsize is  0.036310

                             Maximum     Tolerance    Cnvgd?
         Gradient            0.003616       0.000300      NO
         Displacement        0.015670       0.001200      NO
         Energy change      0.000269       0.000001      NO


 New Cartesian Coordinates Obtained by Inverse Iteration

 Displacement from previous Coordinates is:  0.030476
 ----------------------------------------------------------------
             Standard Nuclear Orientation (Angstroms)
    I     Atom           X                Y                Z
 ----------------------------------------------------------------
    1      Br      1.9469072075     0.3584025237     0.5170302200
    2      Br      0.7729017504     2.3594107588    -1.1448302719
    3      C      -0.6476322912    -1.2812015650    -0.1939738256
    4      C      -0.0091506226    -1.5272825687     0.9840218515
    5      C      -1.7509531962    -0.3086139226    -0.3684503434
    6      H      -0.2942716041    -1.7949859896    -1.0867624834
    7      H      -0.3460236422    -1.0708086106     1.9095999420
    8      H       0.7606018927    -2.2927371705     1.0577736905
    9      H      -2.1704641702     0.0236793436     0.5840473337
   10      H      -1.3500897466     0.5706403684    -0.8858692855
   11      H      -2.5470305775    -0.7155021675    -1.0017878281
 ----------------------------------------------------------------
 Nuclear Repulsion Energy =   542.1289137786 hartrees
 There are       48 alpha and       46 beta electrons

                       Distance Matrix (Angstroms)
             Br(  1)   Br(  2)   C (  3)   C (  4)   C (  5)   H (  6)
   Br(  2)  2.853787
   C (  3)  3.150470  4.021953
   C (  4)  2.756819  4.500000  1.362310
   C (  5)  3.860461  3.753793  1.481110  2.519566
   H (  6)  3.497444  4.289667  1.088995  2.107393  2.201635
   H (  7)  3.039643  4.727361  2.135475  1.085609  2.782855  3.083066
   H (  8)  2.954364  5.147242  2.138504  1.088062  3.504107  2.441219
   H (  9)  4.131498  4.136189  2.151057  2.690119  1.092548  3.101491
   H ( 10)  3.589340  2.788163  2.097971  3.113823  1.096130  2.598326
   H ( 11)  4.863698  4.527417  2.140162  3.323140  1.095634  2.499486
             H (  7)   H (  8)   H (  9)   H ( 10)
   H (  8)  1.855623
   H (  9)  2.506706  3.765813
   H ( 10)  3.393693  4.053603  1.769982
   H ( 11)  3.666995  4.203558  1.789711  1.760758
 
 Applying Cartesian multipole field
    Component          Value
    ---------          -----
     (2,0,0)        1.00000E-11
     (0,2,0)        2.00000E-11
     (0,0,2)       -3.00000E-11
 Nucleus-field energy     =     0.0000000159 hartrees
 Requested basis set is 6-31G(d,p)
 There are 46 shells and 145 basis functions
 A cutoff of  1.0D-14 yielded    944 shell pairs
 There are      9441 function pairs
 Smallest overlap matrix eigenvalue = 7.23E-04
 Guess from superposition of atomic densities
 Warning:  Energy on first SCF cycle will be non-variational
 SAD guess density has 93.945746 electrons

 -----------------------------------------------------------------------
  General SCF calculation program by
  Eric Jon Sundstrom, Paul Horn, Yuezhi Mao, Dmitri Zuev, Alec White,
  David Stuck, Shaama M.S., Shane Yost, Joonho Lee, David Small,
  Daniel Levine, Susi Lehtola, Hugh Burton, Evgeny Epifanovsky
 -----------------------------------------------------------------------
 Exchange:     0.2000 Hartree-Fock + 0.0800 Slater + 0.7200 B88
 Correlation:  0.1900 VWN1RPA + 0.8100 LYP
 Using SG-1 standard quadrature grid
 using 12 threads for integral computing
 -------------------------------------------------------
 OpenMP Integral computing Module                
 Release: version 1.0, May 2013, Q-Chem Inc. Pittsburgh 
 -------------------------------------------------------
 -------------------------------------------------------
 OpenMP BLAS3 based DFT computing Module                
 Release: version 1.0, May 2013, Q-Chem Inc. Pittsburgh 
 -------------------------------------------------------
 A unrestricted SCF calculation will be
 performed using DIIS
 SCF converges when DIIS error is below 1.0e-06
 Alpha HF Exchange    Energy = -19.60318433225931
 Beta HF Exchange     Energy = -19.60318433225931
 DFT Correlation      Energy =  -5.19445264443803
 DFT Exchange         Energy = -155.86014031516174
 One-Electron (alpha) Energy = -4198.46926805420935
 One-Electron (beta)  Energy = -4198.46926805420935
 Total Coulomb        Energy = 2782.21923363695350
 ---------------------------------------
  Cycle       Energy         DIIS error
 ---------------------------------------
    1   -5272.8513503010      1.83e-01  
 Alpha HF Exchange    Energy = -19.84207312694813
 Beta HF Exchange     Energy = -19.61696647751139
 DFT Correlation      Energy =  -5.24251166301171
 DFT Exchange         Energy = -157.05409192535217
 One-Electron (alpha) Energy = -4236.55971765880622
 One-Electron (beta)  Energy = -4183.29709530018317
 Total Coulomb        Energy = 2813.99776811835409
    2   -5265.4857742389      1.04e-02  
 Alpha HF Exchange    Energy = -19.69331606405088
 Beta HF Exchange     Energy = -19.47843558141533
 DFT Correlation      Energy =  -5.20548807215237
 DFT Exchange         Energy = -155.92737280117859
 One-Electron (alpha) Energy = -4220.28934946919344
 One-Electron (beta)  Energy = -4163.78459813040445
 Total Coulomb        Energy = 2776.83560324050723
    3   -5265.4140430833      4.59e-03  
 Alpha HF Exchange    Energy = -19.80794617892038
 Beta HF Exchange     Energy = -19.59417580110510
 DFT Correlation      Energy =  -5.22767084694912
 DFT Exchange         Energy = -156.79103107147995
 One-Electron (alpha) Energy = -4233.69184788068560
 One-Electron (beta)  Energy = -4180.24542638886578
 Total Coulomb        Energy = 2807.83434741602014
    4   -5265.3948369574      4.37e-03  
 Alpha HF Exchange    Energy = -19.78279772384862
 Beta HF Exchange     Energy = -19.54849618549957
 DFT Correlation      Energy =  -5.22715776789456
 DFT Exchange         Energy = -156.56460887683772
 One-Electron (alpha) Energy = -4230.55358164540394
 One-Electron (beta)  Energy = -4173.61665286960670
 Total Coulomb        Energy = 2797.56061801804344
    5   -5265.6037632565      1.49e-03  
 Alpha HF Exchange    Energy = -19.77021939002742
 Beta HF Exchange     Energy = -19.53938828402381
 DFT Correlation      Energy =  -5.22291755111071
 DFT Exchange         Energy = -156.46422845338833
 One-Electron (alpha) Energy = -4229.36553363131134
 One-Electron (beta)  Energy = -4173.20687009680751
 Total Coulomb        Energy = 2795.81201222791105
    6   -5265.6282313842      5.95e-04  
 Alpha HF Exchange    Energy = -19.77016140150231
 Beta HF Exchange     Energy = -19.53841817304833
 DFT Correlation      Energy =  -5.22260800760455
 DFT Exchange         Energy = -156.46072231837485
 One-Electron (alpha) Energy = -4229.38506029753535
 One-Electron (beta)  Energy = -4173.17868643135625
 Total Coulomb        Energy = 2795.79250776623121
    7   -5265.6342350686      2.69e-04  
 Alpha HF Exchange    Energy = -19.77094319947699
 Beta HF Exchange     Energy = -19.53929786342729
 DFT Correlation      Energy =  -5.22294750794627
 DFT Exchange         Energy = -156.46667738815685
 One-Electron (alpha) Energy = -4229.39468659945669
 One-Electron (beta)  Energy = -4172.85820335039352
 Total Coulomb        Energy = 2795.48829832623460
    8   -5265.6355437881      8.73e-05  
 Alpha HF Exchange    Energy = -19.77130783833974
 Beta HF Exchange     Energy = -19.54024988041802
 DFT Correlation      Energy =  -5.22287004928604
 DFT Exchange         Energy = -156.46941012851121
 One-Electron (alpha) Energy = -4229.47627554377323
 One-Electron (beta)  Energy = -4173.00098631063884
 Total Coulomb        Energy = 2795.71637761557668
    9   -5265.6358083408      4.39e-05  
 Alpha HF Exchange    Energy = -19.77117886738434
 Beta HF Exchange     Energy = -19.54080164996643
 DFT Correlation      Energy =  -5.22280173634106
 DFT Exchange         Energy = -156.46936656422969
 One-Electron (alpha) Energy = -4229.46112267549324
 One-Electron (beta)  Energy = -4172.97950094650605
 Total Coulomb        Energy = 2795.67993052545944
   10   -5265.6359281199      2.14e-05  
 Alpha HF Exchange    Energy = -19.77113013594356
 Beta HF Exchange     Energy = -19.54106055733611
 DFT Correlation      Energy =  -5.22273477550112
 DFT Exchange         Energy = -156.46946740066304
 One-Electron (alpha) Energy = -4229.45642664104707
 One-Electron (beta)  Energy = -4172.98282235491661
 Total Coulomb        Energy = 2795.67878214142365
   11   -5265.6359459294      6.74e-06  
 Alpha HF Exchange    Energy = -19.77107153965218
 Beta HF Exchange     Energy = -19.54113924511247
 DFT Correlation      Energy =  -5.22272004242203
 DFT Exchange         Energy = -156.46934811053276
 One-Electron (alpha) Energy = -4229.44644366451757
 One-Electron (beta)  Energy = -4172.97808061372052
 Total Coulomb        Energy = 2795.66394181074611
   12   -5265.6359476106      3.26e-06  
 Alpha HF Exchange    Energy = -19.77107342219380
 Beta HF Exchange     Energy = -19.54117052584510
 DFT Correlation      Energy =  -5.22272234343665
 DFT Exchange         Energy = -156.46944175322298
 One-Electron (alpha) Energy = -4229.44629016127146
 One-Electron (beta)  Energy = -4172.98176400149714
 Total Coulomb        Energy = 2795.66760056382645
   13   -5265.6359478491      1.91e-06  
 Alpha HF Exchange    Energy = -19.77107285194109
 Beta HF Exchange     Energy = -19.54118392179066
 DFT Correlation      Energy =  -5.22272243355645
 DFT Exchange         Energy = -156.46948098789025
 One-Electron (alpha) Energy = -4229.44603667639512
 One-Electron (beta)  Energy = -4172.98377164959584
 Total Coulomb        Energy = 2795.66940679367281
   14   -5265.6359479329      6.07e-07  Convergence criterion met
 ---------------------------------------
 SCF time:   CPU 53.33s  wall 5.00s 
<S^2> =          2.005438930
 Alpha HF Exchange    Energy = -19.77107285194109
 Beta HF Exchange     Energy = -19.54118392179066
 DFT Correlation      Energy =  -5.22272243355645
 DFT Exchange         Energy = -156.46948098789025
 One-Electron (alpha) Energy = -4229.44603667639512
 One-Electron (beta)  Energy = -4172.98377164959584
 Total Coulomb        Energy = 2795.66940679367281
 Nuclear repulsion Energy = 542.12891379457017
 SCF   energy in the final basis set =    -5265.6359479329
 Total energy in the final basis set =    -5265.6359479329
 
 --------------------------------------------------------------
 
                    Orbital Energies (a.u.)
 --------------------------------------------------------------
 
 Alpha MOs
 -- Occupied --
*******-482.838 -62.529 -62.495 -56.351 -56.349 -56.346 -56.318
-56.313 -56.313 -10.258 -10.248 -10.211  -8.717  -8.682  -6.544
 -6.540  -6.532  -6.513  -6.501  -6.498  -2.639  -2.638  -2.632
 -2.629  -2.628  -2.606  -2.603  -2.601  -2.593  -2.592  -0.842
 -0.780  -0.737  -0.725  -0.603  -0.513  -0.467  -0.450  -0.409
 -0.394  -0.366  -0.355  -0.307  -0.290  -0.267  -0.264  -0.249
 -- Virtual --
 -0.042   0.078   0.101   0.120   0.148   0.151   0.155   0.215
  0.247   0.264   0.310   0.315   0.336   0.364   0.368   0.387
  0.415   0.457   0.485   0.493   0.514   0.532   0.540   0.565
  0.576   0.583   0.611   0.624   0.633   0.637   0.656   0.682
  0.719   0.750   0.792   0.820   0.856   0.862   0.879   0.899
  0.943   1.050   1.139   1.178   1.255   1.290   1.347   1.439
  1.583   1.736   1.768   1.797   1.811   1.847   1.894   1.968
  2.016   2.046   2.068   2.079   2.140   2.255   2.327   2.335
  2.436   2.454   2.493   2.594   2.616   2.662   2.782   2.832
  2.838   2.952   3.159   3.231   3.373   3.414   3.438   3.596
  4.166   4.359   4.540   4.651   4.684   4.690   4.712   4.735
  4.749   4.751   4.769   4.805   4.899   6.244   6.324  90.163
 90.414
 
 Beta MOs
 -- Occupied --
*******-482.836 -62.528 -62.494 -56.347 -56.346 -56.345 -56.313
-56.312 -56.312 -10.254 -10.245 -10.211  -8.712  -8.679  -6.537
 -6.534  -6.530  -6.505  -6.499  -6.497  -2.632  -2.632  -2.628
 -2.626  -2.625  -2.600  -2.598  -2.597  -2.591  -2.591  -0.831
 -0.745  -0.724  -0.698  -0.597  -0.510  -0.465  -0.441  -0.406
 -0.392  -0.323  -0.312  -0.295  -0.264  -0.255
 -- Virtual --
 -0.185  -0.153  -0.018   0.080   0.102   0.121   0.152   0.154
  0.158   0.224   0.250   0.274   0.315   0.320   0.351   0.370
  0.384   0.401   0.429   0.463   0.492   0.518   0.540   0.550
  0.559   0.583   0.592   0.598   0.624   0.636   0.645   0.658
  0.682   0.700   0.726   0.760   0.794   0.824   0.859   0.864
  0.901   0.905   0.953   1.055   1.145   1.182   1.263   1.295
  1.359   1.445   1.585   1.749   1.774   1.803   1.822   1.856
  1.904   1.974   2.019   2.048   2.071   2.083   2.147   2.257
  2.329   2.340   2.442   2.459   2.500   2.600   2.620   2.665
  2.784   2.834   2.841   2.954   3.161   3.232   3.376   3.416
  3.439   3.598   4.174   4.363   4.545   4.661   4.692   4.701
  4.722   4.739   4.758   4.760   4.776   4.815   4.911   6.258
  6.338  90.169  90.420
 --------------------------------------------------------------
 
          Ground-State Mulliken Net Atomic Charges

     Atom                 Charge (a.u.)    Spin (a.u.)
  --------------------------------------------------------
      1 Br                   -0.098259       0.868082
      2 Br                   -0.226639       0.748801
      3 C                     0.021445       0.281043
      4 C                    -0.224119       0.104829
      5 C                    -0.364884      -0.010406
      6 H                     0.137280      -0.012403
      7 H                     0.150632      -0.004604
      8 H                     0.153811      -0.003859
      9 H                     0.130158       0.001122
     10 H                     0.185042       0.016481
     11 H                     0.135532       0.010913
  --------------------------------------------------------
  Sum of atomic charges =     0.000000
  Sum of spin   charges =     2.000000

 -----------------------------------------------------------------
                    Cartesian Multipole Moments
 -----------------------------------------------------------------
    Charge (ESU x 10^10)
                 0.0000
    Dipole Moment (Debye)
         X      -2.7735      Y      -4.3331      Z       1.1307
       Tot       5.2675
    Quadrupole Moments (Debye-Ang)
        XX     -56.9167     XY      -2.4897     YY     -59.1695
        XZ       1.7081     YZ       1.4767     ZZ     -56.0889
    Octopole Moments (Debye-Ang^2)
       XXX    -108.1372    XXY     -33.0550    XYY     -35.8121
       YYY    -111.9697    XXZ       9.6694    XYZ       0.5699
       YYZ      12.6981    XZZ     -38.6021    YZZ     -37.5188
       ZZZ      32.6204
    Hexadecapole Moments (Debye-Ang^3)
      XXXX    -706.5107   XXXY    -158.0553   XXYY    -267.8798
      XYYY    -183.3165   YYYY    -887.6223   XXXZ     -16.0094
      XXYZ      59.3905   XYYZ       2.4011   YYYZ     164.2953
      XXZZ    -172.0637   XYZZ     -59.1535   YYZZ    -193.3879
      XZZZ     -22.0164   YZZZ     163.9622   ZZZZ    -308.7520
 -----------------------------------------------------------------
 Calculating analytic gradient of the SCF energy
 Gradient of SCF Energy
            1           2           3           4           5           6
    1   0.0001643   0.0004214   0.0010240  -0.0027899   0.0013499  -0.0000378
    2   0.0005810  -0.0007911   0.0008135   0.0026421   0.0026952  -0.0000615
    3  -0.0003290   0.0005797   0.0007802  -0.0016628  -0.0016186  -0.0000003
            7           8           9          10          11
    1  -0.0003266   0.0014355  -0.0000683  -0.0010527  -0.0001198
    2  -0.0001338  -0.0020293   0.0000492  -0.0037838   0.0000186
    3  -0.0000299   0.0000915  -0.0000779   0.0021829   0.0000840
 Max gradient component =       3.784E-03
 RMS gradient           =       1.345E-03
 Gradient time:  CPU 15.30 s  wall 1.35 s
 Geometry Optimization Parameters
   NAtoms,    NIC,     NZ,  NCons,   NDum,   NFix, NCnnct, MaxDiis
       11      81       0       1       0       0       0       0

 Cartesian Hessian Update
 Hessian Updated using BFGS Update


** CONSTRAINED OPTIMIZATION IN DELOCALIZED INTERNAL COORDINATES **
   Searching for a Minimum

   Optimization Cycle:   3

                       Coordinates (Angstroms)
     ATOM                X               Y               Z
      1  Br        1.9469072075    0.3584025237    0.5170302200
      2  Br        0.7729017504    2.3594107588   -1.1448302719
      3  C        -0.6476322912   -1.2812015650   -0.1939738256
      4  C        -0.0091506226   -1.5272825687    0.9840218515
      5  C        -1.7509531962   -0.3086139226   -0.3684503434
      6  H        -0.2942716041   -1.7949859896   -1.0867624834
      7  H        -0.3460236422   -1.0708086106    1.9095999420
      8  H         0.7606018927   -2.2927371705    1.0577736905
      9  H        -2.1704641702    0.0236793436    0.5840473337
     10  H        -1.3500897466    0.5706403684   -0.8858692855
     11  H        -2.5470305775   -0.7155021675   -1.0017878281
   Point Group: c1    Number of degrees of freedom:    27


   Energy is  -5265.635947933

              Constraints and their Current Values
                                        Value     Constraint
   Distance(Angs):        2   4             4.500000     4.500000
 Hessian Updated using BFGS Update

 26 Hessian modes will be used to form the next step
  Hessian Eigenvalues:
     0.024237    0.029336    0.045030    0.045203    0.046346    0.052868
     0.061541    0.071411    0.083746    0.088527    0.091609    0.093949
     0.106453    0.124665    0.129510    0.142390    0.159901    0.175248
     0.314745    0.328396    0.341443    0.345208    0.346202    0.349261
     0.353220    0.508257

 Minimum Search - Taking Simple RFO Step
 Searching for Lamda that Minimizes Along All modes
 Value Taken    Lamda =  -0.00012547
 Step Taken.  Stepsize is  0.044853

                             Maximum     Tolerance    Cnvgd?
         Gradient           0.001679      0.000300      NO
         Displacement       0.021765      0.001200      NO
         Energy change     -0.000207      0.000001      NO


 New Cartesian Coordinates Obtained by Inverse Iteration

 Displacement from previous Coordinates is:  0.037807
 ----------------------------------------------------------------
             Standard Nuclear Orientation (Angstroms)
    I     Atom           X                Y                Z
 ----------------------------------------------------------------
    1      Br      1.9426214864     0.3516607862     0.5190970673
    2      Br      0.7629154287     2.3593534739    -1.1436476456
    3      C      -0.6484233017    -1.2836591069    -0.1925706609
    4      C      -0.0064155359    -1.5294762296     0.9859381602
    5      C      -1.7492617412    -0.3070281699    -0.3700381660
    6      H      -0.2959374951    -1.7985909445    -1.0850117808
    7      H      -0.3394636275    -1.0711726235     1.9119652798
    8      H       0.7609167009    -2.2918662397     1.0583823115
    9      H      -2.1687842688     0.0264406238     0.5820543745
   10      H      -1.3487259769     0.5790233692    -0.8912144678
   11      H      -2.5446466689    -0.7136839389    -1.0041554723
 ----------------------------------------------------------------
 Nuclear Repulsion Energy =   541.8795463319 hartrees
 There are       48 alpha and       46 beta electrons

                       Distance Matrix (Angstroms)
             Br(  1)   Br(  2)   C (  3)   C (  4)   C (  5)   H (  6)
   Br(  2)  2.861338
   C (  3)  3.145514  4.020941
   C (  4)  2.748702  4.500000  1.364362
   C (  5)  3.854145  3.744208  1.482278  2.523998
   H (  6)  3.493980  4.291050  1.088968  2.108336  2.201840
   H (  7)  3.028605  4.724460  2.137681  1.085583  2.789084  3.084300
   H (  8)  2.945418  5.146143  2.137195  1.084106  3.504420  2.440164
   H (  9)  4.124729  4.124972  2.151256  2.694409  1.092557  3.101194
   H ( 10)  3.587986  2.773505  2.109055  3.125903  1.103241  2.607484
   H ( 11)  4.857040  4.516966  2.139908  3.326952  1.095496  2.498050
             H (  7)   H (  8)   H (  9)   H ( 10)
   H (  8)  1.851900
   H (  9)  2.513928  3.766243
   H ( 10)  3.405815  4.061222  1.774363
   H ( 11)  3.673471  4.203745  1.790284  1.764674
 
 Applying Cartesian multipole field
    Component          Value
    ---------          -----
     (2,0,0)        1.00000E-11
     (0,2,0)        2.00000E-11
     (0,0,2)       -3.00000E-11
 Nucleus-field energy     =     0.0000000159 hartrees
 Requested basis set is 6-31G(d,p)
 There are 46 shells and 145 basis functions
 A cutoff of  1.0D-14 yielded    944 shell pairs
 There are      9441 function pairs
 Smallest overlap matrix eigenvalue = 7.23E-04
 Guess from superposition of atomic densities
 Warning:  Energy on first SCF cycle will be non-variational
 SAD guess density has 93.945746 electrons

 -----------------------------------------------------------------------
  General SCF calculation program by
  Eric Jon Sundstrom, Paul Horn, Yuezhi Mao, Dmitri Zuev, Alec White,
  David Stuck, Shaama M.S., Shane Yost, Joonho Lee, David Small,
  Daniel Levine, Susi Lehtola, Hugh Burton, Evgeny Epifanovsky
 -----------------------------------------------------------------------
 Exchange:     0.2000 Hartree-Fock + 0.0800 Slater + 0.7200 B88
 Correlation:  0.1900 VWN1RPA + 0.8100 LYP
 Using SG-1 standard quadrature grid
 using 12 threads for integral computing
 -------------------------------------------------------
 OpenMP Integral computing Module                
 Release: version 1.0, May 2013, Q-Chem Inc. Pittsburgh 
 -------------------------------------------------------
 -------------------------------------------------------
 OpenMP BLAS3 based DFT computing Module                
 Release: version 1.0, May 2013, Q-Chem Inc. Pittsburgh 
 -------------------------------------------------------
 A unrestricted SCF calculation will be
 performed using DIIS
 SCF converges when DIIS error is below 1.0e-06
 Alpha HF Exchange    Energy = -19.60258156896858
 Beta HF Exchange     Energy = -19.60258156896858
 DFT Correlation      Energy =  -5.19437222440072
 DFT Exchange         Energy = -155.85888093557432
 One-Electron (alpha) Energy = -4198.22400772106539
 One-Electron (beta)  Energy = -4198.22400772106539
 Total Coulomb        Energy = 2781.98233356873425
 ---------------------------------------
  Cycle       Energy         DIIS error
 ---------------------------------------
    1   -5272.8445518235      1.83e-01  
 Alpha HF Exchange    Energy = -19.84161034309204
 Beta HF Exchange     Energy = -19.61656542514437
 DFT Correlation      Energy =  -5.24235805991739
 DFT Exchange         Energy = -157.05101856368765
 One-Electron (alpha) Energy = -4236.28601409224393
 One-Electron (beta)  Energy = -4183.03290486207516
 Total Coulomb        Energy = 2813.70434755440465
    2   -5265.4865774440      1.04e-02  
 Alpha HF Exchange    Energy = -19.69317804327957
 Beta HF Exchange     Energy = -19.47809592204170
 DFT Correlation      Energy =  -5.20544814233976
 DFT Exchange         Energy = -155.92614749656207
 One-Electron (alpha) Energy = -4220.04703295917261
 One-Electron (beta)  Energy = -4163.57592945995111
 Total Coulomb        Energy = 2776.63103775519949
    3   -5265.4152479204      4.58e-03  
 Alpha HF Exchange    Energy = -19.80759974125158
 Beta HF Exchange     Energy = -19.59387186860116
 DFT Correlation      Energy =  -5.22755053963855
 DFT Exchange         Energy = -156.78870320837672
 One-Electron (alpha) Energy = -4233.42653333205453
 One-Electron (beta)  Energy = -4179.98076440290788
 Total Coulomb        Energy = 2807.54964105690215
    4   -5265.3958356882      4.36e-03  
 Alpha HF Exchange    Energy = -19.78243457659958
 Beta HF Exchange     Energy = -19.54820304549399
 DFT Correlation      Energy =  -5.22703386068947
 DFT Exchange         Energy = -156.56224206930068
 One-Electron (alpha) Energy = -4230.28830780714088
 One-Electron (beta)  Energy = -4173.42246890675324
 Total Coulomb        Energy = 2797.34721399008868
    5   -5265.6039299281      1.49e-03  
 Alpha HF Exchange    Energy = -19.76988564987963
 Beta HF Exchange     Energy = -19.53916414575682
 DFT Correlation      Energy =  -5.22281842942438
 DFT Exchange         Energy = -156.46222454789370
 One-Electron (alpha) Energy = -4229.09610839673041
 One-Electron (beta)  Energy = -4172.97623245990781
 Total Coulomb        Energy = 2795.55856900596382
    6   -5265.6283182759      5.93e-04  
 Alpha HF Exchange    Energy = -19.76979510522893
 Beta HF Exchange     Energy = -19.53823034057576
 DFT Correlation      Energy =  -5.22248761695303
 DFT Exchange         Energy = -156.45854071583912
 One-Electron (alpha) Energy = -4229.11445163307235
 One-Electron (beta)  Energy = -4172.96182734418016
 Total Coulomb        Energy = 2795.55148675943610
    7   -5265.6342996486      2.70e-04  
 Alpha HF Exchange    Energy = -19.77058568739988
 Beta HF Exchange     Energy = -19.53910848044040
 DFT Correlation      Energy =  -5.22283120364935
 DFT Exchange         Energy = -156.46457312680457
 One-Electron (alpha) Energy = -4229.12417338608884
 One-Electron (beta)  Energy = -4172.64282888925663
 Total Coulomb        Energy = 2795.24894220072156
    8   -5265.6356122251      8.59e-05  
 Alpha HF Exchange    Energy = -19.77094789187509
 Beta HF Exchange     Energy = -19.54007437222921
 DFT Correlation      Energy =  -5.22275370654872
 DFT Exchange         Energy = -156.46732319917879
 One-Electron (alpha) Energy = -4229.20527719052825
 One-Electron (beta)  Energy = -4172.78382176053219
 Total Coulomb        Energy = 2795.47477473816753
    9   -5265.6358770350      4.33e-05  
 Alpha HF Exchange    Energy = -19.77081463673318
 Beta HF Exchange     Energy = -19.54063117839383
 DFT Correlation      Energy =  -5.22268400642263
 DFT Exchange         Energy = -156.46727446986992
 One-Electron (alpha) Energy = -4229.18938897532280
 One-Electron (beta)  Energy = -4172.76145785000699
 Total Coulomb        Energy = 2795.43670879327237
   10   -5265.6359959757      2.12e-05  
 Alpha HF Exchange    Energy = -19.77076677745435
 Beta HF Exchange     Energy = -19.54089381892124
 DFT Correlation      Energy =  -5.22261668751040
 DFT Exchange         Energy = -156.46738738653912
 One-Electron (alpha) Energy = -4229.18485354935274
 One-Electron (beta)  Energy = -4172.76524527970560
 Total Coulomb        Energy = 2795.43620350738547
   11   -5265.6360136443      6.77e-06  
 Alpha HF Exchange    Energy = -19.77070961307325
 Beta HF Exchange     Energy = -19.54097177494527
 DFT Correlation      Energy =  -5.22260199714838
 DFT Exchange         Energy = -156.46727476176721
 One-Electron (alpha) Energy = -4229.17515866276699
 One-Electron (beta)  Energy = -4172.76055273544443
 Total Coulomb        Energy = 2795.42170790442970
   12   -5265.6360152929      3.45e-06  
 Alpha HF Exchange    Energy = -19.77071076533453
 Beta HF Exchange     Energy = -19.54100324453755
 DFT Correlation      Energy =  -5.22260411493155
 DFT Exchange         Energy = -156.46736486383693
 One-Electron (alpha) Energy = -4229.17486505256238
 One-Electron (beta)  Energy = -4172.76414743823170
 Total Coulomb        Energy = 2795.42513357799953
   13   -5265.6360155537      1.89e-06  
 Alpha HF Exchange    Energy = -19.77071068193398
 Beta HF Exchange     Energy = -19.54101756887653
 DFT Correlation      Energy =  -5.22260428543083
 DFT Exchange         Energy = -156.46740924822262
 One-Electron (alpha) Energy = -4229.17468533337433
 One-Electron (beta)  Energy = -4172.76634073499463
 Total Coulomb        Energy = 2795.42720586397081
   14   -5265.6360156411      6.14e-07  Convergence criterion met
 ---------------------------------------
 SCF time:   CPU 53.42s  wall 4.00s 
<S^2> =          2.005521906
 Alpha HF Exchange    Energy = -19.77071068193398
 Beta HF Exchange     Energy = -19.54101756887653
 DFT Correlation      Energy =  -5.22260428543083
 DFT Exchange         Energy = -156.46740924822262
 One-Electron (alpha) Energy = -4229.17468533337433
 One-Electron (beta)  Energy = -4172.76634073499463
 Total Coulomb        Energy = 2795.42720586397081
 Nuclear repulsion Energy = 541.87954634777236
 SCF   energy in the final basis set =    -5265.6360156411
 Total energy in the final basis set =    -5265.6360156411
 
 --------------------------------------------------------------
 
                    Orbital Energies (a.u.)
 --------------------------------------------------------------
 
 Alpha MOs
 -- Occupied --
*******-482.838 -62.529 -62.495 -56.350 -56.349 -56.346 -56.317
-56.313 -56.312 -10.259 -10.248 -10.211  -8.716  -8.682  -6.544
 -6.539  -6.531  -6.513  -6.501  -6.498  -2.638  -2.638  -2.632
 -2.629  -2.628  -2.606  -2.603  -2.601  -2.592  -2.592  -0.842
 -0.780  -0.737  -0.725  -0.603  -0.514  -0.467  -0.448  -0.409
 -0.394  -0.366  -0.354  -0.307  -0.290  -0.267  -0.263  -0.249
 -- Virtual --
 -0.042   0.079   0.101   0.120   0.148   0.151   0.155   0.215
  0.247   0.264   0.310   0.315   0.336   0.364   0.368   0.388
  0.415   0.457   0.484   0.493   0.515   0.532   0.541   0.566
  0.576   0.583   0.611   0.624   0.633   0.637   0.656   0.682
  0.718   0.750   0.793   0.820   0.856   0.862   0.877   0.900
  0.942   1.049   1.139   1.178   1.257   1.289   1.347   1.438
  1.584   1.738   1.767   1.795   1.811   1.848   1.891   1.967
  2.016   2.045   2.066   2.079   2.139   2.254   2.327   2.336
  2.435   2.454   2.493   2.594   2.615   2.661   2.782   2.828
  2.833   2.953   3.155   3.234   3.373   3.407   3.437   3.596
  4.165   4.359   4.539   4.652   4.684   4.690   4.713   4.736
  4.748   4.751   4.770   4.806   4.897   6.245   6.323  90.168
 90.411
 
 Beta MOs
 -- Occupied --
*******-482.836 -62.528 -62.494 -56.346 -56.346 -56.345 -56.313
-56.312 -56.312 -10.255 -10.246 -10.211  -8.712  -8.679  -6.536
 -6.534  -6.529  -6.505  -6.499  -6.497  -2.632  -2.632  -2.628
 -2.626  -2.625  -2.600  -2.598  -2.597  -2.591  -2.591  -0.831
 -0.745  -0.724  -0.698  -0.598  -0.510  -0.465  -0.439  -0.407
 -0.393  -0.323  -0.312  -0.294  -0.264  -0.255
 -- Virtual --
 -0.184  -0.153  -0.019   0.081   0.102   0.121   0.151   0.153
  0.158   0.223   0.250   0.274   0.314   0.320   0.351   0.370
  0.385   0.402   0.429   0.463   0.492   0.518   0.540   0.550
  0.560   0.583   0.592   0.599   0.624   0.636   0.646   0.658
  0.681   0.700   0.725   0.760   0.795   0.824   0.860   0.865
  0.901   0.903   0.952   1.055   1.144   1.181   1.265   1.294
  1.359   1.444   1.586   1.750   1.774   1.801   1.823   1.856
  1.902   1.973   2.018   2.047   2.068   2.083   2.146   2.256
  2.329   2.340   2.441   2.459   2.500   2.600   2.618   2.664
  2.784   2.830   2.836   2.954   3.157   3.235   3.376   3.410
  3.438   3.599   4.173   4.363   4.544   4.661   4.692   4.702
  4.722   4.739   4.757   4.760   4.776   4.817   4.909   6.259
  6.337  90.174  90.417
 --------------------------------------------------------------
 
          Ground-State Mulliken Net Atomic Charges

     Atom                 Charge (a.u.)    Spin (a.u.)
  --------------------------------------------------------
      1 Br                   -0.099548       0.865101
      2 Br                   -0.226807       0.748128
      3 C                     0.021385       0.285278
      4 C                    -0.224319       0.104124
      5 C                    -0.364826      -0.010826
      6 H                     0.137431      -0.012590
      7 H                     0.151339      -0.004549
      8 H                     0.154608      -0.003832
      9 H                     0.130366       0.001168
     10 H                     0.184739       0.017000
     11 H                     0.135631       0.010998
  --------------------------------------------------------
  Sum of atomic charges =    -0.000000
  Sum of spin   charges =     2.000000

 -----------------------------------------------------------------
                    Cartesian Multipole Moments
 -----------------------------------------------------------------
    Charge (ESU x 10^10)
                 0.0000
    Dipole Moment (Debye)
         X      -2.7747      Y      -4.3461      Z       1.1340
       Tot       5.2795
    Quadrupole Moments (Debye-Ang)
        XX     -56.9403     XY      -2.4905     YY     -59.1437
        XZ       1.7076     YZ       1.4520     ZZ     -56.0784
    Octopole Moments (Debye-Ang^2)
       XXX    -107.4208    XXY     -32.8979    XYY     -35.5587
       YYY    -111.6426    XXZ       9.5573    XYZ       0.5546
       YYZ      12.6336    XZZ     -38.3482    YZZ     -37.3971
       ZZZ      32.4664
    Hexadecapole Moments (Debye-Ang^3)
      XXXX    -703.0931   XXXY    -155.8782   XXYY    -267.2133
      XYYY    -181.0947   YYYY    -887.2657   XXXZ     -17.0076
      XXYZ      59.3763   XYYZ       2.1246   YYYZ     164.2771
      XXZZ    -171.4593   XYZZ     -58.4273   YYZZ    -193.3027
      XZZZ     -22.9336   YZZZ     163.9889   ZZZZ    -308.8173
 -----------------------------------------------------------------
 Calculating analytic gradient of the SCF energy
 Gradient of SCF Energy
            1           2           3           4           5           6
    1   0.0001967   0.0001550   0.0004433  -0.0001804  -0.0002616   0.0000010
    2   0.0002969  -0.0006310   0.0000265   0.0000580   0.0000767   0.0000798
    3  -0.0001357   0.0003556   0.0001015  -0.0001664  -0.0002207  -0.0000291
            7           8           9          10          11
    1  -0.0001207  -0.0003022   0.0000436  -0.0000062   0.0000316
    2  -0.0001215   0.0000280   0.0000315   0.0001031   0.0000518
    3   0.0000266  -0.0000004  -0.0000329   0.0000629   0.0000386
 Max gradient component =       6.310E-04
 RMS gradient           =       1.939E-04
 Gradient time:  CPU 15.31 s  wall 1.35 s
 Geometry Optimization Parameters
   NAtoms,    NIC,     NZ,  NCons,   NDum,   NFix, NCnnct, MaxDiis
       11      81       0       1       0       0       0       0

 Cartesian Hessian Update
 Hessian Updated using BFGS Update


** CONSTRAINED OPTIMIZATION IN DELOCALIZED INTERNAL COORDINATES **
   Searching for a Minimum

   Optimization Cycle:   4

                       Coordinates (Angstroms)
     ATOM                X               Y               Z
      1  Br        1.9426214864    0.3516607862    0.5190970673
      2  Br        0.7629154287    2.3593534739   -1.1436476456
      3  C        -0.6484233017   -1.2836591069   -0.1925706609
      4  C        -0.0064155359   -1.5294762296    0.9859381602
      5  C        -1.7492617412   -0.3070281699   -0.3700381660
      6  H        -0.2959374951   -1.7985909445   -1.0850117808
      7  H        -0.3394636275   -1.0711726235    1.9119652798
      8  H         0.7609167009   -2.2918662397    1.0583823115
      9  H        -2.1687842688    0.0264406238    0.5820543745
     10  H        -1.3487259769    0.5790233692   -0.8912144678
     11  H        -2.5446466689   -0.7136839389   -1.0041554723
   Point Group: c1    Number of degrees of freedom:    27


   Energy is  -5265.636015641

              Constraints and their Current Values
                                        Value     Constraint
   Distance(Angs):        2   4             4.500000     4.500000
 Hessian Updated using BFGS Update

 26 Hessian modes will be used to form the next step
  Hessian Eigenvalues:
     0.021797    0.028386    0.044956    0.045061    0.046339    0.052365
     0.061348    0.070822    0.083074    0.088445    0.091620    0.093915
     0.106488    0.124262    0.129021    0.142800    0.159897    0.175952
     0.321607    0.328266    0.341823    0.345204    0.349256    0.353219
     0.369908    0.507373

 Minimum Search - Taking Simple RFO Step
 Searching for Lamda that Minimizes Along All modes
 Value Taken    Lamda =  -0.00000595
 Step Taken.  Stepsize is  0.014151

                             Maximum     Tolerance    Cnvgd?
         Gradient           0.000256      0.000300     YES
         Displacement       0.010378      0.001200      NO
         Energy change     -0.000068      0.000001      NO


 New Cartesian Coordinates Obtained by Inverse Iteration

 Displacement from previous Coordinates is:  0.010740
 ----------------------------------------------------------------
[...]
   Br(  2)  2.875128
   C (  3)  3.139408  4.044835
   C (  4)  2.716042  4.500000  1.365841
   C (  5)  3.842966  3.758772  1.482028  2.524349
   H (  6)  3.503823  4.332814  1.088976  2.109337  2.202335
   H (  7)  2.987730  4.713019  2.138224  1.085483  2.788785  3.084573
   H (  8)  2.919381  5.151864  2.138290  1.084329  3.504838  2.440879
   H (  9)  4.110776  4.132152  2.151445  2.697028  1.092594  3.100928
   H ( 10)  3.573821  2.784474  2.107613  3.115550  1.103183  2.612883
   H ( 11)  4.847128  4.529862  2.140571  3.334235  1.095387  2.495331
             H (  7)   H (  8)   H (  9)   H ( 10)
   H (  8)  1.851907
   H (  9)  2.516479  3.768166
   H ( 10)  3.393442  4.052881  1.773549
   H ( 11)  3.680918  4.210446  1.790525  1.764738
 
 Applying Cartesian multipole field
    Component          Value
    ---------          -----
     (2,0,0)        1.00000E-11
     (0,2,0)        2.00000E-11
     (0,0,2)       -3.00000E-11
 Nucleus-field energy     =     0.0000000161 hartrees
 Requested basis set is 6-31G(d,p)
 There are 46 shells and 145 basis functions
 A cutoff of  1.0D-14 yielded    944 shell pairs
 There are      9441 function pairs
 Smallest overlap matrix eigenvalue = 7.23E-04
 Guess from superposition of atomic densities
 Warning:  Energy on first SCF cycle will be non-variational
 SAD guess density has 93.945746 electrons

 -----------------------------------------------------------------------
  General SCF calculation program by
  Eric Jon Sundstrom, Paul Horn, Yuezhi Mao, Dmitri Zuev, Alec White,
  David Stuck, Shaama M.S., Shane Yost, Joonho Lee, David Small,
  Daniel Levine, Susi Lehtola, Hugh Burton, Evgeny Epifanovsky
 -----------------------------------------------------------------------
 Exchange:     0.2000 Hartree-Fock + 0.0800 Slater + 0.7200 B88
 Correlation:  0.1900 VWN1RPA + 0.8100 LYP
 Using SG-1 standard quadrature grid
 using 12 threads for integral computing
 -------------------------------------------------------
 OpenMP Integral computing Module                
 Release: version 1.0, May 2013, Q-Chem Inc. Pittsburgh 
 -------------------------------------------------------
 -------------------------------------------------------
 OpenMP BLAS3 based DFT computing Module                
 Release: version 1.0, May 2013, Q-Chem Inc. Pittsburgh 
 -------------------------------------------------------
 A unrestricted SCF calculation will be
 performed using DIIS
 SCF converges when DIIS error is below 1.0e-06
 Alpha HF Exchange    Energy = -19.60262211573000
 Beta HF Exchange     Energy = -19.60262211573000
 DFT Correlation      Energy =  -5.19444621906927
 DFT Exchange         Energy = -155.85885571419999
 One-Electron (alpha) Energy = -4197.57059510696854
 One-Electron (beta)  Energy = -4197.57059510696854
 Total Coulomb        Energy = 2781.33438633128844
 ---------------------------------------
  Cycle       Energy         DIIS error
 ---------------------------------------
    1   -5272.8411664171      1.83e-01  
 Alpha HF Exchange    Energy = -19.84144610991082
 Beta HF Exchange     Energy = -19.61640759397839
 DFT Correlation      Energy =  -5.24239389655968
 DFT Exchange         Energy = -157.04999515634034
 One-Electron (alpha) Energy = -4235.59175586496985
 One-Electron (beta)  Energy = -4182.31155396360282
 Total Coulomb        Energy = 2812.94193583287233
    2   -5265.4874331222      1.04e-02  
 Alpha HF Exchange    Energy = -19.69336407227695
 Beta HF Exchange     Energy = -19.47831211064520
 DFT Correlation      Energy =  -5.20552225982006
 DFT Exchange         Energy = -155.92801313330085
 One-Electron (alpha) Energy = -4219.39888588791109
 One-Electron (beta)  Energy = -4163.01490320400899
 Total Coulomb        Energy = 2776.08166094491253
    3   -5265.4131560928      4.59e-03  
 Alpha HF Exchange    Energy = -19.80727893082747
 Beta HF Exchange     Energy = -19.59386088318549
 DFT Correlation      Energy =  -5.22753768356437
 DFT Exchange         Energy = -156.78727921431903
 One-Electron (alpha) Energy = -4232.70026199624499
 One-Electron (beta)  Energy = -4179.23126121824862
 Total Coulomb        Energy = 2806.72996187410899
    4   -5265.3933344220      4.38e-03  
 Alpha HF Exchange    Energy = -19.78239660161320
 Beta HF Exchange     Energy = -19.54837809654563
 DFT Correlation      Energy =  -5.22708663580677
 DFT Exchange         Energy = -156.56261070456407
 One-Electron (alpha) Energy = -4229.61574069695962
 One-Electron (beta)  Energy = -4172.94102663684134
 Total Coulomb        Energy = 2796.84754553151606
    5   -5265.6055102106      1.46e-03  
 Alpha HF Exchange    Energy = -19.76968867720944
 Beta HF Exchange     Energy = -19.53931161082683
 DFT Correlation      Energy =  -5.22284931571793
 DFT Exchange         Energy = -156.46170203392256
 One-Electron (alpha) Energy = -4228.38019631374573
 One-Electron (beta)  Energy = -4172.36360535711447
 Total Coulomb        Energy = 2794.88477924692643
    6   -5265.6283904314      5.90e-04  
 Alpha HF Exchange    Energy = -19.76962683828455
 Beta HF Exchange     Energy = -19.53858261021003
 DFT Correlation      Energy =  -5.22250287406645
 DFT Exchange         Energy = -156.45848591866738
 One-Electron (alpha) Energy = -4228.40458354593375
 One-Electron (beta)  Energy = -4172.36542371188079
 Total Coulomb        Energy = 2794.90064478366185
    7   -5265.6343770851      2.64e-04  
 Alpha HF Exchange    Energy = -19.77043370379930
 Beta HF Exchange     Energy = -19.53948577356215
 DFT Correlation      Energy =  -5.22285142097404
 DFT Exchange         Energy = -156.46471496170557
 One-Electron (alpha) Energy = -4228.41498497214161
 One-Electron (beta)  Energy = -4172.06393792634481
 Total Coulomb        Energy = 2794.61659075768284
    8   -5265.6356343706      8.49e-05  
 Alpha HF Exchange    Energy = -19.77077643857785
 Beta HF Exchange     Energy = -19.54047711150779
 DFT Correlation      Energy =  -5.22276466507866
 DFT Exchange         Energy = -156.46739744410877
 One-Electron (alpha) Energy = -4228.49375176475132
 One-Electron (beta)  Energy = -4172.20353386903844
 Total Coulomb        Energy = 2794.83861290864706
    9   -5265.6359047542      4.20e-05  
 Alpha HF Exchange    Energy = -19.77062765702559
 Beta HF Exchange     Energy = -19.54104623817163
 DFT Correlation      Energy =  -5.22268796208582
 DFT Exchange         Energy = -156.46730700040581
 One-Electron (alpha) Energy = -4228.47503548387795
 One-Electron (beta)  Energy = -4172.17871286266472
 Total Coulomb        Energy = 2794.79521232292063
   10   -5265.6360212511      2.06e-05  
 Alpha HF Exchange    Energy = -19.77058433897774
 Beta HF Exchange     Energy = -19.54131090914659
 DFT Correlation      Energy =  -5.22262052010463
 DFT Exchange         Energy = -156.46745361489715
 One-Electron (alpha) Energy = -4228.47046589906313
 One-Electron (beta)  Energy = -4172.18397822207135
 Total Coulomb        Energy = 2794.79619214498462
   11   -5265.6360377290      7.05e-06  
 Alpha HF Exchange    Energy = -19.77053202694831
 Beta HF Exchange     Energy = -19.54138536513484
 DFT Correlation      Energy =  -5.22260623037089
 DFT Exchange         Energy = -156.46736142071222
 One-Electron (alpha) Energy = -4228.46159692765468
 One-Electron (beta)  Energy = -4172.17977169452570
 Total Coulomb        Energy = 2794.78303073754660
   12   -5265.6360392976      3.85e-06  
 Alpha HF Exchange    Energy = -19.77053093830189
 Beta HF Exchange     Energy = -19.54141749961911
 DFT Correlation      Energy =  -5.22260775734669
 DFT Exchange         Energy = -156.46744134295068
 One-Electron (alpha) Energy = -4228.46074977543867
 One-Electron (beta)  Energy = -4172.18319856621565
 Total Coulomb        Energy = 2794.78572263275191
   13   -5265.6360396169      1.81e-06  
 Alpha HF Exchange    Energy = -19.77053188069817
 Beta HF Exchange     Energy = -19.54143343502804
 DFT Correlation      Energy =  -5.22260795333607
 DFT Exchange         Energy = -156.46749581587139
 One-Electron (alpha) Energy = -4228.46066181855622
 One-Electron (beta)  Energy = -4172.18581094856654
 Total Coulomb        Energy = 2794.78831851049335
   14   -5265.6360397113      6.20e-07  Convergence criterion met
 ---------------------------------------
 SCF time:   CPU 54.09s  wall 4.00s 
<S^2> =          2.006017706
 Alpha HF Exchange    Energy = -19.77053188069817
 Beta HF Exchange     Energy = -19.54143343502804
 DFT Correlation      Energy =  -5.22260795333607
 DFT Exchange         Energy = -156.46749581587139
 One-Electron (alpha) Energy = -4228.46066181855622
 One-Electron (beta)  Energy = -4172.18581094856654
 Total Coulomb        Energy = 2794.78831851049335
 Nuclear repulsion Energy = 541.22418363025031
 SCF   energy in the final basis set =    -5265.6360397113
 Total energy in the final basis set =    -5265.6360397113
 
 --------------------------------------------------------------
 
                    Orbital Energies (a.u.)
 --------------------------------------------------------------
 
 Alpha MOs
 -- Occupied --
*******-482.837 -62.529 -62.495 -56.350 -56.348 -56.346 -56.317
-56.313 -56.312 -10.259 -10.249 -10.212  -8.716  -8.682  -6.543
 -6.539  -6.531  -6.513  -6.500  -6.498  -2.638  -2.638  -2.632
 -2.628  -2.627  -2.605  -2.603  -2.601  -2.592  -2.592  -0.842
 -0.779  -0.737  -0.725  -0.604  -0.514  -0.468  -0.449  -0.410
 -0.395  -0.366  -0.354  -0.307  -0.289  -0.267  -0.262  -0.250
 -- Virtual --
 -0.043   0.078   0.100   0.119   0.147   0.151   0.155   0.216
  0.246   0.264   0.308   0.315   0.335   0.365   0.369   0.388
  0.416   0.456   0.483   0.496   0.516   0.532   0.541   0.566
  0.575   0.584   0.612   0.625   0.632   0.636   0.654   0.681
  0.717   0.750   0.792   0.820   0.856   0.862   0.875   0.900
  0.942   1.050   1.142   1.181   1.258   1.287   1.346   1.439
  1.585   1.740   1.765   1.795   1.811   1.847   1.889   1.966
  2.015   2.044   2.065   2.078   2.141   2.253   2.327   2.334
  2.434   2.455   2.491   2.591   2.615   2.662   2.781   2.828
  2.832   2.952   3.155   3.233   3.372   3.407   3.436   3.594
  4.164   4.361   4.539   4.654   4.686   4.692   4.714   4.736
  4.747   4.750   4.770   4.813   4.893   6.248   6.322  90.177
 90.404
 
 Beta MOs
 -- Occupied --
*******-482.835 -62.527 -62.493 -56.346 -56.345 -56.345 -56.313
-56.311 -56.311 -10.255 -10.247 -10.212  -8.712  -8.678  -6.536
 -6.534  -6.529  -6.505  -6.498  -6.496  -2.632  -2.631  -2.628
 -2.625  -2.624  -2.599  -2.598  -2.596  -2.590  -2.590  -0.831
 -0.745  -0.724  -0.698  -0.598  -0.511  -0.465  -0.439  -0.407
 -0.393  -0.324  -0.311  -0.294  -0.263  -0.255
 -- Virtual --
 -0.183  -0.154  -0.019   0.080   0.102   0.121   0.151   0.153
  0.157   0.224   0.249   0.274   0.313   0.320   0.350   0.371
  0.385   0.402   0.430   0.462   0.491   0.521   0.541   0.550
  0.561   0.583   0.591   0.600   0.625   0.637   0.645   0.657
  0.680   0.699   0.724   0.762   0.794   0.823   0.860   0.865
  0.899   0.902   0.952   1.056   1.147   1.185   1.266   1.291
  1.359   1.445   1.587   1.752   1.772   1.802   1.823   1.856
  1.899   1.973   2.017   2.046   2.068   2.082   2.149   2.255
  2.329   2.338   2.439   2.461   2.498   2.598   2.618   2.666
  2.783   2.830   2.835   2.954   3.157   3.235   3.374   3.410
  3.437   3.596   4.173   4.365   4.543   4.663   4.694   4.704
  4.724   4.740   4.756   4.760   4.776   4.823   4.905   6.261
  6.336  90.183  90.410
 --------------------------------------------------------------
 
          Ground-State Mulliken Net Atomic Charges

     Atom                 Charge (a.u.)    Spin (a.u.)
  --------------------------------------------------------
      1 Br                   -0.100503       0.857158
      2 Br                   -0.228229       0.746554
      3 C                     0.021952       0.304890
      4 C                    -0.227433       0.094213
      5 C                    -0.365142      -0.012687
      6 H                     0.137595      -0.013474
      7 H                     0.153377      -0.004048
      8 H                     0.156058      -0.003411
      9 H                     0.130784       0.001445
     10 H                     0.186089       0.018413
     11 H                     0.135452       0.010947
  --------------------------------------------------------
  Sum of atomic charges =    -0.000000
  Sum of spin   charges =     2.000000

 -----------------------------------------------------------------
                    Cartesian Multipole Moments
 -----------------------------------------------------------------
    Charge (ESU x 10^10)
                -0.0000
    Dipole Moment (Debye)
         X      -2.8022      Y      -4.4047      Z       1.1346
       Tot       5.3424
    Quadrupole Moments (Debye-Ang)
        XX     -56.9947     XY      -2.5253     YY     -59.1824
        XZ       1.7172     YZ       1.4643     ZZ     -56.0659
    Octopole Moments (Debye-Ang^2)
       XXX    -107.0906    XXY     -33.0994    XYY     -35.5674
       YYY    -112.2924    XXZ       9.2381    XYZ       0.5384
       YYZ      12.2526    XZZ     -38.1751    YZZ     -37.4471
       ZZZ      31.4887
    Hexadecapole Moments (Debye-Ang^3)
      XXXX    -698.6786   XXXY    -155.8232   XXYY    -268.1396
      XYYY    -181.1707   YYYY    -895.2968   XXXZ     -18.1819
      XXYZ      59.3655   XYYZ       1.8634   YYYZ     163.6396
      XXZZ    -170.4081   XYZZ     -58.2928   YYZZ    -194.2364
      XZZZ     -24.1039   YZZZ     163.5339   ZZZZ    -306.9388
 -----------------------------------------------------------------
 Calculating analytic gradient of the SCF energy
 Gradient of SCF Energy
            1           2           3           4           5           6
    1  -0.0000137   0.0001518   0.0000390  -0.0000351  -0.0000119   0.0000125
    2  -0.0001601  -0.0001603  -0.0000290   0.0001827   0.0001167   0.0000473
    3   0.0001117   0.0001557  -0.0000215  -0.0000713  -0.0001005  -0.0000238
            7           8           9          10          11
    1  -0.0001007  -0.0000657   0.0000117  -0.0000147   0.0000267
    2  -0.0000668  -0.0000161   0.0000382  -0.0000231   0.0000705
    3  -0.0000028  -0.0000168  -0.0000417   0.0000469  -0.0000360
 Max gradient component =       1.827E-04
 RMS gradient           =       8.041E-05
 Gradient time:  CPU 15.31 s  wall 1.38 s
 Geometry Optimization Parameters
   NAtoms,    NIC,     NZ,  NCons,   NDum,   NFix, NCnnct, MaxDiis
       11      81       0       1       0       0       0       0

 Cartesian Hessian Update
 Hessian Updated using BFGS Update


** CONSTRAINED OPTIMIZATION IN DELOCALIZED INTERNAL COORDINATES **
   Searching for a Minimum

   Optimization Cycle:  10

                       Coordinates (Angstroms)
     ATOM                X               Y               Z
      1  Br        1.9292061222    0.3389242765    0.5281605504
      2  Br        0.7661613557    2.3766504554   -1.1335740089
      3  C        -0.6545577473   -1.2918836064   -0.1933038980
      4  C         0.0026519236   -1.5210211002    0.9818957004
      5  C        -1.7500335184   -0.3098774817   -0.3721958655
      6  H        -0.3123022651   -1.8194866184   -1.0823290563
      7  H        -0.3252365272   -1.0557481854    1.9061698920
      8  H         0.7670043473   -2.2865002284    1.0565696395
      9  H        -2.1693467027    0.0262754538    0.5790876325
     10  H        -1.3422970278    0.5741870987   -0.8910338377
     11  H        -2.5464549603   -0.7105190639   -1.0086477483
   Point Group: c1    Number of degrees of freedom:    27


   Energy is  -5265.636039711

              Constraints and their Current Values
                                        Value     Constraint
   Distance(Angs):        2   4             4.500000     4.500000
 Hessian Updated using BFGS Update

 26 Hessian modes will be used to form the next step
  Hessian Eigenvalues:
     0.003840    0.009386    0.028401    0.045032    0.047029    0.048869
     0.059641    0.071879    0.080234    0.086165    0.090217    0.093976
     0.106252    0.125980    0.131560    0.142231    0.160041    0.175490
     0.324076    0.338586    0.343419    0.345400    0.349416    0.353224
     0.363196    0.511415

 Minimum Search - Taking Simple RFO Step
 Searching for Lamda that Minimizes Along All modes
 Value Taken    Lamda =   0.00000000
 Step Taken.  Stepsize is  0.008789

                             Maximum     Tolerance    Cnvgd?
         Gradient           0.000061      0.000300     YES
         Displacement       0.004309      0.001200      NO
         Energy change     -0.000001      0.000001     YES


                       Distance Matrix (Angstroms)
             Br(  1)   Br(  2)   C (  3)   C (  4)   C (  5)   H (  6)
   Br(  2)  2.875128
   C (  3)  3.139408  4.044835
   C (  4)  2.716042  4.500000  1.365841
   C (  5)  3.842966  3.758772  1.482028  2.524349
   H (  6)  3.503823  4.332814  1.088976  2.109337  2.202335
   H (  7)  2.987730  4.713019  2.138224  1.085483  2.788785  3.084573
   H (  8)  2.919381  5.151864  2.138290  1.084329  3.504838  2.440879
   H (  9)  4.110776  4.132152  2.151445  2.697028  1.092594  3.100928
   H ( 10)  3.573821  2.784474  2.107613  3.115550  1.103183  2.612883
   H ( 11)  4.847128  4.529862  2.140571  3.334235  1.095387  2.495331
             H (  7)   H (  8)   H (  9)   H ( 10)
   H (  8)  1.851907
   H (  9)  2.516479  3.768166
   H ( 10)  3.393442  4.052881  1.773549
   H ( 11)  3.680918  4.210446  1.790525  1.764738
 
 Final energy is   -5265.63603971131     


 ******************************
 **  OPTIMIZATION CONVERGED  **
 ******************************

                       Coordinates (Angstroms)
     ATOM                X               Y               Z
      1  Br        1.9292061222    0.3389242765    0.5281605504
      2  Br        0.7661613557    2.3766504554   -1.1335740089
      3  C        -0.6545577473   -1.2918836064   -0.1933038980
      4  C         0.0026519236   -1.5210211002    0.9818957004
      5  C        -1.7500335184   -0.3098774817   -0.3721958655
      6  H        -0.3123022651   -1.8194866184   -1.0823290563
      7  H        -0.3252365272   -1.0557481854    1.9061698920
      8  H         0.7670043473   -2.2865002284    1.0565696395
      9  H        -2.1693467027    0.0262754538    0.5790876325
     10  H        -1.3422970278    0.5741870987   -0.8910338377
     11  H        -2.5464549603   -0.7105190639   -1.0086477483

Z-matrix Print:
$molecule
0 3
Br
C  1 2.716042
H  2 1.084329 1 89.709446
H  2 1.085483 1 93.611067 3 117.224436 0
C  2 1.365841 1 94.742953 3 -121.213777 0
H  5 1.088976 2 118.029555 1 85.671615 0
C  5 1.482028 2 124.798580 1 -90.224416 0
H  7 1.092594 5 112.485165 2 -15.506889 0
H  7 1.095387 5 111.420684 2 -139.351185 0
H  7 1.103183 5 108.334932 2 103.482985 0
Br 10 2.784474 7 147.096491 5 -41.802650 0
$end

PES scan, value:    4.5000 energy: -5265.6360397113
------- Summary of potential scan: ------ 
    4.5000     -5265.6360397113
----------------------------------------- 
Archival summary:
1\1\hpc0242\JobtypUnspecified\ProcedureUnspecified\6-31G**\r236(3)\knomura\ThuMar1400:55:132019ThuMar1400:55:132019\0\\#,JobtypUnspecified,ProcedureUnspecified,6-31G**,\\0,3\Br\C,1,2.71604\H,2,1.08433,1,89.7094\H,2,1.08548,1,93.6111,3,117.224,0\C,2,1.36584,1,94.743,3,-121.214,0\H,5,1.08898,2,118.03,1,85.6716,0\C,5,1.48203,2,124.799,1,-90.2244,0\H,7,1.09259,5,112.485,2,-15.5069,0\H,7,1.09539,5,111.421,2,-139.351,0\H,7,1.10318,5,108.335,2,103.483,0\Br,10,2.78447,7,147.096,5,-41.8027,0\\\@

 Total job time:  64.22s(wall), 748.40s(cpu) 
 Thu Mar 14 00:55:13 2019

        *************************************************************
        *                                                           *
        *  Thank you very much for using Q-Chem.  Have a nice day.  *
        *                                                           *
        *************************************************************


