
Running Job 1 of 1 halogens/Bromine/03/Br_2_4.xyz.data/inputs/bond_singlet_2.4.in
qchem halogens/Bromine/03/Br_2_4.xyz.data/inputs/bond_singlet_2.4.in_6975.0 /staging/scratch/2868759/qchem6975/ 1
/usr/usc/qchem/5.1.1/exe/qcprog.exe_s halogens/Bromine/03/Br_2_4.xyz.data/inputs/bond_singlet_2.4.in_6975.0 /staging/scratch/2868759/qchem6975/
Check license passed

                  Welcome to Q-Chem
     A Quantum Leap Into The Future Of Chemistry


 Q-Chem 5.1, Q-Chem, Inc., Pleasanton, CA (2018)

 Yihan Shao,  Zhengting Gan,  E. Epifanovsky,  A. T. B. Gilbert,  M. Wormit,  
 J. Kussmann,  A. W. Lange,  A. Behn,  Jia Deng,  Xintian Feng,  D. Ghosh,  
 M. Goldey,  P. R. Horn,  L. D. Jacobson,  I. Kaliman,  T. Kus,  A. Landau,  
 Jie Liu,  E. I. Proynov,  R. M. Richard,  R. P. Steele,  E. J. Sundstrom,  
 H. L. Woodcock III,  P. M. Zimmerman,  D. Zuev,  B. Albrecht,  E. Alguire,  
 S. A. Baeppler,  D. Barton,  Z. Benda,  Y. A. Bernard,  E. J. Berquist,  
 K. B. Bravaya,  H. Burton,  D. Casanova,  Chun-Min Chang,  Yunqing Chen,  
 A. Chien,  K. D. Closser,  M. P. Coons,  S. Coriani,  S. Dasgupta,  
 A. L. Dempwolff,  M. Diedenhofen,  Hainam Do,  R. G. Edgar,  Po-Tung Fang,  
 S. Faraji,  S. Fatehi,  Qingguo Feng,  K. D. Fenk,  J. Fosso-Tande,  
 Qinghui Ge,  A. Ghysels,  G. Gidofalvi,  J. Gomes,  J. Gonthier,  A. Gunina,  
 D. Hait,  M. W. D. Hanson-Heine,  P. H. P. Harbach,  A. W. Hauser,  
 J. E. Herr,  E. G. Hohenstein,  Z. C. Holden,  Kerwin Hui,  B. C. Huynh,  
 T.-C. Jagau,  Hyunjun Ji,  B. Kaduk,  K. Khistyaev,  Jaehoon Kim,  
 P. Klunzinger,  K. Koh,  D. Kosenkov,  L. Koulias,  T. Kowalczyk,  
 C. M. Krauter,  A. Kunitsa,  Ka Un Lao,  A. Laurent,  K. V. Lawler,  
 Joonho Lee,  D. Lefrancois,  S. Lehtola,  D. S. Levine,  Yi-Pei Li,  
 You-Sheng Lin,  Fenglai Liu,  E. Livshits,  A. Luenser,  P. Manohar,  
 E. Mansoor,  S. F. Manzer,  Shan-Ping Mao,  Yuezhi Mao,  N. Mardirossian,  
 A. V. Marenich,  T. Markovich,  L. A. Martinez-Martinez,  S. A. Maurer,  
 N. J. Mayhall,  S. C. McKenzie,  J.-M. Mewes,  A. F. Morrison,  
 J. W. Mullinax,  K. Nanda,  T. S. Nguyen-Beck,  R. Olivares-Amaya,  
 J. A. Parkhill,  T. M. Perrine,  F. Plasser,  P. Pokhilko,  S. Prager,  
 A. Prociuk,  E. Ramos,  D. R. Rehn,  F. Rob,  M. Schneider,  N. Sergueev,  
 S. M. Sharada,  S. Sharma,  D. W. Small,  T. Stauch,  T. Stein,  
 Yu-Chuan Su,  A. J. W. Thom,  A. Tkatchenko,  T. Tsuchimochi,  N. M. Tubman,  
 L. Vogt,  M. L. Vidal,  O. Vydrov,  M. A. Watson,  J. Wenzel,  
 M. de Wergifosse,  T. A. Wesolowski,  A. White,  J. Witte,  A. Yamada,  
 Jun Yang,  K. Yao,  S. Yeganeh,  S. R. Yost,  Zhi-Qiang You,  A. Zech,  
 Igor Ying Zhang,  Xing Zhang,  Yan Zhao,  Ying Zhu,  B. R. Brooks,  
 G. K. L. Chan,  C. J. Cramer,  M. S. Gordon,  W. J. Hehre,  A. Klamt,  
 M. W. Schmidt,  C. D. Sherrill,  D. G. Truhlar,  A. Aspuru-Guzik,  R. Baer,  
 A. T. Bell,  N. A. Besley,  Jeng-Da Chai,  A. E. DePrince, III,  
 R. A. DiStasio Jr.,  A. Dreuw,  B. D. Dunietz,  T. R. Furlani,  
 Chao-Ping Hsu,  Yousung Jung,  Jing Kong,  D. S. Lambrecht,  WanZhen Liang,  
 C. Ochsenfeld,  V. A. Rassolov,  L. V. Slipchenko,  J. E. Subotnik,  
 T. Van Voorhis,  J. M. Herbert,  A. I. Krylov,  P. M. W. Gill,  M. Head-Gordon

 Contributors to earlier versions of Q-Chem not listed above: 
 R. D. Adamson,  B. Austin,  J. Baker,  G. J. O. Beran,  K. Brandhorst,  
 S. T. Brown,  E. F. C. Byrd,  A. K. Chakraborty,  C.-L. Cheng,  
 Siu Hung Chien,  D. M. Chipman,  D. L. Crittenden,  H. Dachsel,  
 R. J. Doerksen,  A. D. Dutoi,  L. Fusti-Molnar,  W. A. Goddard III,  
 A. Golubeva-Zadorozhnaya,  S. R. Gwaltney,  G. Hawkins,  A. Heyden,  
 S. Hirata,  G. Kedziora,  F. J. Keil,  C. Kelley,  Jihan Kim,  R. A. King,  
 R. Z. Khaliullin,  P. P. Korambath,  W. Kurlancheek,  A. M. Lee,  M. S. Lee,  
 S. V. Levchenko,  Ching Yeh Lin,  D. Liotard,  R. C. Lochan,  I. Lotan,  
 P. E. Maslen,  N. Nair,  D. P. O'Neill,  D. Neuhauser,  E. Neuscamman,  
 C. M. Oana,  R. Olson,  B. Peters,  R. Peverati,  P. A. Pieniazek,  
 Y. M. Rhee,  J. Ritchie,  M. A. Rohrdanz,  E. Rosta,  N. J. Russ,  
 H. F. Schaefer III,  N. E. Schultz,  N. Shenvi,  A. C. Simmonett,  A. Sodt,  
 D. Stuck,  K. S. Thanthiriwatte,  V. Vanovschi,  Tao Wang,  A. Warshel,  
 C. F. Williams,  Q. Wu,  X. Xu,  W. Zhang

 Please cite Q-Chem as follows:
 Y. Shao et al., Mol. Phys. 113, 184-215 (2015)
 DOI: 10.1080/00268976.2014.952696

 Q-Chem 5.1.1 for Intel X86 EM64T Linux

 Parts of Q-Chem use Armadillo 8.300.2 (Tropical Shenanigans).
 http://arma.sourceforge.net/

 Q-Chem begins on Wed Mar 13 22:44:28 2019  

Host: 
0

     Scratch files written to /staging/scratch/2868759/qchem6975//
 Aug318 |scratch|qcdevops|jenkins|workspace|build_RNUM 6013   
Processing $rem in /usr/usc/qchem/5.1.1/config/preferences.
 MEM_TOTAL  2000 
Input Ideriv = 2
Curr. Ideriv = -1
Max.  Ideriv = 2

Checking the input file for inconsistencies... 	...done.

--------------------------------------------------------------
User input:
--------------------------------------------------------------

$comment
potential surface scanner
$end

$rem
JOBTYPE  PES_SCAN
UNRESTRICTED TRUE
SYM_IGNORE  TRUE
GEOM_OPT_MAX_CYCLES 400
SCF_MAX_CYCLES 400
METHOD   B3LYP
BASIS   6-31G**
PDB_PRINT 2
SCF_CONVERGENCE 6
THRESH 14
SCF_PRINT 1
$end
$molecule
0 1
Br -0.688369 1.784033 0.190682
Br 2.615289 -0.090178 -0.325296
C -0.553540 -0.128656 -0.318342
C 0.561034 -0.809456 0.418124
C -1.882231 -0.832852 -0.016459
H -0.358736 -0.113593 -1.390239
H 0.645929 -0.590229 1.478049
H 0.663445 -1.865462 0.178042
H -2.099347 -0.831379 1.054953
H -2.701315 -0.329892 -0.534639
H -1.837358 -1.871335 -0.364077
$end
$scan
stre 2 4 2.400000 2.401000 0.100000
$end
--------------------------------------------------------------
 ----------------------------------------------------------------
             Standard Nuclear Orientation (Angstroms)
    I     Atom           X                Y                Z
 ----------------------------------------------------------------
    1      Br     -0.6883690000     1.7840330000     0.1906820000
    2      Br      2.6152890000    -0.0901780000    -0.3252960000
    3      C      -0.5535400000    -0.1286560000    -0.3183420000
    4      C       0.5610340000    -0.8094560000     0.4181240000
    5      C      -1.8822310000    -0.8328520000    -0.0164590000
    6      H      -0.3587360000    -0.1135930000    -1.3902390000
    7      H       0.6459290000    -0.5902290000     1.4780490000
    8      H       0.6634450000    -1.8654620000     0.1780420000
    9      H      -2.0993470000    -0.8313790000     1.0549530000
   10      H      -2.7013150000    -0.3298920000    -0.5346390000
   11      H      -1.8373580000    -1.8713350000    -0.3640770000
 ----------------------------------------------------------------
 Nuclear Repulsion Energy =   544.8872352311 hartrees
 There are       47 alpha and       47 beta electrons
 Requested basis set is 6-31G(d,p)
 There are 46 shells and 145 basis functions

 Total QAlloc Memory Limit   2000 MB
 Mega-Array Size       188 MB
 MEM_STATIC part       192 MB
A total of 1 constraints
  
            1
    1   1.0100000
    2   2.0100000
    3   4.0100000
    4   2.4000000
    5   2.4010000
    6   0.1000000
    7   0.0000000
    8   0.0000000
    9   0.0000000
   10   0.0000000

                       Distance Matrix (Angstroms)
             Br(  1)   Br(  2)   C (  3)   C (  4)   C (  5)   H (  6)
   Br(  2)  3.833152
   C (  3)  1.983851  3.169070
   C (  4)  2.887719  2.300000  1.499382
   C (  5)  2.883800  4.568876  1.533768  2.481724
   H (  6)  2.491777  3.159031  1.089559  2.144849  2.173854
   H (  7)  3.012438  2.716704  2.208800  1.085683  2.946865  3.076298
   H (  8)  3.891834  2.686015  2.178060  1.087785  2.754012  2.563865
   H (  9)  3.094867  4.968124  2.183868  2.735628  1.093190  3.086083
   H ( 10)  3.007777  5.326121  2.167999  3.432297  1.091961  2.503300
   H ( 11)  3.871647  4.795841  2.164997  2.737099  1.096038  2.515748
             H (  7)   H (  8)   H (  9)   H ( 10)
   H (  8)  1.821138
   H (  9)  2.788136  3.077551
   H ( 10)  3.914426  3.766630  1.772190
   H ( 11)  3.346846  2.558895  1.778705  1.775263
 
 A cutoff of  1.0D-14 yielded    980 shell pairs
 There are      9719 function pairs
 
 -------------------------------------------------------
 OpenMP Integral Computing Module                       
 Release: version 1.0, May 2013, Q-Chem Inc. Pittsburgh 
 -------------------------------------------------------
 Integral Job Info:
 Integral job number is                      11
 Integral operator is                         1
 short-range coefficients                     0
 long-range coefficients              100000000
 Omega coefficients                           0
 if combine SR and LR in K                    0
 Integral screening is                        0
 Integral computing path is                   2
 max size of driver memory is            800000
 size of driver memory is                593474
 size of scratch memory is             15267112
 max col of scratch BK array               1296
 max len of scratch array in speh3          155
 max len of scratch index in speh4           18
 max int batch size is                      520
 min int batch size is                       52
 fixed nKL is                                52
 max L of basis functions is                  2
 order of int derivative is                   0
 number of shells is                         46
 number of basis is                         145
 number of cartesian basis is               145
 number of contracted shell pairs           980
 number of primitive shell pairs           4234
 maxK2 (contraction) of shell pair           36
 max number of K2 of shell pair               1
 max number of CS2 of shell pair             71
 max number of PS2 of shell pair            426
 mem total for path MDJ                  534684
 -------------------------------------------------------
 Smallest overlap matrix eigenvalue = 7.22E-04

 Scale SEOQF with 1.000000e-01/1.000000e-01/1.000000e+00

 Standard Electronic Orientation quadrupole field applied
 Nucleus-field energy     =     0.0000000066 hartrees
 Guess from superposition of atomic densities
 Warning:  Energy on first SCF cycle will be non-variational
 SAD guess density has 93.945746 electrons

 -----------------------------------------------------------------------
  General SCF calculation program by
  Eric Jon Sundstrom, Paul Horn, Yuezhi Mao, Dmitri Zuev, Alec White,
  David Stuck, Shaama M.S., Shane Yost, Joonho Lee, David Small,
  Daniel Levine, Susi Lehtola, Hugh Burton, Evgeny Epifanovsky
 -----------------------------------------------------------------------
 Exchange:     0.2000 Hartree-Fock + 0.0800 Slater + 0.7200 B88
 Correlation:  0.1900 VWN1RPA + 0.8100 LYP
 Using SG-1 standard quadrature grid
 using 12 threads for integral computing
 -------------------------------------------------------
 OpenMP Integral computing Module                
 Release: version 1.0, May 2013, Q-Chem Inc. Pittsburgh 
 -------------------------------------------------------
 -------------------------------------------------------
 OpenMP BLAS3 based DFT computing Module                
 Release: version 1.0, May 2013, Q-Chem Inc. Pittsburgh 
 -------------------------------------------------------
 A unrestricted SCF calculation will be
 performed using DIIS
 SCF converges when DIIS error is below 1.0e-06
 Alpha HF Exchange    Energy = -19.62332526023934
 Beta HF Exchange     Energy = -19.62332526023934
 DFT Correlation      Energy =  -5.20661645191896
 DFT Exchange         Energy = -155.89314005629302
 One-Electron (alpha) Energy = -4201.29192836353195
 One-Electron (beta)  Energy = -4201.29192836353195
 Total Coulomb        Energy = 2785.13401983008634
 ---------------------------------------
  Cycle       Energy         DIIS error
 ---------------------------------------
    1   -5272.9090086881      1.83e-01  
 Alpha HF Exchange    Energy = -19.73053439138961
 Beta HF Exchange     Energy = -19.73053439138960
 DFT Correlation      Energy =  -5.25551484430332
 DFT Exchange         Energy = -157.03826048743704
 One-Electron (alpha) Energy = -4211.73415435734478
 One-Electron (beta)  Energy = -4211.73415435734478
 Total Coulomb        Energy = 2814.77264394405847
    2   -5265.5632736475      1.04e-02  
 Alpha HF Exchange    Energy = -19.59297710933219
 Beta HF Exchange     Energy = -19.59297710933219
 DFT Correlation      Energy =  -5.22295622759448
 DFT Exchange         Energy = -155.96108638851467
 One-Electron (alpha) Energy = -4195.72812941906886
 One-Electron (beta)  Energy = -4195.72812941906886
 Total Coulomb        Energy = 2781.39416367021431
    3   -5265.5448567651      4.36e-03  
 Alpha HF Exchange    Energy = -19.70368556541153
 Beta HF Exchange     Energy = -19.70368556541154
 DFT Correlation      Energy =  -5.24323246641629
 DFT Exchange         Energy = -156.79597365030435
 One-Electron (alpha) Energy = -4208.99659320373394
 One-Electron (beta)  Energy = -4208.99659320373576
 Total Coulomb        Energy = 2809.00042487525889
    4   -5265.5521035421      3.87e-03  
 Alpha HF Exchange    Energy = -19.66869915393742
 Beta HF Exchange     Energy = -19.66869915393742
 DFT Correlation      Energy =  -5.24159917211932
 DFT Exchange         Energy = -156.55528369476912
 One-Electron (alpha) Energy = -4204.56936371499341
 One-Electron (beta)  Energy = -4204.56936371499251
 Total Coulomb        Energy = 2799.70500132462075
    5   -5265.6807720425      1.16e-03  
 Alpha HF Exchange    Energy = -19.66042568478808
 Beta HF Exchange     Energy = -19.66042568478808
 DFT Correlation      Energy =  -5.23773759931500
 DFT Exchange         Energy = -156.48139012813530
 One-Electron (alpha) Energy = -4203.97423997552414
 One-Electron (beta)  Energy = -4203.97423997552596
 Total Coulomb        Energy = 2798.40483902211508
    6   -5265.6963847883      9.46e-05  
 Alpha HF Exchange    Energy = -19.65963355059877
 Beta HF Exchange     Energy = -19.65963355059878
 DFT Correlation      Energy =  -5.23758932077684
 DFT Exchange         Energy = -156.47567216582792
 One-Electron (alpha) Energy = -4203.79148146921671
 One-Electron (beta)  Energy = -4203.79148146921671
 Total Coulomb        Energy = 2798.03177704639074
    7   -5265.6964792422      5.85e-05  
 Alpha HF Exchange    Energy = -19.65999404065240
 Beta HF Exchange     Energy = -19.65999404065239
 DFT Correlation      Energy =  -5.23761471842294
 DFT Exchange         Energy = -156.47830569993113
 One-Electron (alpha) Energy = -4203.86054395794599
 One-Electron (beta)  Energy = -4203.86054395794326
 Total Coulomb        Energy = 2798.17324246965745
    8   -5265.6965187083      1.51e-05  
 Alpha HF Exchange    Energy = -19.66008628873919
 Beta HF Exchange     Energy = -19.66008628873917
 DFT Correlation      Energy =  -5.23765696996551
 DFT Exchange         Energy = -156.47901526327453
 One-Electron (alpha) Energy = -4203.87335423452259
 One-Electron (beta)  Energy = -4203.87335423452078
 Total Coulomb        Energy = 2798.19979662874994
    9   -5265.6965214134      2.45e-06  
 Alpha HF Exchange    Energy = -19.66008355054342
 Beta HF Exchange     Energy = -19.66008355054340
 DFT Correlation      Energy =  -5.23765586281994
 DFT Exchange         Energy = -156.47899144569391
 One-Electron (alpha) Energy = -4203.87258658199153
 One-Electron (beta)  Energy = -4203.87258658198971
 Total Coulomb        Energy = 2798.19823086940187
   10   -5265.6965214666      1.11e-06  
 Alpha HF Exchange    Energy = -19.66008528874692
 Beta HF Exchange     Energy = -19.66008528874691
 DFT Correlation      Energy =  -5.23765647981573
 DFT Exchange         Energy = -156.47900539478979
 One-Electron (alpha) Energy = -4203.87290185967868
 One-Electron (beta)  Energy = -4203.87290185967686
 Total Coulomb        Energy = 2798.19887945544770
   11   -5265.6965214784      9.72e-08  Convergence criterion met
 ---------------------------------------
 SCF time:   CPU 46.35s  wall 4.00s 
<S^2> =          0.000000000
 Alpha HF Exchange    Energy = -19.66008528874692
 Beta HF Exchange     Energy = -19.66008528874691
 DFT Correlation      Energy =  -5.23765647981573
 DFT Exchange         Energy = -156.47900539478979
 One-Electron (alpha) Energy = -4203.87290185967868
 One-Electron (beta)  Energy = -4203.87290185967686
 Total Coulomb        Energy = 2798.19887945544770
 Nuclear repulsion Energy = 544.88723523761382
 SCF   energy in the final basis set =    -5265.6965214784
 Total energy in the final basis set =    -5265.6965214784
 
 --------------------------------------------------------------
 
                    Orbital Energies (a.u.)
 --------------------------------------------------------------
 
 Alpha MOs
 -- Occupied --
*******-482.844 -62.517 -62.502 -56.339 -56.335 -56.335 -56.323
-56.320 -56.320 -10.282 -10.278 -10.218  -8.704  -8.688  -6.535
 -6.522  -6.521  -6.518  -6.505  -6.505  -2.628  -2.625  -2.624
 -2.614  -2.614  -2.611  -2.608  -2.608  -2.598  -2.598  -0.860
 -0.764  -0.747  -0.703  -0.611  -0.505  -0.474  -0.449  -0.433
 -0.399  -0.367  -0.334  -0.289  -0.288  -0.275  -0.270
 -- Virtual --
 -0.084  -0.021   0.072   0.108   0.117   0.144   0.151   0.154
  0.178   0.200   0.221   0.249   0.325   0.335   0.344   0.349
  0.356   0.407   0.432   0.464   0.482   0.494   0.537   0.563
  0.586   0.608   0.617   0.628   0.633   0.661   0.701   0.722
  0.765   0.767   0.831   0.837   0.852   0.861   0.873   0.886
  0.906   0.926   0.996   1.109   1.300   1.330   1.356   1.510
  1.574   1.648   1.709   1.740   1.791   1.808   1.864   1.916
  1.995   2.009   2.024   2.053   2.063   2.116   2.232   2.269
  2.326   2.415   2.502   2.525   2.577   2.597   2.695   2.703
  2.788   2.839   2.873   3.169   3.230   3.292   3.402   3.426
  3.446   4.197   4.401   4.539   4.724   4.732   4.735   4.742
  4.763   4.772   4.813   4.827   4.915   4.973   6.293   6.309
 90.280  90.405
 
 Beta MOs
 -- Occupied --
*******-482.844 -62.517 -62.502 -56.339 -56.335 -56.335 -56.323
-56.320 -56.320 -10.282 -10.278 -10.218  -8.704  -8.688  -6.535
 -6.522  -6.521  -6.518  -6.505  -6.505  -2.628  -2.625  -2.624
 -2.614  -2.614  -2.611  -2.608  -2.608  -2.598  -2.598  -0.860
 -0.764  -0.747  -0.703  -0.611  -0.505  -0.474  -0.449  -0.433
 -0.399  -0.367  -0.334  -0.289  -0.288  -0.275  -0.270
 -- Virtual --
 -0.084  -0.021   0.072   0.108   0.117   0.144   0.151   0.154
  0.178   0.200   0.221   0.249   0.325   0.335   0.344   0.349
  0.356   0.407   0.432   0.464   0.482   0.494   0.537   0.563
  0.586   0.608   0.617   0.628   0.633   0.661   0.701   0.722
  0.765   0.767   0.831   0.837   0.852   0.861   0.873   0.886
  0.906   0.926   0.996   1.109   1.300   1.330   1.356   1.510
  1.574   1.648   1.709   1.740   1.791   1.808   1.864   1.916
  1.995   2.009   2.024   2.053   2.063   2.116   2.232   2.269
  2.326   2.415   2.502   2.525   2.577   2.597   2.695   2.703
  2.788   2.839   2.873   3.169   3.230   3.292   3.402   3.426
  3.446   4.197   4.401   4.539   4.724   4.732   4.735   4.742
  4.763   4.772   4.813   4.827   4.915   4.973   6.293   6.309
 90.280  90.405
 --------------------------------------------------------------
 
          Ground-State Mulliken Net Atomic Charges

     Atom                 Charge (a.u.)    Spin (a.u.)
  --------------------------------------------------------
      1 Br                   -0.081599       0.000000
      2 Br                   -0.193754       0.000000
      3 C                    -0.138835       0.000000
      4 C                    -0.208785      -0.000000
      5 C                    -0.325559      -0.000000
      6 H                     0.180233       0.000000
      7 H                     0.186430      -0.000000
      8 H                     0.173258       0.000000
      9 H                     0.136779      -0.000000
     10 H                     0.148785      -0.000000
     11 H                     0.123048       0.000000
  --------------------------------------------------------
  Sum of atomic charges =     0.000000
  Sum of spin   charges =     0.000000

 -----------------------------------------------------------------
                    Cartesian Multipole Moments
 -----------------------------------------------------------------
    Charge (ESU x 10^10)
                -0.0000
    Dipole Moment (Debye)
         X      -2.9518      Y      -2.6923      Z       0.3340
       Tot       4.0092
    Quadrupole Moments (Debye-Ang)
        XX     -61.8533     XY       1.9270     YY     -56.2607
        XZ       1.2927     YZ      -0.5210     ZZ     -55.3951
    Octopole Moments (Debye-Ang^2)
       XXX     -82.6470    XXY     -16.7984    XYY     -23.1608
       YYY     -55.4275    XXZ       0.0436    XYZ      -1.3212
       YYZ       3.5522    XZZ     -23.7194    YZZ     -19.3729
       ZZZ       6.6221
    Hexadecapole Moments (Debye-Ang^3)
      XXXX   -1077.5910   XXXY      72.7146   XXYY    -268.3234
      XYYY      49.5514   YYYY    -460.2654   XXXZ      37.3353
      XXYZ      -8.2709   XYYZ      14.7951   YYYZ      -5.8462
      XXZZ    -199.4148   XYZZ      19.2123   YYZZ    -102.5232
      XZZZ      47.3765   YZZZ     -16.1246   ZZZZ    -107.2421
 -----------------------------------------------------------------
 Calculating analytic gradient of the SCF energy
 Gradient of SCF Energy
            1           2           3           4           5           6
    1  -0.0000352   0.0391831   0.0000235  -0.0392242  -0.0000225  -0.0000719
    2   0.0000133   0.0137931  -0.0000182  -0.0137237  -0.0000023   0.0000221
    3   0.0000596  -0.0142331   0.0000150   0.0141853   0.0000512  -0.0000045
            7           8           9          10          11
    1   0.0000206   0.0000790   0.0000269  -0.0000023   0.0000229
    2  -0.0000288   0.0000428  -0.0000426  -0.0000331  -0.0000226
    3  -0.0000304  -0.0001256   0.0000290   0.0000464   0.0000071
 Max gradient component =       3.922E-02
 RMS gradient           =       1.081E-02
 Gradient time:  CPU 17.04 s  wall 1.49 s
 Geometry Optimization Parameters
   NAtoms,    NIC,     NZ,  NCons,   NDum,   NFix, NCnnct, MaxDiis
       11      68       0       1       0       0       0       0


** CONSTRAINED OPTIMIZATION IN DELOCALIZED INTERNAL COORDINATES **
   Searching for a Minimum

   Optimization Cycle:   1

                       Coordinates (Angstroms)
     ATOM                X               Y               Z
      1  Br       -0.6883690000    1.7840330000    0.1906820000
      2  Br        2.6152890000   -0.0901780000   -0.3252960000
      3  C        -0.5535400000   -0.1286560000   -0.3183420000
      4  C         0.5610340000   -0.8094560000    0.4181240000
      5  C        -1.8822310000   -0.8328520000   -0.0164590000
      6  H        -0.3587360000   -0.1135930000   -1.3902390000
      7  H         0.6459290000   -0.5902290000    1.4780490000
      8  H         0.6634450000   -1.8654620000    0.1780420000
      9  H        -2.0993470000   -0.8313790000    1.0549530000
     10  H        -2.7013150000   -0.3298920000   -0.5346390000
     11  H        -1.8373580000   -1.8713350000   -0.3640770000
   Point Group: c1    Number of degrees of freedom:    27


   Energy is  -5265.696521478

              Constraints and their Current Values
                                        Value     Constraint
   Distance(Angs):        2   4             2.300000     2.400000

 Attempting to Generate Delocalized Internal Coordinates

   Using Lagrange Multiplier Algorithm


 28 Hessian modes will be used to form the next step
  Hessian Eigenvalues:
    -0.962258    0.045000    0.045000    0.075407    0.076109    0.082385
     0.083098    0.083833    0.084333    0.109520    0.157010    0.160000
     0.160000    0.160000    0.160000    0.160000    0.176264    0.221942
     0.231550    0.290782    0.324423    0.341241    0.344465    0.345870
     0.348637    0.350699    0.353163    1.039222

 Minimum Search - Taking P-RFO Step
 Searching for Lamda that Maximizes Along the Constraint modes Only
 Value Taken    Lamda =   0.02802687
 Searching for Lamda that Minimizes Along All other modes
 Value Taken    Lamda =  -0.00942389
 Step Taken.  Stepsize is  0.184964

                             Maximum     Tolerance    Cnvgd?
         Gradient            0.188974       0.000300      NO
         Displacement        0.184957       0.001200      NO
         Energy change     *********       0.000001      NO


 New Cartesian Coordinates Obtained by Inverse Iteration

 Displacement from previous Coordinates is:  0.173902
 ----------------------------------------------------------------
             Standard Nuclear Orientation (Angstroms)
    I     Atom           X                Y                Z
 ----------------------------------------------------------------
    1      Br     -0.6928946656     1.7815716105     0.1930168959
    2      Br      2.6962455625    -0.0679258687    -0.3477012829
    3      C      -0.5601030605    -0.1313142296    -0.3155744614
    4      C       0.5517653889    -0.8138396960     0.4234139012
    5      C      -1.8905440488    -0.8334300742    -0.0165929639
    6      H      -0.3628713628    -0.1166526266    -1.3870246225
    7      H       0.6348656418    -0.5943666448     1.4834369431
    8      H       0.6526402975    -1.8701809929     0.1841244831
    9      H      -2.1099555478    -0.8317251087     1.0543508814
   10      H      -2.7077897160    -0.3291866966    -0.5364532318
   11      H      -1.8465574892    -1.8719486725    -0.3641985421
 ----------------------------------------------------------------
 Nuclear Repulsion Energy =   537.8693539865 hartrees
 There are       47 alpha and       47 beta electrons

                       Distance Matrix (Angstroms)
             Br(  1)   Br(  2)   C (  3)   C (  4)   C (  5)   H (  6)
   Br(  2)  3.898626
   C (  3)  1.983792  3.257124
   C (  4)  2.887632  2.397874  1.499399
   C (  5)  2.883840  4.662003  1.533763  2.481706
   H (  6)  2.491727  3.231217  1.089551  2.144835  2.173853
   H (  7)  3.012178  2.807044  2.208803  1.085690  2.947021  3.076238
   H (  8)  3.891766  2.776200  2.178096  1.087792  2.753711  2.564105
   H (  9)  3.095041  5.064455  2.183876  2.735536  1.093190  3.086089
   H ( 10)  3.007861  5.413639  2.168063  3.432336  1.091974  2.503455
   H ( 11)  3.871645  4.887927  2.164980  2.737130  1.096032  2.515663
             H (  7)   H (  8)   H (  9)   H ( 10)
   H (  8)  1.821052
   H (  9)  2.788279  3.076950
   H ( 10)  3.914540  3.766482  1.772176
   H ( 11)  3.347153  2.558642  1.778687  1.775248
 
 Applying Cartesian multipole field
    Component          Value
    ---------          -----
     (2,0,0)        1.00000E-11
     (0,2,0)        2.00000E-11
     (0,0,2)       -3.00000E-10
 Nucleus-field energy     =     0.0000000065 hartrees
 Requested basis set is 6-31G(d,p)
 There are 46 shells and 145 basis functions
 A cutoff of  1.0D-14 yielded    978 shell pairs
 There are      9685 function pairs
 Smallest overlap matrix eigenvalue = 7.22E-04
 Guess from superposition of atomic densities
 Warning:  Energy on first SCF cycle will be non-variational
 SAD guess density has 93.945746 electrons

 -----------------------------------------------------------------------
  General SCF calculation program by
  Eric Jon Sundstrom, Paul Horn, Yuezhi Mao, Dmitri Zuev, Alec White,
  David Stuck, Shaama M.S., Shane Yost, Joonho Lee, David Small,
  Daniel Levine, Susi Lehtola, Hugh Burton, Evgeny Epifanovsky
 -----------------------------------------------------------------------
 Exchange:     0.2000 Hartree-Fock + 0.0800 Slater + 0.7200 B88
 Correlation:  0.1900 VWN1RPA + 0.8100 LYP
 Using SG-1 standard quadrature grid
 using 12 threads for integral computing
 -------------------------------------------------------
 OpenMP Integral computing Module                
 Release: version 1.0, May 2013, Q-Chem Inc. Pittsburgh 
 -------------------------------------------------------
 -------------------------------------------------------
 OpenMP BLAS3 based DFT computing Module                
 Release: version 1.0, May 2013, Q-Chem Inc. Pittsburgh 
 -------------------------------------------------------
 A unrestricted SCF calculation will be
 performed using DIIS
 SCF converges when DIIS error is below 1.0e-06
 Alpha HF Exchange    Energy = -19.61950342967054
 Beta HF Exchange     Energy = -19.61950342967054
 DFT Correlation      Energy =  -5.20487454744868
 DFT Exchange         Energy = -155.88574679960391
 One-Electron (alpha) Energy = -4194.28277381927001
 One-Electron (beta)  Energy = -4194.28277381927001
 Total Coulomb        Energy = 2778.16716607577473
 ---------------------------------------
  Cycle       Energy         DIIS error
 ---------------------------------------
    1   -5272.8586557762      1.83e-01  
 Alpha HF Exchange    Energy = -19.72961509448402
 Beta HF Exchange     Energy = -19.72961509448401
 DFT Correlation      Energy =  -5.25371714808887
 DFT Exchange         Energy = -157.03140094961645
 One-Electron (alpha) Energy = -4204.88186583746028
 One-Electron (beta)  Energy = -4204.88186583745755
 Total Coulomb        Energy = 2808.09249539117673
    2   -5265.5462305775      1.04e-02  
 Alpha HF Exchange    Energy = -19.59025763064135
 Beta HF Exchange     Energy = -19.59025763064133
 DFT Correlation      Energy =  -5.22165546104417
 DFT Exchange         Energy = -155.94582720991741
 One-Electron (alpha) Energy = -4188.17672061197300
 One-Electron (beta)  Energy = -4188.17672061197027
 Total Coulomb        Energy = 2773.35691035724312
    3   -5265.4751748060      4.88e-03  
 Alpha HF Exchange    Energy = -19.70296106637398
 Beta HF Exchange     Energy = -19.70296106637396
 DFT Correlation      Energy =  -5.24020806801976
 DFT Exchange         Energy = -156.78287067583045
 One-Electron (alpha) Energy = -4202.24721735674484
 One-Electron (beta)  Energy = -4202.24721735674211
 Total Coulomb        Energy = 2802.58888033714857
    4   -5265.4652012600      4.50e-03  
 Alpha HF Exchange    Energy = -19.66834436134747
 Beta HF Exchange     Energy = -19.66834436134744
 DFT Correlation      Energy =  -5.24034573575319
 DFT Exchange         Energy = -156.55735381774633
 One-Electron (alpha) Energy = -4197.70601573766726
 One-Electron (beta)  Energy = -4197.70601573766453
 Total Coulomb        Energy = 2793.00625129655782
    5   -5265.6708144620      1.23e-03  
 Alpha HF Exchange    Energy = -19.65774542840067
 Beta HF Exchange     Energy = -19.65774542840065
 DFT Correlation      Energy =  -5.23571408175265
 DFT Exchange         Energy = -156.46368439569292
 One-Electron (alpha) Energy = -4196.90340986706087
 One-Electron (beta)  Energy = -4196.90340986705996
 Total Coulomb        Energy = 2791.26464025371206
    6   -5265.6877148217      1.60e-04  
 Alpha HF Exchange    Energy = -19.65755661938374
 Beta HF Exchange     Energy = -19.65755661938374
 DFT Correlation      Energy =  -5.23581079289753
 DFT Exchange         Energy = -156.46340608910091
 One-Electron (alpha) Energy = -4196.74371165753655
 One-Electron (beta)  Energy = -4196.74371165753473
 Total Coulomb        Energy = 2790.94441096577430
    7   -5265.6879884771      8.03e-05  
 Alpha HF Exchange    Energy = -19.65809033634788
 Beta HF Exchange     Energy = -19.65809033634790
 DFT Correlation      Energy =  -5.23586957015401
 DFT Exchange         Energy = -156.46730920277594
 One-Electron (alpha) Energy = -4196.84459157067340
 One-Electron (beta)  Energy = -4196.84459157067522
 Total Coulomb        Energy = 2791.15112197363214
    8   -5265.6880666204      2.11e-05  
 Alpha HF Exchange    Energy = -19.65818862495781
 Beta HF Exchange     Energy = -19.65818862495782
 DFT Correlation      Energy =  -5.23591573349210
 DFT Exchange         Energy = -156.46802906301770
 One-Electron (alpha) Energy = -4196.85995459014885
 One-Electron (beta)  Energy = -4196.85995459015066
 Total Coulomb        Energy = 2791.18280517080393
    9   -5265.6880720630      3.31e-06  
 Alpha HF Exchange    Energy = -19.65818086801268
 Beta HF Exchange     Energy = -19.65818086801266
 DFT Correlation      Energy =  -5.23591283353669
 DFT Exchange         Energy = -156.46796558376909
 One-Electron (alpha) Energy = -4196.85808082373387
 One-Electron (beta)  Energy = -4196.85808082373114
 Total Coulomb        Energy = 2791.17897565592739
   10   -5265.6880721519      1.89e-06  
 Alpha HF Exchange    Energy = -19.65818369906988
 Beta HF Exchange     Energy = -19.65818369906989
 DFT Correlation      Energy =  -5.23591333576998
 DFT Exchange         Energy = -156.46798638429760
 One-Electron (alpha) Energy = -4196.85879385716180
 One-Electron (beta)  Energy = -4196.85879385716271
 Total Coulomb        Energy = 2791.18042865290408
   11   -5265.6880721867      1.63e-07  Convergence criterion met
 ---------------------------------------
 SCF time:   CPU 44.88s  wall 4.00s 
<S^2> =          0.000000000
 Alpha HF Exchange    Energy = -19.65818369906988
 Beta HF Exchange     Energy = -19.65818369906989
 DFT Correlation      Energy =  -5.23591333576998
 DFT Exchange         Energy = -156.46798638429760
 One-Electron (alpha) Energy = -4196.85879385716180
 One-Electron (beta)  Energy = -4196.85879385716271
 Total Coulomb        Energy = 2791.18042865290408
 Nuclear repulsion Energy = 537.86935399295066
 SCF   energy in the final basis set =    -5265.6880721867
 Total energy in the final basis set =    -5265.6880721867
 
 --------------------------------------------------------------
 
                    Orbital Energies (a.u.)
 --------------------------------------------------------------
 
 Alpha MOs
 -- Occupied --
*******-482.842 -62.519 -62.499 -56.340 -56.336 -56.336 -56.321
-56.317 -56.317 -10.287 -10.281 -10.221  -8.706  -8.685  -6.536
 -6.523  -6.523  -6.515  -6.503  -6.502  -2.630  -2.626  -2.626
 -2.616  -2.615  -2.608  -2.605  -2.605  -2.595  -2.595  -0.862
 -0.762  -0.744  -0.706  -0.613  -0.507  -0.476  -0.451  -0.435
 -0.401  -0.368  -0.326  -0.290  -0.289  -0.272  -0.268
 -- Virtual --
 -0.100  -0.023   0.070   0.107   0.116   0.142   0.149   0.152
  0.176   0.199   0.221   0.247   0.324   0.334   0.343   0.353
  0.357   0.409   0.433   0.464   0.482   0.496   0.534   0.565
  0.583   0.601   0.616   0.629   0.632   0.651   0.701   0.712
  0.761   0.766   0.826   0.829   0.849   0.853   0.872   0.881
  0.900   0.922   0.984   1.100   1.293   1.322   1.343   1.500
  1.569   1.645   1.709   1.744   1.791   1.803   1.853   1.906
  1.990   2.003   2.020   2.049   2.059   2.111   2.226   2.265
  2.324   2.412   2.493   2.521   2.574   2.594   2.692   2.700
  2.784   2.836   2.871   3.167   3.228   3.289   3.400   3.422
  3.444   4.193   4.394   4.531   4.723   4.733   4.737   4.741
  4.758   4.765   4.810   4.822   4.902   4.971   6.288   6.309
 90.258  90.405
 
 Beta MOs
 -- Occupied --
*******-482.842 -62.519 -62.499 -56.340 -56.336 -56.336 -56.321
-56.317 -56.317 -10.287 -10.281 -10.221  -8.706  -8.685  -6.536
 -6.523  -6.523  -6.515  -6.503  -6.502  -2.630  -2.626  -2.626
 -2.616  -2.615  -2.608  -2.605  -2.605  -2.595  -2.595  -0.862
 -0.762  -0.744  -0.706  -0.613  -0.507  -0.476  -0.451  -0.435
 -0.401  -0.368  -0.326  -0.290  -0.289  -0.272  -0.268
 -- Virtual --
 -0.100  -0.023   0.070   0.107   0.116   0.142   0.149   0.152
  0.176   0.199   0.221   0.247   0.324   0.334   0.343   0.353
  0.357   0.409   0.433   0.464   0.482   0.496   0.534   0.565
  0.583   0.601   0.616   0.629   0.632   0.651   0.701   0.712
  0.761   0.766   0.826   0.829   0.849   0.853   0.872   0.881
  0.900   0.922   0.984   1.100   1.293   1.322   1.343   1.500
  1.569   1.645   1.709   1.744   1.791   1.803   1.853   1.906
  1.990   2.003   2.020   2.049   2.059   2.111   2.226   2.265
  2.324   2.412   2.493   2.521   2.574   2.594   2.692   2.700
  2.784   2.836   2.871   3.167   3.228   3.289   3.400   3.422
  3.444   4.193   4.394   4.531   4.723   4.733   4.737   4.741
  4.758   4.765   4.810   4.822   4.902   4.971   6.288   6.309
 90.258  90.405
 --------------------------------------------------------------
 
          Ground-State Mulliken Net Atomic Charges

     Atom                 Charge (a.u.)    Spin (a.u.)
  --------------------------------------------------------
      1 Br                   -0.078128      -0.000000
      2 Br                   -0.220310       0.000000
      3 C                    -0.142695       0.000000
      4 C                    -0.189987      -0.000000
      5 C                    -0.326629      -0.000000
      6 H                     0.183178       0.000000
      7 H                     0.187226       0.000000
      8 H                     0.173895      -0.000000
      9 H                     0.137914       0.000000
     10 H                     0.151201       0.000000
     11 H                     0.124334      -0.000000
  --------------------------------------------------------
  Sum of atomic charges =    -0.000000
  Sum of spin   charges =    -0.000000

 -----------------------------------------------------------------
                    Cartesian Multipole Moments
 -----------------------------------------------------------------
    Charge (ESU x 10^10)
                -0.0000
    Dipole Moment (Debye)
         X      -3.2846      Y      -2.7426      Z       0.3987
       Tot       4.2976
    Quadrupole Moments (Debye-Ang)
        XX     -62.6740     XY       1.9469     YY     -56.1457
        XZ       1.4285     YZ      -0.5635     ZZ     -55.4084
    Octopole Moments (Debye-Ang^2)
       XXX     -89.9845    XXY     -17.0969    XYY     -24.7694
       YYY     -56.3345    XXZ       0.6199    XYZ      -1.3596
       YYZ       3.9786    XZZ     -25.3395    YZZ     -19.7330
       ZZZ       7.7490
    Hexadecapole Moments (Debye-Ang^3)
      XXXX   -1135.8522   XXXY      70.8155   XXYY    -277.0302
      XYYY      46.6459   YYYY    -458.3055   XXXZ      42.9213
      XXYZ      -8.3657   XYYZ      16.5653   YYYZ      -5.6743
      XXZZ    -208.7754   XYZZ      18.2829   YYZZ    -102.5875
      XZZZ      52.6444   YZZZ     -15.9672   ZZZZ    -109.1060
 -----------------------------------------------------------------
 Calculating analytic gradient of the SCF energy
 Gradient of SCF Energy
            1           2           3           4           5           6
    1  -0.0000856   0.0418266  -0.0031571  -0.0337643  -0.0000095   0.0000227
    2   0.0001962   0.0143760  -0.0015626  -0.0122742   0.0010535   0.0001509
    3   0.0000930  -0.0145935   0.0004819   0.0128692  -0.0005510   0.0000711
            7           8           9          10          11
    1  -0.0023411  -0.0024414   0.0000697  -0.0002361   0.0001161
    2  -0.0011900  -0.0004277  -0.0000547  -0.0002434  -0.0000240
    3   0.0003673   0.0010380   0.0000614   0.0001552   0.0000072
 Max gradient component =       4.183E-02
 RMS gradient           =       1.052E-02
 Gradient time:  CPU 16.82 s  wall 1.47 s
 Geometry Optimization Parameters
   NAtoms,    NIC,     NZ,  NCons,   NDum,   NFix, NCnnct, MaxDiis
       11      68       0       1       0       0       0       0

 Cartesian Hessian Update
 Hessian Updated using BFGS Update


** CONSTRAINED OPTIMIZATION IN DELOCALIZED INTERNAL COORDINATES **
   Searching for a Minimum

   Optimization Cycle:   2

                       Coordinates (Angstroms)
     ATOM                X               Y               Z
      1  Br       -0.6928946656    1.7815716105    0.1930168959
      2  Br        2.6962455625   -0.0679258687   -0.3477012829
      3  C        -0.5601030605   -0.1313142296   -0.3155744614
      4  C         0.5517653889   -0.8138396960    0.4234139012
      5  C        -1.8905440488   -0.8334300742   -0.0165929639
      6  H        -0.3628713628   -0.1166526266   -1.3870246225
      7  H         0.6348656418   -0.5943666448    1.4834369431
      8  H         0.6526402975   -1.8701809929    0.1841244831
      9  H        -2.1099555478   -0.8317251087    1.0543508814
     10  H        -2.7077897160   -0.3291866966   -0.5364532318
     11  H        -1.8465574892   -1.8719486725   -0.3641985421
   Point Group: c1    Number of degrees of freedom:    27


   Energy is  -5265.688072187

              Constraints and their Current Values
                                        Value     Constraint
   Distance(Angs):        2   4             2.397874     2.400000
 Hessian Updated using BFGS Update

   Using Lagrange Multiplier Algorithm


 25 Hessian modes will be used to form the next step
  Hessian Eigenvalues:
    -0.993093    0.044999    0.045003    0.075410    0.082385    0.082974
     0.083382    0.084316    0.099441    0.109521    0.157026    0.160000
     0.171320    0.176610    0.230533    0.235549    0.291008    0.335489
     0.341244    0.344495    0.345872    0.348654    0.350709    0.353177
     1.007858

 Minimum Search - Taking P-RFO Step
 Searching for Lamda that Maximizes Along the Constraint modes Only
 Value Taken    Lamda =   0.00001247
 Searching for Lamda that Minimizes Along All other modes
 Value Taken    Lamda =  -0.00026161
 Step Taken.  Stepsize is  0.035915

                             Maximum     Tolerance    Cnvgd?
         Gradient            0.008909       0.000300      NO
         Displacement        0.024827       0.001200      NO
         Energy change      0.008449       0.000001      NO


 New Cartesian Coordinates Obtained by Inverse Iteration

 Displacement from previous Coordinates is:  0.041387
 ----------------------------------------------------------------
             Standard Nuclear Orientation (Angstroms)
    I     Atom           X                Y                Z
 ----------------------------------------------------------------
    1      Br     -0.6891400035     1.7801356388     0.1946870360
    2      Br      2.6866707103    -0.0630572098    -0.3552162082
    3      C      -0.5595745744    -0.1326617730    -0.3131532288
    4      C       0.5469193155    -0.8168141320     0.4279247244
    5      C      -1.8919438916    -0.8334248817    -0.0176388345
    6      H      -0.3595809356    -0.1190194371    -1.3841592995
    7      H       0.6419139420    -0.5935439151     1.4862214124
    8      H       0.6597875820    -1.8714799977     0.1863580543
    9      H      -2.1155225872    -0.8313310057     1.0523668315
   10      H      -2.7050579087    -0.3259654901    -0.5409036498
   11      H      -1.8496706490    -1.8718367965    -0.3656888379
 ----------------------------------------------------------------
 Nuclear Repulsion Energy =   538.6359291568 hartrees
 There are       47 alpha and       47 beta electrons

                       Distance Matrix (Angstroms)
             Br(  1)   Br(  2)   C (  3)   C (  4)   C (  5)   H (  6)
   Br(  2)  3.885338
   C (  3)  1.983301  3.247264
   C (  4)  2.885549  2.399999  1.497194
   C (  5)  2.884877  4.655227  1.534147  2.479285
   H (  6)  2.491617  3.215821  1.089604  2.142967  2.173911
   H (  7)  3.012328  2.802381  2.212179  1.085756  2.956277  3.076890
   H (  8)  3.892810  2.769829  2.181707  1.087848  2.762337  2.564518
   H (  9)  3.096763  5.062864  2.184893  2.734728  1.093117  3.086645
   H ( 10)  3.006772  5.401327  2.166180  3.428544  1.092005  2.501034
   H ( 11)  3.872694  4.883665  2.166065  2.736154  1.096004  2.515953
             H (  7)   H (  8)   H (  9)   H ( 10)
   H (  8)  1.822933
   H (  9)  2.801469  3.087754
   H ( 10)  3.922124  3.773554  1.772416
   H ( 11)  3.357320  2.569462  1.778823  1.775417
 
 Applying Cartesian multipole field
    Component          Value
    ---------          -----
     (2,0,0)        1.00000E-11
     (0,2,0)        2.00000E-11
     (0,0,2)       -3.00000E-10
 Nucleus-field energy     =     0.0000000061 hartrees
 Requested basis set is 6-31G(d,p)
 There are 46 shells and 145 basis functions
 A cutoff of  1.0D-14 yielded    979 shell pairs
 There are      9701 function pairs
 Smallest overlap matrix eigenvalue = 7.22E-04
 Guess from superposition of atomic densities
 Warning:  Energy on first SCF cycle will be non-variational
 SAD guess density has 93.945746 electrons

 -----------------------------------------------------------------------
  General SCF calculation program by
  Eric Jon Sundstrom, Paul Horn, Yuezhi Mao, Dmitri Zuev, Alec White,
  David Stuck, Shaama M.S., Shane Yost, Joonho Lee, David Small,
  Daniel Levine, Susi Lehtola, Hugh Burton, Evgeny Epifanovsky
 -----------------------------------------------------------------------
 Exchange:     0.2000 Hartree-Fock + 0.0800 Slater + 0.7200 B88
 Correlation:  0.1900 VWN1RPA + 0.8100 LYP
 Using SG-1 standard quadrature grid
 using 12 threads for integral computing
 -------------------------------------------------------
 OpenMP Integral computing Module                
 Release: version 1.0, May 2013, Q-Chem Inc. Pittsburgh 
 -------------------------------------------------------
 -------------------------------------------------------
 OpenMP BLAS3 based DFT computing Module                
 Release: version 1.0, May 2013, Q-Chem Inc. Pittsburgh 
 -------------------------------------------------------
 A unrestricted SCF calculation will be
 performed using DIIS
 SCF converges when DIIS error is below 1.0e-06
 Alpha HF Exchange    Energy = -19.61968723935522
 Beta HF Exchange     Energy = -19.61968723935522
 DFT Correlation      Energy =  -5.20494298823831
 DFT Exchange         Energy = -155.88612950488027
 One-Electron (alpha) Energy = -4195.04802594753164
 One-Electron (beta)  Energy = -4195.04802594753164
 Total Coulomb        Energy = 2778.92777753682230
 ---------------------------------------
  Cycle       Energy         DIIS error
 ---------------------------------------
    1   -5272.8627921671      1.83e-01  
 Alpha HF Exchange    Energy = -19.72981291450422
 Beta HF Exchange     Energy = -19.72981291450422
 DFT Correlation      Energy =  -5.25380298146915
 DFT Exchange         Energy = -157.03267416079791
 One-Electron (alpha) Energy = -4205.67361493855333
 One-Electron (beta)  Energy = -4205.67361493855242
 Total Coulomb        Energy = 2808.91186533380869
    2   -5265.5455383517      1.04e-02  
 Alpha HF Exchange    Energy = -19.59023852147273
 Beta HF Exchange     Energy = -19.59023852147272
 DFT Correlation      Energy =  -5.22175922057186
 DFT Exchange         Energy = -155.94585626616427
 One-Electron (alpha) Energy = -4188.90710207729262
 One-Electron (beta)  Energy = -4188.90710207729353
 Total Coulomb        Energy = 2774.05521932973943
    3   -5265.4711481916      4.91e-03  
 Alpha HF Exchange    Energy = -19.70305371046821
 Beta HF Exchange     Energy = -19.70305371046822
 DFT Correlation      Energy =  -5.24021147191660
 DFT Exchange         Energy = -156.78306366947976
 One-Electron (alpha) Energy = -4203.03169933171284
 One-Electron (beta)  Energy = -4203.03169933171375
 Total Coulomb        Energy = 2803.39506926450258
    4   -5265.4617827983      4.52e-03  
 Alpha HF Exchange    Energy = -19.66849241937242
 Beta HF Exchange     Energy = -19.66849241937240
 DFT Correlation      Energy =  -5.24044840995007
 DFT Exchange         Energy = -156.55851763440970
 One-Electron (alpha) Energy = -4198.48889711060747
 One-Electron (beta)  Energy = -4198.48889711060474
 Total Coulomb        Energy = 2793.80692256312841
    5   -5265.6708933783      1.22e-03  
 Alpha HF Exchange    Energy = -19.65777667807616
 Beta HF Exchange     Energy = -19.65777667807619
 DFT Correlation      Energy =  -5.23577263949196
 DFT Exchange         Energy = -156.46384531720142
 One-Electron (alpha) Energy = -4197.67198350497983
 One-Electron (beta)  Energy = -4197.67198350498347
 Total Coulomb        Energy = 2792.03556115078754
    6   -5265.6876480091      1.66e-04  
 Alpha HF Exchange    Energy = -19.65763862530094
 Beta HF Exchange     Energy = -19.65763862530092
 DFT Correlation      Energy =  -5.23589296576518
 DFT Exchange         Energy = -156.46402808688390
 One-Electron (alpha) Energy = -4197.51582833336488
 One-Electron (beta)  Energy = -4197.51582833336124
 Total Coulomb        Energy = 2791.72298158195781
    7   -5265.6879442251      8.16e-05  
 Alpha HF Exchange    Energy = -19.65817879095096
 Beta HF Exchange     Energy = -19.65817879095093
 DFT Correlation      Energy =  -5.23595260712973
 DFT Exchange         Energy = -156.46797754865855
 One-Electron (alpha) Energy = -4197.61750707970987
 One-Electron (beta)  Energy = -4197.61750707970805
 Total Coulomb        Energy = 2791.93134826450796
    8   -5265.6880244697      2.15e-05  
 Alpha HF Exchange    Energy = -19.65827792966396
 Beta HF Exchange     Energy = -19.65827792966398
 DFT Correlation      Energy =  -5.23599882131267
 DFT Exchange         Energy = -156.46870031036616
 One-Electron (alpha) Energy = -4197.63323001123263
 One-Electron (beta)  Energy = -4197.63323001123445
 Total Coulomb        Energy = 2791.96375568234544
    9   -5265.6880301682      3.35e-06  
 Alpha HF Exchange    Energy = -19.65826993447527
 Beta HF Exchange     Energy = -19.65826993447527
 DFT Correlation      Energy =  -5.23599598394599
 DFT Exchange         Energy = -156.46863534267385
 One-Electron (alpha) Energy = -4197.63125317555750
 One-Electron (beta)  Energy = -4197.63125317555750
 Total Coulomb        Energy = 2791.95971812383232
   10   -5265.6880302599      1.92e-06  
 Alpha HF Exchange    Energy = -19.65827289772408
 Beta HF Exchange     Energy = -19.65827289772408
 DFT Correlation      Energy =  -5.23599644133851
 DFT Exchange         Energy = -156.46865690822807
 One-Electron (alpha) Energy = -4197.63201680640759
 One-Electron (beta)  Energy = -4197.63201680640850
 Total Coulomb        Energy = 2791.96127329935916
   11   -5265.6880302956      1.68e-07  Convergence criterion met
 ---------------------------------------
 SCF time:   CPU 45.23s  wall 3.00s 
<S^2> =          0.000000000
 Alpha HF Exchange    Energy = -19.65827289772408
 Beta HF Exchange     Energy = -19.65827289772408
 DFT Correlation      Energy =  -5.23599644133851
 DFT Exchange         Energy = -156.46865690822807
 One-Electron (alpha) Energy = -4197.63201680640759
 One-Electron (beta)  Energy = -4197.63201680640850
 Total Coulomb        Energy = 2791.96127329935916
 Nuclear repulsion Energy = 538.63592916292021
 SCF   energy in the final basis set =    -5265.6880302956
 Total energy in the final basis set =    -5265.6880302956
 
 --------------------------------------------------------------
 
                    Orbital Energies (a.u.)
 --------------------------------------------------------------
 
 Alpha MOs
 -- Occupied --
*******-482.841 -62.519 -62.499 -56.340 -56.336 -56.336 -56.320
-56.316 -56.316 -10.287 -10.281 -10.221  -8.706  -8.684  -6.536
 -6.523  -6.523  -6.514  -6.502  -6.502  -2.630  -2.626  -2.626
 -2.616  -2.616  -2.607  -2.604  -2.604  -2.594  -2.594  -0.862
 -0.762  -0.744  -0.706  -0.614  -0.507  -0.476  -0.451  -0.435
 -0.402  -0.369  -0.325  -0.290  -0.289  -0.271  -0.268
 -- Virtual --
 -0.100  -0.023   0.071   0.107   0.116   0.142   0.150   0.152
  0.176   0.200   0.222   0.247   0.325   0.333   0.343   0.353
  0.358   0.409   0.433   0.464   0.482   0.496   0.534   0.566
  0.583   0.601   0.616   0.629   0.633   0.652   0.699   0.711
  0.761   0.765   0.826   0.830   0.848   0.852   0.872   0.881
  0.901   0.922   0.986   1.101   1.291   1.322   1.345   1.500
  1.570   1.644   1.707   1.744   1.791   1.803   1.854   1.908
  1.987   2.004   2.019   2.049   2.059   2.112   2.225   2.269
  2.324   2.413   2.491   2.520   2.575   2.594   2.692   2.700
  2.783   2.835   2.872   3.167   3.228   3.290   3.399   3.422
  3.444   4.193   4.394   4.531   4.723   4.733   4.738   4.742
  4.758   4.765   4.810   4.822   4.902   4.971   6.289   6.309
 90.260  90.405
 
 Beta MOs
 -- Occupied --
*******-482.841 -62.519 -62.499 -56.340 -56.336 -56.336 -56.320
-56.316 -56.316 -10.287 -10.281 -10.221  -8.706  -8.684  -6.536
 -6.523  -6.523  -6.514  -6.502  -6.502  -2.630  -2.626  -2.626
 -2.616  -2.616  -2.607  -2.604  -2.604  -2.594  -2.594  -0.862
 -0.762  -0.744  -0.706  -0.614  -0.507  -0.476  -0.451  -0.435
 -0.402  -0.369  -0.325  -0.290  -0.289  -0.271  -0.268
 -- Virtual --
 -0.100  -0.023   0.071   0.107   0.116   0.142   0.150   0.152
  0.176   0.200   0.222   0.247   0.325   0.333   0.343   0.353
  0.358   0.409   0.433   0.464   0.482   0.496   0.534   0.566
  0.583   0.601   0.616   0.629   0.633   0.652   0.699   0.711
  0.761   0.765   0.826   0.830   0.848   0.852   0.872   0.881
  0.901   0.922   0.986   1.101   1.291   1.322   1.345   1.500
  1.570   1.644   1.707   1.744   1.791   1.803   1.854   1.908
  1.987   2.004   2.019   2.049   2.059   2.112   2.225   2.269
  2.324   2.413   2.491   2.520   2.575   2.594   2.692   2.700
  2.783   2.835   2.872   3.167   3.228   3.290   3.399   3.422
  3.444   4.193   4.394   4.531   4.723   4.733   4.738   4.742
  4.758   4.765   4.810   4.822   4.902   4.971   6.289   6.309
 90.260  90.405
 --------------------------------------------------------------
 
          Ground-State Mulliken Net Atomic Charges

     Atom                 Charge (a.u.)    Spin (a.u.)
  --------------------------------------------------------
      1 Br                   -0.077257      -0.000000
      2 Br                   -0.223863      -0.000000
      3 C                    -0.142415      -0.000000
      4 C                    -0.189978       0.000000
      5 C                    -0.326738       0.000000
      6 H                     0.183711       0.000000
      7 H                     0.188108       0.000000
      8 H                     0.174900      -0.000000
      9 H                     0.137973      -0.000000
     10 H                     0.151074      -0.000000
     11 H                     0.124485      -0.000000
  --------------------------------------------------------
  Sum of atomic charges =     0.000000
  Sum of spin   charges =    -0.000000

 -----------------------------------------------------------------
                    Cartesian Multipole Moments
 -----------------------------------------------------------------
    Charge (ESU x 10^10)
                 0.0000
    Dipole Moment (Debye)
         X      -3.3038      Y      -2.7496      Z       0.4191
       Tot       4.3187
    Quadrupole Moments (Debye-Ang)
        XX     -62.7498     XY       1.9125     YY     -56.0980
        XZ       1.4741     YZ      -0.5763     ZZ     -55.3952
    Octopole Moments (Debye-Ang^2)
       XXX     -89.9265    XXY     -17.1867    XYY     -24.6075
       YYY     -56.4625    XXZ       0.7915    XYZ      -1.3819
       YYZ       4.0658    XZZ     -25.1929    YZZ     -19.7754
       ZZZ       8.0371
    Hexadecapole Moments (Debye-Ang^3)
      XXXX   -1131.6532   XXXY      69.4537   XXYY    -275.8195
      XYYY      45.3657   YYYY    -457.5430   XXXZ      44.0120
      XXYZ      -8.4895   XYYZ      16.9094   YYYZ      -5.7164
      XXZZ    -207.7789   XYZZ      17.8785   YYZZ    -102.6064
      XZZZ      53.6404   YZZZ     -16.0126   ZZZZ    -109.8274
 -----------------------------------------------------------------
 Calculating analytic gradient of the SCF energy
 Gradient of SCF Energy
            1           2           3           4           5           6
    1   0.0000458   0.0409041  -0.0021162  -0.0359625   0.0002345   0.0000191
    2   0.0002123   0.0143624  -0.0011085  -0.0125111   0.0006018   0.0001774
    3   0.0000527  -0.0146525   0.0002937   0.0131170  -0.0002275  -0.0000084
            7           8           9          10          11
    1  -0.0015579  -0.0015768   0.0000231  -0.0000403   0.0000270
    2  -0.0010244  -0.0004870  -0.0000916  -0.0000729  -0.0000584
    3   0.0004406   0.0008746   0.0000376   0.0000505   0.0000217
 Max gradient component =       4.090E-02
 RMS gradient           =       1.063E-02
 Gradient time:  CPU 16.75 s  wall 1.47 s
 Geometry Optimization Parameters
   NAtoms,    NIC,     NZ,  NCons,   NDum,   NFix, NCnnct, MaxDiis
       11      68       0       1       0       0       0       0

 Cartesian Hessian Update
 Hessian Updated using BFGS Update


** CONSTRAINED OPTIMIZATION IN DELOCALIZED INTERNAL COORDINATES **
   Searching for a Minimum

   Optimization Cycle:   3

                       Coordinates (Angstroms)
     ATOM                X               Y               Z
      1  Br       -0.6891400035    1.7801356388    0.1946870360
      2  Br        2.6866707103   -0.0630572098   -0.3552162082
      3  C        -0.5595745744   -0.1326617730   -0.3131532288
      4  C         0.5469193155   -0.8168141320    0.4279247244
      5  C        -1.8919438916   -0.8334248817   -0.0176388345
      6  H        -0.3595809356   -0.1190194371   -1.3841592995
      7  H         0.6419139420   -0.5935439151    1.4862214124
      8  H         0.6597875820   -1.8714799977    0.1863580543
      9  H        -2.1155225872   -0.8313310057    1.0523668315
     10  H        -2.7050579087   -0.3259654901   -0.5409036498
     11  H        -1.8496706490   -1.8718367965   -0.3656888379
   Point Group: c1    Number of degrees of freedom:    27


   Energy is  -5265.688030296

              Constraints and their Current Values
                                        Value     Constraint
   Distance(Angs):        2   4             2.399999     2.400000
 Hessian Updated using BFGS Update

   Using Lagrange Multiplier Algorithm


 26 Hessian modes will be used to form the next step
  Hessian Eigenvalues:
    -0.989844    0.038111    0.045002    0.047397    0.075510    0.082403
     0.083108    0.083564    0.084355    0.109553    0.156410    0.158894
     0.160000    0.165139    0.177457    0.218600    0.238029    0.290584
     0.326474    0.341280    0.344458    0.345893    0.348739    0.351275
     0.353912    1.011392

 Minimum Search - Taking P-RFO Step
 Searching for Lamda that Maximizes Along the Constraint modes Only
 Value Taken    Lamda =   0.00000000
 Searching for Lamda that Minimizes Along All other modes
 Value Taken    Lamda =  -0.00022487
 Step Taken.  Stepsize is  0.073528

                             Maximum     Tolerance    Cnvgd?
         Gradient            0.001970       0.000300      NO
         Displacement        0.051128       0.001200      NO
         Energy change      0.000042       0.000001      NO


 New Cartesian Coordinates Obtained by Inverse Iteration

 Displacement from previous Coordinates is:  0.086752
 ----------------------------------------------------------------
             Standard Nuclear Orientation (Angstroms)
    I     Atom           X                Y                Z
 ----------------------------------------------------------------
    1      Br     -0.6853722898     1.7759940874     0.2001810700
    2      Br      2.6675015930    -0.0586402909    -0.3707088620
    3      C      -0.5579835014    -0.1356002571    -0.3064899888
    4      C       0.5407733655    -0.8221428006     0.4380495161
    5      C      -1.8962737473    -0.8326206876    -0.0207452092
    6      H      -0.3521729638    -0.1249482949    -1.3762783367
    7      H       0.6596927604    -0.5882274869     1.4912212424
    8      H       0.6754286319    -1.8720823789     0.1892858743
    9      H      -2.1288012818    -0.8295527775     1.0471477066
   10      H      -2.7025632210    -0.3207763563    -0.5506526259
   11      H      -1.8554283458    -1.8704017568    -0.3702123868
 ----------------------------------------------------------------
 Nuclear Repulsion Energy =   540.0564229533 hartrees
 There are       47 alpha and       47 beta electrons

                       Distance Matrix (Angstroms)
             Br(  1)   Br(  2)   C (  3)   C (  4)   C (  5)   H (  6)
   Br(  2)  3.864397
   C (  3)  1.981700  3.227042
   C (  4)  2.882764  2.400000  1.494305
   C (  5)  2.884434  4.642151  1.535744  2.479879
   H (  6)  2.491953  3.183395  1.089458  2.138976  2.173135
   H (  7)  3.010902  2.789004  2.217966  1.085370  2.979721  3.075883
   H (  8)  3.893631  2.751458  2.186886  1.087377  2.781770  2.561139
   H (  9)  3.096726  5.060548  2.186635  2.738190  1.092920  3.086401
   H ( 10)  3.004872  5.379469  2.166363  3.427555  1.092195  2.498868
   H ( 11)  3.871767  4.872307  2.167247  2.737502  1.095803  2.513673
             H (  7)   H (  8)   H (  9)   H ( 10)
   H (  8)  1.828542
   H (  9)  2.833926  3.112314
   H ( 10)  3.942784  3.790104  1.772293
   H ( 11)  3.381529  2.591964  1.779609  1.775256
 
 Applying Cartesian multipole field
    Component          Value
    ---------          -----
     (2,0,0)        1.00000E-11
     (0,2,0)        2.00000E-11
     (0,0,2)       -3.00000E-10
 Nucleus-field energy     =     0.0000000054 hartrees
 Requested basis set is 6-31G(d,p)
 There are 46 shells and 145 basis functions
 A cutoff of  1.0D-14 yielded    979 shell pairs
 There are      9701 function pairs
 Smallest overlap matrix eigenvalue = 7.22E-04
 Guess from superposition of atomic densities
 Warning:  Energy on first SCF cycle will be non-variational
 SAD guess density has 93.945746 electrons

 -----------------------------------------------------------------------
  General SCF calculation program by
  Eric Jon Sundstrom, Paul Horn, Yuezhi Mao, Dmitri Zuev, Alec White,
  David Stuck, Shaama M.S., Shane Yost, Joonho Lee, David Small,
  Daniel Levine, Susi Lehtola, Hugh Burton, Evgeny Epifanovsky
 -----------------------------------------------------------------------
 Exchange:     0.2000 Hartree-Fock + 0.0800 Slater + 0.7200 B88
 Correlation:  0.1900 VWN1RPA + 0.8100 LYP
 Using SG-1 standard quadrature grid
 using 12 threads for integral computing
 -------------------------------------------------------
 OpenMP Integral computing Module                
 Release: version 1.0, May 2013, Q-Chem Inc. Pittsburgh 
 -------------------------------------------------------
 -------------------------------------------------------
 OpenMP BLAS3 based DFT computing Module                
 Release: version 1.0, May 2013, Q-Chem Inc. Pittsburgh 
 -------------------------------------------------------
 A unrestricted SCF calculation will be
 performed using DIIS
 SCF converges when DIIS error is below 1.0e-06
 Alpha HF Exchange    Energy = -19.62006526893822
 Beta HF Exchange     Energy = -19.62006526893822
 DFT Correlation      Energy =  -5.20510707903999
 DFT Exchange         Energy = -155.88693634315018
 One-Electron (alpha) Energy = -4196.46590069663762
 One-Electron (beta)  Energy = -4196.46590069663762
 Total Coulomb        Energy = 2780.33721330859498
 ---------------------------------------
  Cycle       Energy         DIIS error
 ---------------------------------------
    1   -5272.8703390860      1.83e-01  
 Alpha HF Exchange    Energy = -19.73018817743910
 Beta HF Exchange     Energy = -19.73018817743912
 DFT Correlation      Energy =  -5.25399771568115
 DFT Exchange         Energy = -157.03510384245817
 One-Electron (alpha) Energy = -4207.12641683168295
 One-Electron (beta)  Energy = -4207.12641683168385
 Total Coulomb        Energy = 2810.40098360787533
    2   -5265.5449050098      1.04e-02  
 Alpha HF Exchange    Energy = -19.59030643484585
 Beta HF Exchange     Energy = -19.59030643484585
 DFT Correlation      Energy =  -5.22197773403647
 DFT Exchange         Energy = -155.94652817535797
 One-Electron (alpha) Energy = -4190.28660508421399
 One-Electron (beta)  Energy = -4190.28660508421490
 Total Coulomb        Energy = 2775.39938405942121
    3   -5265.4665219294      4.95e-03  
 Alpha HF Exchange    Energy = -19.70324961214346
 Beta HF Exchange     Energy = -19.70324961214347
 DFT Correlation      Energy =  -5.24031403732321
 DFT Exchange         Energy = -156.78388277762318
 One-Electron (alpha) Energy = -4204.47271459512558
 One-Electron (beta)  Energy = -4204.47271459512649
 Total Coulomb        Energy = 2804.86116949751749
    4   -5265.4585327732      4.55e-03  
 Alpha HF Exchange    Energy = -19.66876743634016
 Beta HF Exchange     Energy = -19.66876743634016
 DFT Correlation      Energy =  -5.24065524298670
 DFT Exchange         Energy = -156.56050204433160
 One-Electron (alpha) Energy = -4199.93016428285318
 One-Electron (beta)  Energy = -4199.93016428285409
 Total Coulomb        Energy = 2795.27133779104042
    5   -5265.6712599759      1.22e-03  
 Alpha HF Exchange    Energy = -19.65793242823157
 Beta HF Exchange     Energy = -19.65793242823159
 DFT Correlation      Energy =  -5.23593472765712
 DFT Exchange         Energy = -156.46479622535179
 One-Electron (alpha) Energy = -4199.09695731975989
 One-Electron (beta)  Energy = -4199.09695731976262
 Total Coulomb        Energy = 2793.46635472612979
    6   -5265.6877327641      1.74e-04  
 Alpha HF Exchange    Energy = -19.65785383454057
 Beta HF Exchange     Energy = -19.65785383454057
 DFT Correlation      Energy =  -5.23608567793370
 DFT Exchange         Energy = -156.46552737406276
 One-Electron (alpha) Energy = -4198.94563607089458
 One-Electron (beta)  Energy = -4198.94563607089367
 Total Coulomb        Energy = 2793.16410968522723
    7   -5265.6880602189      8.33e-05  
 Alpha HF Exchange    Energy = -19.65840123390609
 Beta HF Exchange     Energy = -19.65840123390612
 DFT Correlation      Energy =  -5.23614586544710
 DFT Exchange         Energy = -156.46952940925001
 One-Electron (alpha) Energy = -4199.04768967699874
 One-Electron (beta)  Energy = -4199.04768967700329
 Total Coulomb        Energy = 2793.37329142427825
    8   -5265.6881427135      2.20e-05  
 Alpha HF Exchange    Energy = -19.65850209125170
 Beta HF Exchange     Energy = -19.65850209125170
 DFT Correlation      Energy =  -5.23619221787352
 DFT Exchange         Energy = -156.47026072096148
 One-Electron (alpha) Energy = -4199.06401184664628
 One-Electron (beta)  Energy = -4199.06401184664719
 Total Coulomb        Energy = 2793.40690913161325
    9   -5265.6881487243      3.39e-06  
 Alpha HF Exchange    Energy = -19.65849388608465
 Beta HF Exchange     Energy = -19.65849388608464
 DFT Correlation      Energy =  -5.23618955428319
 DFT Exchange         Energy = -156.47019479216300
 One-Electron (alpha) Energy = -4199.06190616858112
 One-Electron (beta)  Energy = -4199.06190616858021
 Total Coulomb        Energy = 2793.40261267875803
   10   -5265.6881488183      1.93e-06  
 Alpha HF Exchange    Energy = -19.65849701062099
 Beta HF Exchange     Energy = -19.65849701062102
 DFT Correlation      Energy =  -5.23618994653704
 DFT Exchange         Energy = -156.47021727006569
 One-Electron (alpha) Energy = -4199.06273301751662
 One-Electron (beta)  Energy = -4199.06273301751935
 Total Coulomb        Energy = 2793.40429545951702
   11   -5265.6881488546      1.75e-07  Convergence criterion met
 ---------------------------------------
 SCF time:   CPU 44.82s  wall 4.00s 
<S^2> =         -0.000000000
 Alpha HF Exchange    Energy = -19.65849701062099
 Beta HF Exchange     Energy = -19.65849701062102
 DFT Correlation      Energy =  -5.23618994653704
 DFT Exchange         Energy = -156.47021727006569
 One-Electron (alpha) Energy = -4199.06273301751662
 One-Electron (beta)  Energy = -4199.06273301751935
 Total Coulomb        Energy = 2793.40429545951702
 Nuclear repulsion Energy = 540.05642295873304
 SCF   energy in the final basis set =    -5265.6881488546
 Total energy in the final basis set =    -5265.6881488546
 
 --------------------------------------------------------------
 
                    Orbital Energies (a.u.)
 --------------------------------------------------------------
 
 Alpha MOs
 -- Occupied --
*******-482.840 -62.519 -62.498 -56.341 -56.337 -56.337 -56.319
-56.315 -56.315 -10.287 -10.281 -10.221  -8.706  -8.683  -6.537
 -6.524  -6.523  -6.513  -6.501  -6.501  -2.630  -2.627  -2.626
 -2.616  -2.616  -2.606  -2.603  -2.603  -2.593  -2.593  -0.862
 -0.762  -0.744  -0.706  -0.614  -0.508  -0.477  -0.451  -0.435
 -0.402  -0.369  -0.324  -0.290  -0.289  -0.271  -0.267
 -- Virtual --
 -0.099  -0.023   0.071   0.106   0.116   0.142   0.150   0.152
  0.175   0.200   0.222   0.248   0.325   0.334   0.344   0.355
  0.359   0.409   0.432   0.464   0.481   0.497   0.534   0.566
  0.584   0.600   0.616   0.630   0.633   0.653   0.695   0.712
  0.762   0.764   0.827   0.833   0.847   0.853   0.871   0.882
  0.904   0.921   0.991   1.103   1.288   1.323   1.348   1.502
  1.572   1.641   1.704   1.744   1.791   1.803   1.856   1.910
  1.982   2.004   2.019   2.049   2.059   2.113   2.224   2.278
  2.326   2.416   2.486   2.520   2.577   2.594   2.691   2.700
  2.780   2.835   2.873   3.167   3.233   3.292   3.397   3.422
  3.444   4.195   4.394   4.531   4.723   4.733   4.739   4.743
  4.758   4.766   4.810   4.823   4.904   4.972   6.291   6.309
 90.265  90.405
 
 Beta MOs
 -- Occupied --
*******-482.840 -62.519 -62.498 -56.341 -56.337 -56.337 -56.319
-56.315 -56.315 -10.287 -10.281 -10.221  -8.706  -8.683  -6.537
 -6.524  -6.523  -6.513  -6.501  -6.501  -2.630  -2.627  -2.626
 -2.616  -2.616  -2.606  -2.603  -2.603  -2.593  -2.593  -0.862
 -0.762  -0.744  -0.706  -0.614  -0.508  -0.477  -0.451  -0.435
 -0.402  -0.369  -0.324  -0.290  -0.289  -0.271  -0.267
 -- Virtual --
 -0.099  -0.023   0.071   0.106   0.116   0.142   0.150   0.152
  0.175   0.200   0.222   0.248   0.325   0.334   0.344   0.355
  0.359   0.409   0.432   0.464   0.481   0.497   0.534   0.566
  0.584   0.600   0.616   0.630   0.633   0.653   0.695   0.712
  0.762   0.764   0.827   0.833   0.847   0.853   0.871   0.882
  0.904   0.921   0.991   1.103   1.288   1.323   1.348   1.502
  1.572   1.641   1.704   1.744   1.791   1.803   1.856   1.910
  1.982   2.004   2.019   2.049   2.059   2.113   2.224   2.278
  2.326   2.416   2.486   2.520   2.577   2.594   2.691   2.700
  2.780   2.835   2.873   3.167   3.233   3.292   3.397   3.422
  3.444   4.195   4.394   4.531   4.723   4.733   4.739   4.743
  4.758   4.766   4.810   4.823   4.904   4.972   6.291   6.309
 90.265  90.405
 --------------------------------------------------------------
 
          Ground-State Mulliken Net Atomic Charges

     Atom                 Charge (a.u.)    Spin (a.u.)
  --------------------------------------------------------
      1 Br                   -0.075977      -0.000000
      2 Br                   -0.229095      -0.000000
      3 C                    -0.142068      -0.000000
      4 C                    -0.190801       0.000000
      5 C                    -0.326710      -0.000000
      6 H                     0.184523       0.000000
      7 H                     0.189924      -0.000000
      8 H                     0.177007      -0.000000
      9 H                     0.137961       0.000000
     10 H                     0.150807      -0.000000
     11 H                     0.124427       0.000000
  --------------------------------------------------------
  Sum of atomic charges =    -0.000000
  Sum of spin   charges =    -0.000000

 -----------------------------------------------------------------
                    Cartesian Multipole Moments
 -----------------------------------------------------------------
    Charge (ESU x 10^10)
                -0.0000
    Dipole Moment (Debye)
         X      -3.3155      Y      -2.7554      Z       0.4565
       Tot       4.3351
    Quadrupole Moments (Debye-Ang)
        XX     -62.8337     XY       1.8447     YY     -56.0337
        XZ       1.5632     YZ      -0.5884     ZZ     -55.3762
    Octopole Moments (Debye-Ang^2)
       XXX     -89.4492    XXY     -17.2411    XYY     -24.2308
       YYY     -56.3685    XXZ       1.0691    XYZ      -1.4270
       YYZ       4.1793    XZZ     -24.8081    YZZ     -19.7316
       ZZZ       8.4982
    Hexadecapole Moments (Debye-Ang^3)
      XXXX   -1123.2538   XXXY      67.8305   XXYY    -273.5215
      XYYY      43.8771   YYYY    -455.7307   XXXZ      46.2306
      XXYZ      -8.7980   XYYZ      17.6159   YYYZ      -6.0946
      XXZZ    -205.9085   XYZZ      17.4656   YYZZ    -102.5882
      XZZZ      55.7216   YZZZ     -16.4104   ZZZZ    -111.4481
 -----------------------------------------------------------------
 Calculating analytic gradient of the SCF energy
 Gradient of SCF Energy
            1           2           3           4           5           6
    1   0.0000909   0.0391528   0.0002991  -0.0393266   0.0000440  -0.0000498
    2  -0.0000017   0.0141517  -0.0001921  -0.0136144   0.0000044   0.0000397
    3  -0.0000340  -0.0147945   0.0000356   0.0144524   0.0001363   0.0000449
            7           8           9          10          11
    1  -0.0001342   0.0000307  -0.0000276  -0.0000570  -0.0000222
    2  -0.0003676  -0.0001105  -0.0000124   0.0000416   0.0000613
    3   0.0001540   0.0001571  -0.0000540  -0.0000372  -0.0000606
 Max gradient component =       3.933E-02
 RMS gradient           =       1.086E-02
 Gradient time:  CPU 16.76 s  wall 1.47 s
 Geometry Optimization Parameters
   NAtoms,    NIC,     NZ,  NCons,   NDum,   NFix, NCnnct, MaxDiis
       11      68       0       1       0       0       0       0

 Cartesian Hessian Update
 Hessian Updated using BFGS Update


** CONSTRAINED OPTIMIZATION IN DELOCALIZED INTERNAL COORDINATES **
   Searching for a Minimum

   Optimization Cycle:   4

                       Coordinates (Angstroms)
     ATOM                X               Y               Z
      1  Br       -0.6853722898    1.7759940874    0.2001810700
      2  Br        2.6675015930   -0.0586402909   -0.3707088620
      3  C        -0.5579835014   -0.1356002571   -0.3064899888
      4  C         0.5407733655   -0.8221428006    0.4380495161
      5  C        -1.8962737473   -0.8326206876   -0.0207452092
      6  H        -0.3521729638   -0.1249482949   -1.3762783367
      7  H         0.6596927604   -0.5882274869    1.4912212424
      8  H         0.6754286319   -1.8720823789    0.1892858743
      9  H        -2.1288012818   -0.8295527775    1.0471477066
     10  H        -2.7025632210   -0.3207763563   -0.5506526259
     11  H        -1.8554283458   -1.8704017568   -0.3702123868
   Point Group: c1    Number of degrees of freedom:    27


   Energy is  -5265.688148855

              Constraints and their Current Values
                                        Value     Constraint
   Distance(Angs):        2   4             2.400000     2.400000
 Hessian Updated using BFGS Update

 25 Hessian modes will be used to form the next step
  Hessian Eigenvalues:
     0.033100    0.045003    0.049404    0.075635    0.082403    0.083104
     0.083546    0.084363    0.109554    0.156806    0.159768    0.160000
     0.160190    0.166249    0.177598    0.220817    0.238672    0.290809
     0.330048    0.341285    0.344463    0.345918    0.348742    0.351330
     0.354031

 Minimum Search - Taking Simple RFO Step
 Searching for Lamda that Minimizes Along All modes
 Value Taken    Lamda =  -0.00000453
 Step Taken.  Stepsize is  0.010235

                             Maximum     Tolerance    Cnvgd?
         Gradient           0.000297      0.000300     YES
         Displacement       0.005687      0.001200      NO
         Energy change     -0.000119      0.000001      NO


 New Cartesian Coordinates Obtained by Inverse Iteration

 Displacement from previous Coordinates is:  0.012841
 ----------------------------------------------------------------
             Standard Nuclear Orientation (Angstroms)
    I     Atom           X                Y                Z
 ----------------------------------------------------------------
    1      Br     -0.6869148088     1.7761259305     0.2019928986
    2      Br      2.6669290087    -0.0615110130    -0.3733115612
    3      C      -0.5582077087    -0.1352094550    -0.3053911368
    4      C       0.5406476711    -0.8220249125     0.4394279004
    5      C      -1.8965426972    -0.8327946012    -0.0213388344
    6      H      -0.3516205521    -0.1248191645    -1.3751046041
    7      H       0.6621175214    -0.5857278856     1.4916800895
    8      H       0.6756383141    -1.8715990929     0.1898058589
    9      H      -2.1302731236    -0.8301313701     1.0463123528
   10      H      -2.7020548989    -0.3208208565    -0.5521211354
   11      H      -1.8549177260    -1.8704865791    -0.3711538284
 ----------------------------------------------------------------
 Nuclear Repulsion Energy =   539.9372595686 hartrees
 There are       47 alpha and       47 beta electrons

                       Distance Matrix (Angstroms)
             Br(  1)   Br(  2)   C (  3)   C (  4)   C (  5)   H (  6)
   Br(  2)  3.867319
   C (  3)  1.981718  3.226694
   C (  4)  2.883344  2.400000  1.494642
   C (  5)  2.884362  4.641555  1.535725  2.480387
   H (  6)  2.492639  3.181075  1.089529  2.138870  2.172716
   H (  7)  3.010238  2.787878  2.218474  1.085277  2.982786  3.075477
   H (  8)  3.893918  2.749320  2.186926  1.087262  2.782052  2.560360
   H (  9)  3.096568  5.061547  2.186643  2.739013  1.092939  3.086151
   H ( 10)  3.004441  5.378216  2.165966  3.427754  1.092107  2.498051
   H ( 11)  3.871758  4.870266  2.167249  2.737709  1.095859  2.513001
             H (  7)   H (  8)   H (  9)   H ( 10)
   H (  8)  1.829897
   H (  9)  2.838227  3.113101
   H ( 10)  3.945245  3.790011  1.772377
   H ( 11)  3.384704  2.591986  1.779711  1.775346
 
 Applying Cartesian multipole field
    Component          Value
    ---------          -----
     (2,0,0)        1.00000E-11
     (0,2,0)        2.00000E-11
     (0,0,2)       -3.00000E-10
 Nucleus-field energy     =     0.0000000053 hartrees
 Requested basis set is 6-31G(d,p)
 There are 46 shells and 145 basis functions
 A cutoff of  1.0D-14 yielded    979 shell pairs
 There are      9701 function pairs
 Smallest overlap matrix eigenvalue = 7.22E-04
 Guess from superposition of atomic densities
 Warning:  Energy on first SCF cycle will be non-variational
 SAD guess density has 93.945746 electrons

 -----------------------------------------------------------------------
  General SCF calculation program by
  Eric Jon Sundstrom, Paul Horn, Yuezhi Mao, Dmitri Zuev, Alec White,
  David Stuck, Shaama M.S., Shane Yost, Joonho Lee, David Small,
  Daniel Levine, Susi Lehtola, Hugh Burton, Evgeny Epifanovsky
 -----------------------------------------------------------------------
 Exchange:     0.2000 Hartree-Fock + 0.0800 Slater + 0.7200 B88
 Correlation:  0.1900 VWN1RPA + 0.8100 LYP
 Using SG-1 standard quadrature grid
 using 12 threads for integral computing
 -------------------------------------------------------
 OpenMP Integral computing Module                
 Release: version 1.0, May 2013, Q-Chem Inc. Pittsburgh 
 -------------------------------------------------------
 -------------------------------------------------------
 OpenMP BLAS3 based DFT computing Module                
 Release: version 1.0, May 2013, Q-Chem Inc. Pittsburgh 
 -------------------------------------------------------
 A unrestricted SCF calculation will be
 performed using DIIS
 SCF converges when DIIS error is below 1.0e-06
 Alpha HF Exchange    Energy = -19.62003508580155
 Beta HF Exchange     Energy = -19.62003508580155
 DFT Correlation      Energy =  -5.20509950718206
 DFT Exchange         Energy = -155.88688187100610
 One-Electron (alpha) Energy = -4196.34690529613181
 One-Electron (beta)  Energy = -4196.34690529613181
 Total Coulomb        Energy = 2780.21898585206418
 ---------------------------------------
  Cycle       Energy         DIIS error
 ---------------------------------------
    1   -5272.8696167161      1.83e-01  
 Alpha HF Exchange    Energy = -19.73019313338405
 Beta HF Exchange     Energy = -19.73019313338405
 DFT Correlation      Energy =  -5.25398947583278
 DFT Exchange         Energy = -157.03511325057494
 One-Electron (alpha) Energy = -4207.00668375152509
 One-Electron (beta)  Energy = -4207.00668375152600
 Total Coulomb        Energy = 2810.28074355209992
    2   -5265.5448533702      1.04e-02  
 Alpha HF Exchange    Energy = -19.59029088836526
[...]
             Standard Nuclear Orientation (Angstroms)
    I     Atom           X                Y                Z
 ----------------------------------------------------------------
    1      Br     -0.6977139007     1.7773866097     0.2222050683
    2      Br      2.6644441007    -0.0932357283    -0.4058580918
    3      C      -0.5592565479    -0.1295534935    -0.2981012805
    4      C       0.5407267755    -0.8150681992     0.4478290625
    5      C      -1.8952815911    -0.8366870068    -0.0285158688
    6      H      -0.3462746624    -0.1102910722    -1.3664440953
    7      H       0.6783210900    -0.5595728426     1.4935111365
    8      H       0.6609074860    -1.8703566636     0.2159800146
    9      H      -2.1371589068    -0.8436602355     1.0373273707
   10      H      -2.7002389308    -0.3264538768    -0.5617486007
   11      H      -1.8436739123    -1.8715064910    -0.3853867157
 ----------------------------------------------------------------
 Nuclear Repulsion Energy =   538.7041613444 hartrees
 There are       47 alpha and       47 beta electrons

                       Distance Matrix (Angstroms)
             Br(  1)   Br(  2)   C (  3)   C (  4)   C (  5)   H (  6)
   Br(  2)  3.898435
   C (  3)  1.981492  3.225706
   C (  4)  2.881920  2.400000  1.495428
   C (  5)  2.886245  4.635321  1.535473  2.482239
   H (  6)  2.492116  3.160292  1.089536  2.138941  2.171894
   H (  7)  2.995175  2.787429  2.219547  1.085201  3.002797  3.070992
   H (  8)  3.892547  2.749364  2.187116  1.087121  2.768096  2.572219
   H (  9)  3.099405  5.069646  2.187029  2.742152  1.092966  3.085971
   H ( 10)  3.008461  5.372012  2.166122  3.429555  1.092077  2.497080
   H ( 11)  3.872572  4.846214  2.166044  2.737823  1.095843  2.511286
             H (  7)   H (  8)   H (  9)   H ( 10)
   H (  8)  1.830449
   H (  9)  2.866311  3.091584
   H ( 10)  3.961452  3.779656  1.772457
   H ( 11)  3.407622  2.575766  1.779527  1.775386
 
 Applying Cartesian multipole field
    Component          Value
    ---------          -----
     (2,0,0)        1.00000E-11
     (0,2,0)        2.00000E-11
     (0,0,2)       -3.00000E-10
 Nucleus-field energy     =     0.0000000041 hartrees
 Requested basis set is 6-31G(d,p)
 There are 46 shells and 145 basis functions
 A cutoff of  1.0D-14 yielded    979 shell pairs
 There are      9701 function pairs
 Smallest overlap matrix eigenvalue = 7.22E-04
 Guess from superposition of atomic densities
 Warning:  Energy on first SCF cycle will be non-variational
 SAD guess density has 93.945746 electrons

 -----------------------------------------------------------------------
  General SCF calculation program by
  Eric Jon Sundstrom, Paul Horn, Yuezhi Mao, Dmitri Zuev, Alec White,
  David Stuck, Shaama M.S., Shane Yost, Joonho Lee, David Small,
  Daniel Levine, Susi Lehtola, Hugh Burton, Evgeny Epifanovsky
 -----------------------------------------------------------------------
 Exchange:     0.2000 Hartree-Fock + 0.0800 Slater + 0.7200 B88
 Correlation:  0.1900 VWN1RPA + 0.8100 LYP
 Using SG-1 standard quadrature grid
 using 12 threads for integral computing
 -------------------------------------------------------
 OpenMP Integral computing Module                
 Release: version 1.0, May 2013, Q-Chem Inc. Pittsburgh 
 -------------------------------------------------------
 -------------------------------------------------------
 OpenMP BLAS3 based DFT computing Module                
 Release: version 1.0, May 2013, Q-Chem Inc. Pittsburgh 
 -------------------------------------------------------
 A unrestricted SCF calculation will be
 performed using DIIS
 SCF converges when DIIS error is below 1.0e-06
 Alpha HF Exchange    Energy = -19.61999497306810
 Beta HF Exchange     Energy = -19.61999497306810
 DFT Correlation      Energy =  -5.20507019663183
 DFT Exchange         Energy = -155.88682418952325
 One-Electron (alpha) Energy = -4195.11488042209112
 One-Electron (beta)  Energy = -4195.11488042209112
 Total Coulomb        Energy = 2778.99270418570541
 ---------------------------------------
  Cycle       Energy         DIIS error
 ---------------------------------------
    1   -5272.8647796423      1.83e-01  
 Alpha HF Exchange    Energy = -19.73019053042428
 Beta HF Exchange     Energy = -19.73019053042431
 DFT Correlation      Energy =  -5.25395339489122
 DFT Exchange         Energy = -157.03507921035055
 One-Electron (alpha) Energy = -4205.75144355711654
 One-Electron (beta)  Energy = -4205.75144355711927
 Total Coulomb        Energy = 2809.00307732526107
    2   -5265.5450621066      1.04e-02  
 Alpha HF Exchange    Energy = -19.59027560960330
 Beta HF Exchange     Energy = -19.59027560960326
 DFT Correlation      Energy =  -5.22191241999322
 DFT Exchange         Energy = -155.94629516127458
 One-Electron (alpha) Energy = -4188.94218897445535
 One-Electron (beta)  Energy = -4188.94218897445171
 Total Coulomb        Energy = 2774.06272136305688
    3   -5265.4662540379      4.95e-03  
 Alpha HF Exchange    Energy = -19.70326398115319
 Beta HF Exchange     Energy = -19.70326398115317
 DFT Correlation      Energy =  -5.24028536530890
 DFT Exchange         Energy = -156.78395189888073
 One-Electron (alpha) Energy = -4203.09641473044667
 One-Electron (beta)  Energy = -4203.09641473044485
 Total Coulomb        Energy = 2803.46095357263812
    4   -5265.4584797663      4.55e-03  
 Alpha HF Exchange    Energy = -19.66874168613890
 Beta HF Exchange     Energy = -19.66874168613890
 DFT Correlation      Energy =  -5.24059278151380
 DFT Exchange         Energy = -156.56026040811574
 One-Electron (alpha) Energy = -4198.56845129179055
 One-Electron (beta)  Energy = -4198.56845129178964
 Total Coulomb        Energy = 2793.89970775976599
    5   -5265.6713700373      1.21e-03  
 Alpha HF Exchange    Energy = -19.65792580340497
 Beta HF Exchange     Energy = -19.65792580340499
 DFT Correlation      Energy =  -5.23588273674882
 DFT Exchange         Energy = -156.46470272014395
 One-Electron (alpha) Energy = -4197.73569191062688
 One-Electron (beta)  Energy = -4197.73569191062779
 Total Coulomb        Energy = 2792.09591370230373
    6   -5265.6877458342      1.75e-04  
 Alpha HF Exchange    Energy = -19.65784423753215
 Beta HF Exchange     Energy = -19.65784423753216
 DFT Correlation      Energy =  -5.23603490793432
 DFT Exchange         Energy = -156.46542386876081
 One-Electron (alpha) Energy = -4197.58422796682953
 One-Electron (beta)  Energy = -4197.58422796683135
 Total Coulomb        Energy = 2791.79336506789741
    7   -5265.6880767691      8.36e-05  
 Alpha HF Exchange    Energy = -19.65839455281524
 Beta HF Exchange     Energy = -19.65839455281523
 DFT Correlation      Energy =  -5.23609520418275
 DFT Exchange         Energy = -156.46944669519286
 One-Electron (alpha) Energy = -4197.68634430671955
 One-Electron (beta)  Energy = -4197.68634430672046
 Total Coulomb        Energy = 2792.00269875861795
    8   -5265.6881595114      2.20e-05  
 Alpha HF Exchange    Energy = -19.65849625013201
 Beta HF Exchange     Energy = -19.65849625013199
 DFT Correlation      Energy =  -5.23614186438317
 DFT Exchange         Energy = -156.47018413846584
 One-Electron (alpha) Energy = -4197.70282931517704
 One-Electron (beta)  Energy = -4197.70282931517340
 Total Coulomb        Energy = 2792.03665023176200
    9   -5265.6881655532      3.42e-06  
 Alpha HF Exchange    Energy = -19.65848791470247
 Beta HF Exchange     Energy = -19.65848791470247
 DFT Correlation      Energy =  -5.23613920890046
 DFT Exchange         Energy = -156.47011726635580
 One-Electron (alpha) Energy = -4197.70069781477832
 One-Electron (beta)  Energy = -4197.70069781477741
 Total Coulomb        Energy = 2792.03230093656748
   10   -5265.6881656492      1.93e-06  
 Alpha HF Exchange    Energy = -19.65849105671950
 Beta HF Exchange     Energy = -19.65849105671951
 DFT Correlation      Energy =  -5.23613958841753
 DFT Exchange         Energy = -156.47013985764056
 One-Electron (alpha) Energy = -4197.70152427500852
 One-Electron (beta)  Energy = -4197.70152427500943
 Total Coulomb        Energy = 2792.03398307553061
   11   -5265.6881656855      1.75e-07  Convergence criterion met
 ---------------------------------------
 SCF time:   CPU 45.04s  wall 4.00s 
<S^2> =         -0.000000000
 Alpha HF Exchange    Energy = -19.65849105671950
 Beta HF Exchange     Energy = -19.65849105671951
 DFT Correlation      Energy =  -5.23613958841753
 DFT Exchange         Energy = -156.47013985764056
 One-Electron (alpha) Energy = -4197.70152427500852
 One-Electron (beta)  Energy = -4197.70152427500943
 Total Coulomb        Energy = 2792.03398307553061
 Nuclear repulsion Energy = 538.70416134845925
 SCF   energy in the final basis set =    -5265.6881656855
 Total energy in the final basis set =    -5265.6881656855
 
 --------------------------------------------------------------
 
                    Orbital Energies (a.u.)
 --------------------------------------------------------------
 
 Alpha MOs
 -- Occupied --
*******-482.840 -62.520 -62.498 -56.341 -56.337 -56.337 -56.319
-56.315 -56.315 -10.288 -10.281 -10.221  -8.707  -8.683  -6.537
 -6.524  -6.524  -6.513  -6.501  -6.501  -2.630  -2.627  -2.626
 -2.616  -2.616  -2.606  -2.603  -2.603  -2.593  -2.593  -0.862
 -0.763  -0.744  -0.706  -0.614  -0.508  -0.478  -0.452  -0.434
 -0.402  -0.369  -0.324  -0.291  -0.289  -0.271  -0.267
 -- Virtual --
 -0.099  -0.023   0.071   0.106   0.116   0.143   0.150   0.151
  0.175   0.199   0.224   0.247   0.323   0.333   0.344   0.355
  0.358   0.409   0.432   0.465   0.480   0.498   0.534   0.565
  0.583   0.600   0.616   0.629   0.634   0.651   0.694   0.711
  0.762   0.762   0.828   0.834   0.846   0.855   0.872   0.882
  0.903   0.921   0.989   1.103   1.283   1.323   1.349   1.502
  1.573   1.642   1.705   1.744   1.792   1.802   1.856   1.909
  1.981   2.001   2.018   2.051   2.058   2.113   2.224   2.281
  2.326   2.418   2.482   2.520   2.579   2.593   2.690   2.699
  2.779   2.836   2.873   3.167   3.235   3.291   3.398   3.420
  3.444   4.194   4.393   4.531   4.722   4.732   4.739   4.742
  4.757   4.766   4.810   4.823   4.904   4.972   6.290   6.309
 90.263  90.405
 
 Beta MOs
 -- Occupied --
*******-482.840 -62.520 -62.498 -56.341 -56.337 -56.337 -56.319
-56.315 -56.315 -10.288 -10.281 -10.221  -8.707  -8.683  -6.537
 -6.524  -6.524  -6.513  -6.501  -6.501  -2.630  -2.627  -2.626
 -2.616  -2.616  -2.606  -2.603  -2.603  -2.593  -2.593  -0.862
 -0.763  -0.744  -0.706  -0.614  -0.508  -0.478  -0.452  -0.434
 -0.402  -0.369  -0.324  -0.291  -0.289  -0.271  -0.267
 -- Virtual --
 -0.099  -0.023   0.071   0.106   0.116   0.143   0.150   0.151
  0.175   0.199   0.224   0.247   0.323   0.333   0.344   0.355
  0.358   0.409   0.432   0.465   0.480   0.498   0.534   0.565
  0.583   0.600   0.616   0.629   0.634   0.651   0.694   0.711
  0.762   0.762   0.828   0.834   0.846   0.855   0.872   0.882
  0.903   0.921   0.989   1.103   1.283   1.323   1.349   1.502
  1.573   1.642   1.705   1.744   1.792   1.802   1.856   1.909
  1.981   2.001   2.018   2.051   2.058   2.113   2.224   2.281
  2.326   2.418   2.482   2.520   2.579   2.593   2.690   2.699
  2.779   2.836   2.873   3.167   3.235   3.291   3.398   3.420
  3.444   4.194   4.393   4.531   4.722   4.732   4.739   4.742
  4.757   4.766   4.810   4.823   4.904   4.972   6.290   6.309
 90.263  90.405
 --------------------------------------------------------------
 
          Ground-State Mulliken Net Atomic Charges

     Atom                 Charge (a.u.)    Spin (a.u.)
  --------------------------------------------------------
      1 Br                   -0.077083       0.000000
      2 Br                   -0.230278       0.000000
      3 C                    -0.141831      -0.000000
      4 C                    -0.190941       0.000000
      5 C                    -0.326995      -0.000000
      6 H                     0.185863      -0.000000
      7 H                     0.190986       0.000000
      8 H                     0.177051      -0.000000
      9 H                     0.137932      -0.000000
     10 H                     0.150646      -0.000000
     11 H                     0.124649       0.000000
  --------------------------------------------------------
  Sum of atomic charges =    -0.000000
  Sum of spin   charges =     0.000000

 -----------------------------------------------------------------
                    Cartesian Multipole Moments
 -----------------------------------------------------------------
    Charge (ESU x 10^10)
                -0.0000
    Dipole Moment (Debye)
         X      -3.3063      Y      -2.7077      Z       0.4981
       Tot       4.3025
    Quadrupole Moments (Debye-Ang)
        XX     -62.8543     XY       1.9354     YY     -56.1074
        XZ       1.6897     YZ      -0.6365     ZZ     -55.3743
    Octopole Moments (Debye-Ang^2)
       XXX     -88.6223    XXY     -16.6427    XYY     -24.1709
       YYY     -54.7186    XXZ       1.3465    XYZ      -1.4630
       YYZ       4.4941    XZZ     -24.4136    YZZ     -19.0519
       ZZZ       9.1321
    Hexadecapole Moments (Debye-Ang^3)
      XXXX   -1123.6219   XXXY      73.6379   XXYY    -274.1607
      XYYY      50.1115   YYYY    -457.0409   XXXZ      51.7727
      XXYZ      -9.8671   XYYZ      19.6258   YYYZ      -9.0546
      XXZZ    -206.0367   XYZZ      19.6354   YYZZ    -103.3620
      XZZZ      61.5737   YZZZ     -19.5143   ZZZZ    -115.7565
 -----------------------------------------------------------------
 Calculating analytic gradient of the SCF energy
 Gradient of SCF Energy
            1           2           3           4           5           6
    1   0.0000078   0.0389793  -0.0000431  -0.0389306   0.0000086   0.0000230
    2  -0.0000400   0.0132415   0.0001212  -0.0132970  -0.0000099   0.0000145
    3   0.0000725  -0.0156050   0.0000253   0.0156925  -0.0000446   0.0000099
            7           8           9          10          11
    1  -0.0000391  -0.0000027  -0.0000233   0.0000090   0.0000110
    2  -0.0000356   0.0000057  -0.0000200   0.0000093   0.0000104
    3   0.0000145  -0.0000392  -0.0000361  -0.0000422  -0.0000476
 Max gradient component =       3.898E-02
 RMS gradient           =       1.084E-02
 Gradient time:  CPU 16.77 s  wall 1.48 s
 Geometry Optimization Parameters
   NAtoms,    NIC,     NZ,  NCons,   NDum,   NFix, NCnnct, MaxDiis
       11      68       0       1       0       0       0       0

 Cartesian Hessian Update
 Hessian Updated using BFGS Update


** CONSTRAINED OPTIMIZATION IN DELOCALIZED INTERNAL COORDINATES **
   Searching for a Minimum

   Optimization Cycle:  10

                       Coordinates (Angstroms)
     ATOM                X               Y               Z
      1  Br       -0.6977139007    1.7773866097    0.2222050683
      2  Br        2.6644441007   -0.0932357283   -0.4058580918
      3  C        -0.5592565479   -0.1295534935   -0.2981012805
      4  C         0.5407267755   -0.8150681992    0.4478290625
      5  C        -1.8952815911   -0.8366870068   -0.0285158688
      6  H        -0.3462746624   -0.1102910722   -1.3664440953
      7  H         0.6783210900   -0.5595728426    1.4935111365
      8  H         0.6609074860   -1.8703566636    0.2159800146
      9  H        -2.1371589068   -0.8436602355    1.0373273707
     10  H        -2.7002389308   -0.3264538768   -0.5617486007
     11  H        -1.8436739123   -1.8715064910   -0.3853867157
   Point Group: c1    Number of degrees of freedom:    27


   Energy is  -5265.688165686

              Constraints and their Current Values
                                        Value     Constraint
   Distance(Angs):        2   4             2.400000     2.400000
 Hessian Updated using BFGS Update

 26 Hessian modes will be used to form the next step
  Hessian Eigenvalues:
     0.002825    0.033501    0.046083    0.064822    0.081707    0.082467
     0.083139    0.084347    0.109648    0.146630    0.158916    0.159953
     0.160189    0.162211    0.164262    0.179178    0.212454    0.239936
     0.291254    0.320053    0.341552    0.344477    0.346517    0.348660
     0.350638    0.353395

 Minimum Search - Taking Simple RFO Step
 Searching for Lamda that Minimizes Along All modes
 Value Taken    Lamda =   0.00000000
 Step Taken.  Stepsize is  0.002068

                             Maximum     Tolerance    Cnvgd?
         Gradient           0.000035      0.000300     YES
         Displacement       0.000940      0.001200     YES
         Energy change     -0.000001      0.000001     YES


                       Distance Matrix (Angstroms)
             Br(  1)   Br(  2)   C (  3)   C (  4)   C (  5)   H (  6)
   Br(  2)  3.898435
   C (  3)  1.981492  3.225706
   C (  4)  2.881920  2.400000  1.495428
   C (  5)  2.886245  4.635321  1.535473  2.482239
   H (  6)  2.492116  3.160292  1.089536  2.138941  2.171894
   H (  7)  2.995175  2.787429  2.219547  1.085201  3.002797  3.070992
   H (  8)  3.892547  2.749364  2.187116  1.087121  2.768096  2.572219
   H (  9)  3.099405  5.069646  2.187029  2.742152  1.092966  3.085971
   H ( 10)  3.008461  5.372012  2.166122  3.429555  1.092077  2.497080
   H ( 11)  3.872572  4.846214  2.166044  2.737823  1.095843  2.511286
             H (  7)   H (  8)   H (  9)   H ( 10)
   H (  8)  1.830449
   H (  9)  2.866311  3.091584
   H ( 10)  3.961452  3.779656  1.772457
   H ( 11)  3.407622  2.575766  1.779527  1.775386
 
 Final energy is   -5265.68816568552     


 ******************************
 **  OPTIMIZATION CONVERGED  **
 ******************************

                       Coordinates (Angstroms)
     ATOM                X               Y               Z
      1  Br       -0.6977139007    1.7773866097    0.2222050683
      2  Br        2.6644441007   -0.0932357283   -0.4058580918
      3  C        -0.5592565479   -0.1295534935   -0.2981012805
      4  C         0.5407267755   -0.8150681992    0.4478290625
      5  C        -1.8952815911   -0.8366870068   -0.0285158688
      6  H        -0.3462746624   -0.1102910722   -1.3664440953
      7  H         0.6783210900   -0.5595728426    1.4935111365
      8  H         0.6609074860   -1.8703566636    0.2159800146
      9  H        -2.1371589068   -0.8436602355    1.0373273707
     10  H        -2.7002389308   -0.3264538768   -0.5617486007
     11  H        -1.8436739123   -1.8715064910   -0.3853867157

Z-matrix Print:
$molecule
0 1
Br
C  1 1.981492
H  2 1.089536 1 104.721470
C  2 1.495428 1 111.197214 3 119.592787 0
H  4 1.085201 2 117.773686 1 39.205247 0
H  4 1.087121 2 114.829568 1 179.267979 0
C  2 1.535473 1 109.651809 3 -118.588317 0
H  7 1.092077 2 109.904420 1 56.602006 0
H  7 1.092966 2 111.512890 1 -63.661976 0
H  7 1.095843 2 109.677949 1 175.773286 0
Br 4 2.400000 2 109.608317 1 -73.083619 0
$end

PES scan, value:    2.4000 energy: -5265.6881656855
------- Summary of potential scan: ------ 
    2.4000     -5265.6881656855
----------------------------------------- 
Archival summary:
1\1\hpc0242\JobtypUnspecified\ProcedureUnspecified\6-31G**\r236\knomura\WedMar1322:45:262019WedMar1322:45:262019\0\\#,JobtypUnspecified,ProcedureUnspecified,6-31G**,\\0,1\Br\C,1,1.98149\H,2,1.08954,1,104.721\C,2,1.49543,1,111.197,3,119.593,0\H,4,1.0852,2,117.774,1,39.2052,0\H,4,1.08712,2,114.83,1,179.268,0\C,2,1.53547,1,109.652,3,-118.588,0\H,7,1.09208,2,109.904,1,56.602,0\H,7,1.09297,2,111.513,1,-63.662,0\H,7,1.09584,2,109.678,1,175.773,0\Br,4,2.4,2,109.608,1,-73.0836,0\\\@

 Total job time:  58.03s(wall), 674.98s(cpu) 
 Wed Mar 13 22:45:26 2019

        *************************************************************
        *                                                           *
        *  Thank you very much for using Q-Chem.  Have a nice day.  *
        *                                                           *
        *************************************************************


