
Running Job 1 of 1 halogens/Bromine/03/Br_2_4.xyz.data/inputs/bond_triplet_2.8.in
qchem halogens/Bromine/03/Br_2_4.xyz.data/inputs/bond_triplet_2.8.in_12138.0 /staging/scratch/2868759/qchem12138/ 1
/usr/usc/qchem/5.1.1/exe/qcprog.exe_s halogens/Bromine/03/Br_2_4.xyz.data/inputs/bond_triplet_2.8.in_12138.0 /staging/scratch/2868759/qchem12138/
Check license passed

                  Welcome to Q-Chem
     A Quantum Leap Into The Future Of Chemistry


 Q-Chem 5.1, Q-Chem, Inc., Pleasanton, CA (2018)

 Yihan Shao,  Zhengting Gan,  E. Epifanovsky,  A. T. B. Gilbert,  M. Wormit,  
 J. Kussmann,  A. W. Lange,  A. Behn,  Jia Deng,  Xintian Feng,  D. Ghosh,  
 M. Goldey,  P. R. Horn,  L. D. Jacobson,  I. Kaliman,  T. Kus,  A. Landau,  
 Jie Liu,  E. I. Proynov,  R. M. Richard,  R. P. Steele,  E. J. Sundstrom,  
 H. L. Woodcock III,  P. M. Zimmerman,  D. Zuev,  B. Albrecht,  E. Alguire,  
 S. A. Baeppler,  D. Barton,  Z. Benda,  Y. A. Bernard,  E. J. Berquist,  
 K. B. Bravaya,  H. Burton,  D. Casanova,  Chun-Min Chang,  Yunqing Chen,  
 A. Chien,  K. D. Closser,  M. P. Coons,  S. Coriani,  S. Dasgupta,  
 A. L. Dempwolff,  M. Diedenhofen,  Hainam Do,  R. G. Edgar,  Po-Tung Fang,  
 S. Faraji,  S. Fatehi,  Qingguo Feng,  K. D. Fenk,  J. Fosso-Tande,  
 Qinghui Ge,  A. Ghysels,  G. Gidofalvi,  J. Gomes,  J. Gonthier,  A. Gunina,  
 D. Hait,  M. W. D. Hanson-Heine,  P. H. P. Harbach,  A. W. Hauser,  
 J. E. Herr,  E. G. Hohenstein,  Z. C. Holden,  Kerwin Hui,  B. C. Huynh,  
 T.-C. Jagau,  Hyunjun Ji,  B. Kaduk,  K. Khistyaev,  Jaehoon Kim,  
 P. Klunzinger,  K. Koh,  D. Kosenkov,  L. Koulias,  T. Kowalczyk,  
 C. M. Krauter,  A. Kunitsa,  Ka Un Lao,  A. Laurent,  K. V. Lawler,  
 Joonho Lee,  D. Lefrancois,  S. Lehtola,  D. S. Levine,  Yi-Pei Li,  
 You-Sheng Lin,  Fenglai Liu,  E. Livshits,  A. Luenser,  P. Manohar,  
 E. Mansoor,  S. F. Manzer,  Shan-Ping Mao,  Yuezhi Mao,  N. Mardirossian,  
 A. V. Marenich,  T. Markovich,  L. A. Martinez-Martinez,  S. A. Maurer,  
 N. J. Mayhall,  S. C. McKenzie,  J.-M. Mewes,  A. F. Morrison,  
 J. W. Mullinax,  K. Nanda,  T. S. Nguyen-Beck,  R. Olivares-Amaya,  
 J. A. Parkhill,  T. M. Perrine,  F. Plasser,  P. Pokhilko,  S. Prager,  
 A. Prociuk,  E. Ramos,  D. R. Rehn,  F. Rob,  M. Schneider,  N. Sergueev,  
 S. M. Sharada,  S. Sharma,  D. W. Small,  T. Stauch,  T. Stein,  
 Yu-Chuan Su,  A. J. W. Thom,  A. Tkatchenko,  T. Tsuchimochi,  N. M. Tubman,  
 L. Vogt,  M. L. Vidal,  O. Vydrov,  M. A. Watson,  J. Wenzel,  
 M. de Wergifosse,  T. A. Wesolowski,  A. White,  J. Witte,  A. Yamada,  
 Jun Yang,  K. Yao,  S. Yeganeh,  S. R. Yost,  Zhi-Qiang You,  A. Zech,  
 Igor Ying Zhang,  Xing Zhang,  Yan Zhao,  Ying Zhu,  B. R. Brooks,  
 G. K. L. Chan,  C. J. Cramer,  M. S. Gordon,  W. J. Hehre,  A. Klamt,  
 M. W. Schmidt,  C. D. Sherrill,  D. G. Truhlar,  A. Aspuru-Guzik,  R. Baer,  
 A. T. Bell,  N. A. Besley,  Jeng-Da Chai,  A. E. DePrince, III,  
 R. A. DiStasio Jr.,  A. Dreuw,  B. D. Dunietz,  T. R. Furlani,  
 Chao-Ping Hsu,  Yousung Jung,  Jing Kong,  D. S. Lambrecht,  WanZhen Liang,  
 C. Ochsenfeld,  V. A. Rassolov,  L. V. Slipchenko,  J. E. Subotnik,  
 T. Van Voorhis,  J. M. Herbert,  A. I. Krylov,  P. M. W. Gill,  M. Head-Gordon

 Contributors to earlier versions of Q-Chem not listed above: 
 R. D. Adamson,  B. Austin,  J. Baker,  G. J. O. Beran,  K. Brandhorst,  
 S. T. Brown,  E. F. C. Byrd,  A. K. Chakraborty,  C.-L. Cheng,  
 Siu Hung Chien,  D. M. Chipman,  D. L. Crittenden,  H. Dachsel,  
 R. J. Doerksen,  A. D. Dutoi,  L. Fusti-Molnar,  W. A. Goddard III,  
 A. Golubeva-Zadorozhnaya,  S. R. Gwaltney,  G. Hawkins,  A. Heyden,  
 S. Hirata,  G. Kedziora,  F. J. Keil,  C. Kelley,  Jihan Kim,  R. A. King,  
 R. Z. Khaliullin,  P. P. Korambath,  W. Kurlancheek,  A. M. Lee,  M. S. Lee,  
 S. V. Levchenko,  Ching Yeh Lin,  D. Liotard,  R. C. Lochan,  I. Lotan,  
 P. E. Maslen,  N. Nair,  D. P. O'Neill,  D. Neuhauser,  E. Neuscamman,  
 C. M. Oana,  R. Olson,  B. Peters,  R. Peverati,  P. A. Pieniazek,  
 Y. M. Rhee,  J. Ritchie,  M. A. Rohrdanz,  E. Rosta,  N. J. Russ,  
 H. F. Schaefer III,  N. E. Schultz,  N. Shenvi,  A. C. Simmonett,  A. Sodt,  
 D. Stuck,  K. S. Thanthiriwatte,  V. Vanovschi,  Tao Wang,  A. Warshel,  
 C. F. Williams,  Q. Wu,  X. Xu,  W. Zhang

 Please cite Q-Chem as follows:
 Y. Shao et al., Mol. Phys. 113, 184-215 (2015)
 DOI: 10.1080/00268976.2014.952696

 Q-Chem 5.1.1 for Intel X86 EM64T Linux

 Parts of Q-Chem use Armadillo 8.300.2 (Tropical Shenanigans).
 http://arma.sourceforge.net/

 Q-Chem begins on Thu Mar 14 01:24:28 2019  

Host: 
0

     Scratch files written to /staging/scratch/2868759/qchem12138//
 Aug318 |scratch|qcdevops|jenkins|workspace|build_RNUM 6013   
Processing $rem in /usr/usc/qchem/5.1.1/config/preferences.
 MEM_TOTAL  2000 
Input Ideriv = 2
Curr. Ideriv = -1
Max.  Ideriv = 2

Checking the input file for inconsistencies... 	...done.

--------------------------------------------------------------
User input:
--------------------------------------------------------------

$comment
potential surface scanner
$end

$rem
JOBTYPE  PES_SCAN
UNRESTRICTED TRUE
SYM_IGNORE  TRUE
GEOM_OPT_MAX_CYCLES 400
SCF_MAX_CYCLES 400
METHOD   B3LYP
BASIS   6-31G**
PDB_PRINT 2
SCF_CONVERGENCE 6
THRESH 14
SCF_PRINT 1
$end
$molecule
0 3
Br 1.226295 -0.181629 -1.668653
Br 1.999252 1.309524 0.745998
C -0.566707 -1.118900 -0.048580
C -0.020386 -0.728437 1.167631
C -1.830163 -0.520823 -0.590249
H -0.270458 -2.087463 -0.440221
H -0.448714 0.090012 1.734331
H 0.777663 -1.294241 1.632134
H -2.685036 -1.082291 -0.187506
H -1.939835 0.525378 -0.295701
H -1.877120 -0.590130 -1.678375
$end
$scan
stre 2 4 2.800000 2.801000 0.100000
$end
--------------------------------------------------------------
 ----------------------------------------------------------------
             Standard Nuclear Orientation (Angstroms)
    I     Atom           X                Y                Z
 ----------------------------------------------------------------
    1      Br      1.2262950000    -0.1816290000    -1.6686530000
    2      Br      1.9992520000     1.3095240000     0.7459980000
    3      C      -0.5667070000    -1.1189000000    -0.0485800000
    4      C      -0.0203860000    -0.7284370000     1.1676310000
    5      C      -1.8301630000    -0.5208230000    -0.5902490000
    6      H      -0.2704580000    -2.0874630000    -0.4402210000
    7      H      -0.4487140000     0.0900120000     1.7343310000
    8      H       0.7776630000    -1.2942410000     1.6321340000
    9      H      -2.6850360000    -1.0822910000    -0.1875060000
   10      H      -1.9398350000     0.5253780000    -0.2957010000
   11      H      -1.8771200000    -0.5901300000    -1.6783750000
 ----------------------------------------------------------------
 Nuclear Repulsion Energy =   557.6974474029 hartrees
 There are       48 alpha and       46 beta electrons
 Requested basis set is 6-31G(d,p)
 There are 46 shells and 145 basis functions

 Total QAlloc Memory Limit   2000 MB
 Mega-Array Size       188 MB
 MEM_STATIC part       192 MB
A total of 1 constraints
  
            1
    1   1.0100000
    2   2.0100000
    3   4.0100000
    4   2.8000000
    5   2.8010000
    6   0.1000000
    7   0.0000000
    8   0.0000000
    9   0.0000000
   10   0.0000000

                       Distance Matrix (Angstroms)
             Br(  1)   Br(  2)   C (  3)   C (  4)   C (  5)   H (  6)
   Br(  2)  2.941350
   C (  3)  2.591905  3.621152
   C (  4)  3.146064  2.899999  1.389279
   C (  5)  3.258825  4.449735  1.499141  2.531509
   H (  6)  2.716895  4.254200  1.085938  2.120065  2.215750
   H (  7)  3.802597  2.908015  2.157351  1.083731  2.772218  3.082507
   H (  8)  3.512032  3.009503  2.159369  1.082949  3.512537  2.454061
   H (  9)  4.278259  5.341794  2.123195  3.010310  1.099207  2.627627
   H ( 10)  3.522674  4.149268  2.156432  2.719867  1.092393  3.103972
   H ( 11)  3.130200  4.951013  2.157084  3.400932  1.091342  2.521189
             H (  7)   H (  8)   H (  9)   H ( 10)
   H (  8)  1.852188
   H (  9)  3.173151  3.917435
   H ( 10)  2.556172  3.796361  1.775283
   H ( 11)  3.761582  4.301525  1.765684  1.777661
 
 A cutoff of  1.0D-14 yielded    961 shell pairs
 There are      9601 function pairs
 
 -------------------------------------------------------
 OpenMP Integral Computing Module                       
 Release: version 1.0, May 2013, Q-Chem Inc. Pittsburgh 
 -------------------------------------------------------
 Integral Job Info:
 Integral job number is                      11
 Integral operator is                         1
 short-range coefficients                     0
 long-range coefficients              100000000
 Omega coefficients                           0
 if combine SR and LR in K                    0
 Integral screening is                        0
 Integral computing path is                   2
 max size of driver memory is            800000
 size of driver memory is                593474
 size of scratch memory is             15267112
 max col of scratch BK array               1296
 max len of scratch array in speh3          155
 max len of scratch index in speh4           18
 max int batch size is                      520
 min int batch size is                       52
 fixed nKL is                                52
 max L of basis functions is                  2
 order of int derivative is                   0
 number of shells is                         46
 number of basis is                         145
 number of cartesian basis is               145
 number of contracted shell pairs           961
 number of primitive shell pairs           4090
 maxK2 (contraction) of shell pair           36
 max number of K2 of shell pair               1
 max number of CS2 of shell pair             70
 max number of PS2 of shell pair            420
 mem total for path MDJ                  532188
 -------------------------------------------------------
 Smallest overlap matrix eigenvalue = 7.23E-04

 Scale SEOQF with 1.000000e-01/1.000000e-01/1.000000e-01

 Standard Electronic Orientation quadrupole field applied
 Nucleus-field energy     =    -0.0000000006 hartrees
 Guess from superposition of atomic densities
 Warning:  Energy on first SCF cycle will be non-variational
 SAD guess density has 93.945746 electrons

 -----------------------------------------------------------------------
  General SCF calculation program by
  Eric Jon Sundstrom, Paul Horn, Yuezhi Mao, Dmitri Zuev, Alec White,
  David Stuck, Shaama M.S., Shane Yost, Joonho Lee, David Small,
  Daniel Levine, Susi Lehtola, Hugh Burton, Evgeny Epifanovsky
 -----------------------------------------------------------------------
 Exchange:     0.2000 Hartree-Fock + 0.0800 Slater + 0.7200 B88
 Correlation:  0.1900 VWN1RPA + 0.8100 LYP
 Using SG-1 standard quadrature grid
 using 12 threads for integral computing
 -------------------------------------------------------
 OpenMP Integral computing Module                
 Release: version 1.0, May 2013, Q-Chem Inc. Pittsburgh 
 -------------------------------------------------------
 -------------------------------------------------------
 OpenMP BLAS3 based DFT computing Module                
 Release: version 1.0, May 2013, Q-Chem Inc. Pittsburgh 
 -------------------------------------------------------
 A unrestricted SCF calculation will be
 performed using DIIS
 SCF converges when DIIS error is below 1.0e-06
 Alpha HF Exchange    Energy = -19.60292530254242
 Beta HF Exchange     Energy = -19.60292530254242
 DFT Correlation      Energy =  -5.19729199803878
 DFT Exchange         Energy = -155.85749739177112
 One-Electron (alpha) Energy = -4214.05708009828959
 One-Electron (beta)  Energy = -4214.05708009828959
 Total Coulomb        Energy = 2797.82641021011796
 ---------------------------------------
  Cycle       Energy         DIIS error
 ---------------------------------------
    1   -5272.8509425790      1.83e-01  
 Alpha HF Exchange    Energy = -19.83957782834535
 Beta HF Exchange     Energy = -19.61673886471662
 DFT Correlation      Energy =  -5.24434995009237
 DFT Exchange         Energy = -157.04472080560311
 One-Electron (alpha) Energy = -4252.19683462505964
 One-Electron (beta)  Energy = -4198.05105856080991
 Total Coulomb        Energy = 2828.80471669716189
    2   -5265.4911165351      1.04e-02  
 Alpha HF Exchange    Energy = -19.69264538736513
 Beta HF Exchange     Energy = -19.47632662078907
 DFT Correlation      Energy =  -5.20894757690111
 DFT Exchange         Energy = -155.92333179080117
 One-Electron (alpha) Energy = -4236.04577634839188
 One-Electron (beta)  Energy = -4180.61445853564237
 Total Coulomb        Energy = 2793.77514277639557
    3   -5265.4888960812      4.10e-03  
 Alpha HF Exchange    Energy = -19.81018249758569
 Beta HF Exchange     Energy = -19.59125666784666
 DFT Correlation      Energy =  -5.23240749324988
 DFT Exchange         Energy = -156.80125033248231
 One-Electron (alpha) Energy = -4249.54462321502797
 One-Electron (beta)  Energy = -4194.96899660525287
 Total Coulomb        Energy = 2822.72902758371720
    4   -5265.5222418254      3.33e-03  
 Alpha HF Exchange    Energy = -19.77477264583661
 Beta HF Exchange     Energy = -19.54893451903659
 DFT Correlation      Energy =  -5.22814864419987
 DFT Exchange         Energy = -156.52530318889103
 One-Electron (alpha) Energy = -4245.44199413990737
 One-Electron (beta)  Energy = -4189.64815563300635
 Total Coulomb        Energy = 2812.85982287325669
    5   -5265.6100384953      1.11e-03  
 Alpha HF Exchange    Energy = -19.76826332141452
 Beta HF Exchange     Energy = -19.54381747332140
 DFT Correlation      Energy =  -5.22552482294765
 DFT Exchange         Energy = -156.47145730620929
 One-Electron (alpha) Energy = -4244.79339707581221
 One-Electron (beta)  Energy = -4189.15454980898903
 Total Coulomb        Energy = 2811.63402905736666
    6   -5265.6255333490      3.21e-04  
 Alpha HF Exchange    Energy = -19.76736080093637
 Beta HF Exchange     Energy = -19.54330217067492
 DFT Correlation      Energy =  -5.22497977693607
 DFT Exchange         Energy = -156.46391506400519
 One-Electron (alpha) Energy = -4244.73141266117818
 One-Electron (beta)  Energy = -4189.19641360861533
 Total Coulomb        Energy = 2811.60291926563968
    7   -5265.6270174144      1.63e-04  
 Alpha HF Exchange    Energy = -19.76759592274913
 Beta HF Exchange     Energy = -19.54321394062480
 DFT Correlation      Energy =  -5.22513901968533
 DFT Exchange         Energy = -156.46534574329507
 One-Electron (alpha) Energy = -4244.70902093562563
 One-Electron (beta)  Energy = -4189.00611878722793
 Total Coulomb        Energy = 2811.39149717810915
    8   -5265.6274897688      4.65e-05  
 Alpha HF Exchange    Energy = -19.76800594531834
 Beta HF Exchange     Energy = -19.54375831410770
 DFT Correlation      Energy =  -5.22511706242958
 DFT Exchange         Energy = -156.46800549213737
 One-Electron (alpha) Energy = -4244.77401416322755
 One-Electron (beta)  Energy = -4189.06821426713577
 Total Coulomb        Energy = 2811.52208525152764
    9   -5265.6275825905      2.18e-05  
 Alpha HF Exchange    Energy = -19.76803920745049
 Beta HF Exchange     Energy = -19.54398222459700
 DFT Correlation      Energy =  -5.22509303025746
 DFT Exchange         Energy = -156.46834803190808
 One-Electron (alpha) Energy = -4244.77754141879632
 One-Electron (beta)  Energy = -4189.05588892459400
 Total Coulomb        Energy = 2811.51381796750911
   10   -5265.6276274678      1.44e-05  
 Alpha HF Exchange    Energy = -19.76804098406069
 Beta HF Exchange     Energy = -19.54417948098038
 DFT Correlation      Energy =  -5.22501082889415
 DFT Exchange         Energy = -156.46842931273693
 One-Electron (alpha) Energy = -4244.77854974910588
 One-Electron (beta)  Energy = -4189.04825186317339
 Total Coulomb        Energy = 2811.50736886120831
   11   -5265.6276459554      4.73e-06  
 Alpha HF Exchange    Energy = -19.76803088977272
 Beta HF Exchange     Energy = -19.54422161495829
 DFT Correlation      Energy =  -5.22500147792331
 DFT Exchange         Energy = -156.46846770492624
 One-Electron (alpha) Energy = -4244.77646923705470
 One-Electron (beta)  Energy = -4189.04763659910623
 Total Coulomb        Energy = 2811.50473338100937
   12   -5265.6276467404      3.23e-06  
 Alpha HF Exchange    Energy = -19.76802911758649
 Beta HF Exchange     Energy = -19.54424097079352
 DFT Correlation      Energy =  -5.22499623225932
 DFT Exchange         Energy = -156.46848847032533
 One-Electron (alpha) Energy = -4244.77508623724952
 One-Electron (beta)  Energy = -4189.04875039856051
 Total Coulomb        Energy = 2811.50449702177912
   13   -5265.6276470027      1.08e-06  
 Alpha HF Exchange    Energy = -19.76803220619212
 Beta HF Exchange     Energy = -19.54424691781929
 DFT Correlation      Energy =  -5.22499662597021
 DFT Exchange         Energy = -156.46852326056435
 One-Electron (alpha) Energy = -4244.77554164205412
 One-Electron (beta)  Energy = -4189.05072672646111
 Total Coulomb        Energy = 2811.50697293251415
   14   -5265.6276470442      4.53e-07  Convergence criterion met
 ---------------------------------------
 SCF time:   CPU 56.97s  wall 5.00s 
<S^2> =          2.007692996
 Alpha HF Exchange    Energy = -19.76803220619212
 Beta HF Exchange     Energy = -19.54424691781929
 DFT Correlation      Energy =  -5.22499662597021
 DFT Exchange         Energy = -156.46852326056435
 One-Electron (alpha) Energy = -4244.77554164205412
 One-Electron (beta)  Energy = -4189.05072672646111
 Total Coulomb        Energy = 2811.50697293251415
 Nuclear repulsion Energy = 557.69744740232045
 SCF   energy in the final basis set =    -5265.6276470442
 Total energy in the final basis set =    -5265.6276470442
 
 --------------------------------------------------------------
 
                    Orbital Energies (a.u.)
 --------------------------------------------------------------
 
 Alpha MOs
 -- Occupied --
*******-482.839 -62.518 -62.496 -56.338 -56.337 -56.335 -56.318
-56.314 -56.313 -10.270 -10.254 -10.216  -8.705  -8.683  -6.531
 -6.528  -6.520  -6.513  -6.502  -6.499  -2.626  -2.626  -2.620
 -2.618  -2.617  -2.606  -2.604  -2.602  -2.593  -2.593  -0.845
 -0.768  -0.739  -0.726  -0.607  -0.513  -0.468  -0.454  -0.410
 -0.398  -0.368  -0.343  -0.299  -0.286  -0.268  -0.256  -0.254
 -- Virtual --
 -0.047   0.077   0.103   0.113   0.148   0.149   0.152   0.208
  0.234   0.264   0.291   0.321   0.346   0.369   0.376   0.385
  0.409   0.443   0.473   0.487   0.515   0.527   0.547   0.564
  0.572   0.580   0.618   0.623   0.644   0.646   0.682   0.720
  0.730   0.788   0.807   0.838   0.851   0.860   0.863   0.893
  0.918   1.029   1.156   1.205   1.276   1.309   1.358   1.435
  1.597   1.728   1.774   1.819   1.820   1.873   1.890   1.945
  2.011   2.043   2.054   2.088   2.152   2.247   2.300   2.339
  2.401   2.453   2.542   2.570   2.625   2.654   2.765   2.817
  2.846   2.941   3.158   3.235   3.385   3.394   3.423   3.575
  4.163   4.351   4.541   4.665   4.698   4.717   4.734   4.740
  4.744   4.751   4.810   4.871   4.890   6.267   6.324  90.243
 90.392
 
 Beta MOs
 -- Occupied --
*******-482.837 -62.516 -62.495 -56.335 -56.335 -56.334 -56.314
-56.313 -56.312 -10.268 -10.248 -10.216  -8.701  -8.680  -6.525
 -6.523  -6.519  -6.506  -6.500  -6.498  -2.621  -2.621  -2.617
 -2.615  -2.614  -2.601  -2.599  -2.598  -2.592  -2.592  -0.832
 -0.737  -0.721  -0.702  -0.600  -0.509  -0.464  -0.448  -0.407
 -0.396  -0.327  -0.303  -0.288  -0.259  -0.257
 -- Virtual --
 -0.174  -0.160  -0.014   0.080   0.105   0.117   0.150   0.153
  0.154   0.216   0.237   0.275   0.295   0.325   0.358   0.381
  0.387   0.397   0.424   0.457   0.480   0.511   0.527   0.549
  0.559   0.581   0.593   0.596   0.632   0.637   0.664   0.671
  0.693   0.728   0.741   0.793   0.815   0.841   0.860   0.867
  0.878   0.900   0.921   1.041   1.159   1.212   1.286   1.320
  1.369   1.450   1.600   1.734   1.783   1.827   1.835   1.877
  1.905   1.955   2.012   2.044   2.056   2.091   2.162   2.249
  2.304   2.342   2.411   2.461   2.551   2.577   2.630   2.655
  2.767   2.818   2.848   2.943   3.158   3.237   3.389   3.395
  3.424   3.579   4.174   4.358   4.546   4.675   4.706   4.727
  4.739   4.746   4.753   4.759   4.817   4.880   4.900   6.280
  6.337  90.248  90.398
 --------------------------------------------------------------
 
          Ground-State Mulliken Net Atomic Charges

     Atom                 Charge (a.u.)    Spin (a.u.)
  --------------------------------------------------------
      1 Br                   -0.137933       0.762687
      2 Br                   -0.225391       0.713445
      3 C                    -0.063135       0.107043
      4 C                    -0.153757       0.453433
      5 C                    -0.340220      -0.005202
      6 H                     0.162497      -0.002342
      7 H                     0.160785      -0.018495
      8 H                     0.164097      -0.019717
      9 H                     0.137943       0.003290
     10 H                     0.145585      -0.000323
     11 H                     0.149529       0.006181
  --------------------------------------------------------
  Sum of atomic charges =    -0.000000
  Sum of spin   charges =     2.000000

 -----------------------------------------------------------------
                    Cartesian Multipole Moments
 -----------------------------------------------------------------
    Charge (ESU x 10^10)
                 0.0000
    Dipole Moment (Debye)
         X      -4.1427      Y      -2.8865      Z       1.1573
       Tot       5.1800
    Quadrupole Moments (Debye-Ang)
        XX     -60.0239     XY      -1.7449     YY     -56.1717
        XZ       0.8962     YZ      -0.7670     ZZ     -55.9405
    Octopole Moments (Debye-Ang^2)
       XXX    -147.2572    XXY     -11.1578    XYY     -47.3001
       YYY     -26.7354    XXZ      11.2643    XYZ      -3.7201
       YYZ      13.9437    XZZ     -45.1063    YZZ      -6.8943
       ZZZ      45.7973
    Hexadecapole Moments (Debye-Ang^3)
      XXXX    -880.9237   XXXY    -166.6300   XXYY    -205.3191
      XYYY    -168.9484   YYYY    -351.9371   XXXZ      -1.2292
      XXYZ     -24.4632   XYYZ       4.9251   YYYZ     -62.2870
      XXZZ    -228.1869   XYZZ     -52.9299   YYZZ    -143.7128
      XZZZ       7.3889   YZZZ     -62.1159   ZZZZ    -513.1865
 -----------------------------------------------------------------
 Calculating analytic gradient of the SCF energy
 Gradient of SCF Energy
            1           2           3           4           5           6
    1   0.0000459  -0.0018182   0.0000623   0.0015789  -0.0000166   0.0001201
    2   0.0002675  -0.0016571  -0.0000025   0.0015813  -0.0000127   0.0000753
    3   0.0001471   0.0006173  -0.0000585  -0.0004530  -0.0000657  -0.0001641
            7           8           9          10          11
    1  -0.0000372  -0.0000162   0.0000399  -0.0000370   0.0000780
    2  -0.0001643  -0.0000685  -0.0000867  -0.0000435   0.0001113
    3   0.0001095   0.0000139  -0.0001412   0.0000520  -0.0000572
 Max gradient component =       1.818E-03
 RMS gradient           =       6.002E-04
 Gradient time:  CPU 16.12 s  wall 1.43 s
 Geometry Optimization Parameters
   NAtoms,    NIC,     NZ,  NCons,   NDum,   NFix, NCnnct, MaxDiis
       11      75       0       1       0       0       0       0


** CONSTRAINED OPTIMIZATION IN DELOCALIZED INTERNAL COORDINATES **
   Searching for a Minimum

   Optimization Cycle:   1

                       Coordinates (Angstroms)
     ATOM                X               Y               Z
      1  Br        1.2262950000   -0.1816290000   -1.6686530000
      2  Br        1.9992520000    1.3095240000    0.7459980000
      3  C        -0.5667070000   -1.1189000000   -0.0485800000
      4  C        -0.0203860000   -0.7284370000    1.1676310000
      5  C        -1.8301630000   -0.5208230000   -0.5902490000
      6  H        -0.2704580000   -2.0874630000   -0.4402210000
      7  H        -0.4487140000    0.0900120000    1.7343310000
      8  H         0.7776630000   -1.2942410000    1.6321340000
      9  H        -2.6850360000   -1.0822910000   -0.1875060000
     10  H        -1.9398350000    0.5253780000   -0.2957010000
     11  H        -1.8771200000   -0.5901300000   -1.6783750000
   Point Group: c1    Number of degrees of freedom:    27


   Energy is  -5265.627647044

              Constraints and their Current Values
                                        Value     Constraint
   Distance(Angs):        2   4             2.899999     2.800000

 Attempting to Generate Delocalized Internal Coordinates

   Using Lagrange Multiplier Algorithm


 28 Hessian modes will be used to form the next step
  Hessian Eigenvalues:
    -0.986117    0.034543    0.042840    0.045000    0.045000    0.045232
     0.046698    0.060782    0.081764    0.084829    0.086014    0.091472
     0.127437    0.156933    0.160000    0.160000    0.160000    0.160000
     0.160000    0.324676    0.331125    0.337700    0.345375    0.346581
     0.355473    0.356403    0.472229    1.014078

 Minimum Search - Taking P-RFO Step
 Searching for Lamda that Maximizes Along the Constraint modes Only
 Value Taken    Lamda =   0.01848098
 Searching for Lamda that Minimizes Along All other modes
 Value Taken    Lamda =  -0.01663921
 Step Taken.  Stepsize is  0.185705

                             Maximum     Tolerance    Cnvgd?
         Gradient            0.188972       0.000300      NO
         Displacement        0.185702       0.001200      NO
         Energy change     *********       0.000001      NO


 New Cartesian Coordinates Obtained by Inverse Iteration

 Displacement from previous Coordinates is:  0.178063
 ----------------------------------------------------------------
             Standard Nuclear Orientation (Angstroms)
    I     Atom           X                Y                Z
 ----------------------------------------------------------------
    1      Br      1.2255319794    -0.1879383566    -1.6745923452
    2      Br      1.9404668201     1.2633557352     0.7788590718
    3      C      -0.5630010393    -1.1152409998    -0.0512977573
    4      C      -0.0057358444    -0.7157941922     1.1595843430
    5      C      -1.8287376076    -0.5192472949    -0.5898171803
    6      H      -0.2704562031    -2.0884458646    -0.4397556410
    7      H      -0.4287853555     0.1075310530     1.7231645834
    8      H       0.7949806474    -1.2794481381     1.6220797805
    9      H      -2.6819570983    -1.0774378075    -0.1790816345
   10      H      -1.9358858079     0.5288426252    -0.3010983357
   11      H      -1.8816294908    -0.5951767596    -1.6772358847
 ----------------------------------------------------------------
 Nuclear Repulsion Energy =   561.0306920509 hartrees
 There are       48 alpha and       46 beta electrons

                       Distance Matrix (Angstroms)
             Br(  1)   Br(  2)   C (  3)   C (  4)   C (  5)   H (  6)
   Br(  2)  2.938845
   C (  3)  2.587243  3.551652
   C (  4)  3.134838  2.801730  1.391524
   C (  5)  3.258077  4.388377  1.499100  2.534240
   H (  6)  2.715646  4.196162  1.087938  2.124179  2.216561
   H (  7)  3.790623  2.800178  2.159144  1.083724  2.775356  3.086358
   H (  8)  3.499259  2.913591  2.161312  1.082938  3.514867  2.457804
   H (  9)  4.277410  5.269133  2.123142  3.014129  1.099211  2.627817
   H ( 10)  3.520628  4.090468  2.156438  2.721800  1.092397  3.105331
   H ( 11)  3.133736  4.908662  2.157063  3.403098  1.091349  2.521327
             H (  7)   H (  8)   H (  9)   H ( 10)
   H (  8)  1.852440
   H (  9)  3.177967  3.920980
   H ( 10)  2.558612  3.798179  1.775288
   H ( 11)  3.763944  4.303249  1.765663  1.777672
 
 Applying Cartesian multipole field
    Component          Value
    ---------          -----
     (2,0,0)        1.00000E-11
     (0,2,0)        2.00000E-11
     (0,0,2)       -3.00000E-11
 Nucleus-field energy     =    -0.0000000014 hartrees
 Requested basis set is 6-31G(d,p)
 There are 46 shells and 145 basis functions
 A cutoff of  1.0D-14 yielded    966 shell pairs
 There are      9679 function pairs
 Smallest overlap matrix eigenvalue = 7.23E-04
 Guess from superposition of atomic densities
 Warning:  Energy on first SCF cycle will be non-variational
 SAD guess density has 93.945746 electrons

 -----------------------------------------------------------------------
  General SCF calculation program by
  Eric Jon Sundstrom, Paul Horn, Yuezhi Mao, Dmitri Zuev, Alec White,
  David Stuck, Shaama M.S., Shane Yost, Joonho Lee, David Small,
  Daniel Levine, Susi Lehtola, Hugh Burton, Evgeny Epifanovsky
 -----------------------------------------------------------------------
 Exchange:     0.2000 Hartree-Fock + 0.0800 Slater + 0.7200 B88
 Correlation:  0.1900 VWN1RPA + 0.8100 LYP
 Using SG-1 standard quadrature grid
 using 12 threads for integral computing
 -------------------------------------------------------
 OpenMP Integral computing Module                
 Release: version 1.0, May 2013, Q-Chem Inc. Pittsburgh 
 -------------------------------------------------------
 -------------------------------------------------------
 OpenMP BLAS3 based DFT computing Module                
 Release: version 1.0, May 2013, Q-Chem Inc. Pittsburgh 
 -------------------------------------------------------
 A unrestricted SCF calculation will be
 performed using DIIS
 SCF converges when DIIS error is below 1.0e-06
 Alpha HF Exchange    Energy = -19.60395519640852
 Beta HF Exchange     Energy = -19.60395519640852
 DFT Correlation      Energy =  -5.19820676779054
 DFT Exchange         Energy = -155.85911095720036
 One-Electron (alpha) Energy = -4217.39086730479994
 One-Electron (beta)  Energy = -4217.39086730479994
 Total Coulomb        Energy = 2801.15179488056810
 ---------------------------------------
  Cycle       Energy         DIIS error
 ---------------------------------------
    1   -5272.8644757974      1.83e-01  
 Alpha HF Exchange    Energy = -19.83970723275152
 Beta HF Exchange     Energy = -19.61627375211661
 DFT Correlation      Energy =  -5.24523694578301
 DFT Exchange         Energy = -157.04475989340213
 One-Electron (alpha) Energy = -4255.57925717907347
 One-Electron (beta)  Energy = -4201.17394925139979
 Total Coulomb        Energy = 2831.97535436294584
    2   -5265.4931378421      1.04e-02  
 Alpha HF Exchange    Energy = -19.69368713090013
 Beta HF Exchange     Energy = -19.47706890672119
 DFT Correlation      Energy =  -5.20984837686547
 DFT Exchange         Energy = -155.92826601445142
 One-Electron (alpha) Energy = -4239.55708463202700
 One-Electron (beta)  Energy = -4184.08093809718957
 Total Coulomb        Energy = 2797.41334310936054
    3   -5265.5028579993      3.99e-03  
 Alpha HF Exchange    Energy = -19.81092804684504
 Beta HF Exchange     Energy = -19.59044139217596
 DFT Correlation      Energy =  -5.23373359506814
 DFT Exchange         Energy = -156.80373663762850
 One-Electron (alpha) Energy = -4252.95659768124187
 One-Electron (beta)  Energy = -4198.13250506724398
 Total Coulomb        Energy = 2825.95572346420067
    4   -5265.5415269065      3.14e-03  
 Alpha HF Exchange    Energy = -19.77378778879093
 Beta HF Exchange     Energy = -19.54798405293586
 DFT Correlation      Energy =  -5.22877458359024
 DFT Exchange         Energy = -156.51754403651847
 One-Electron (alpha) Energy = -4248.67204137877707
 One-Electron (beta)  Energy = -4192.71553418295662
 Total Coulomb        Energy = 2815.81109565291081
    5   -5265.6138783212      9.70e-04  
 Alpha HF Exchange    Energy = -19.76855003728244
 Beta HF Exchange     Energy = -19.54410302687756
 DFT Correlation      Energy =  -5.22641646081139
 DFT Exchange         Energy = -156.47380999995869
 One-Electron (alpha) Energy = -4248.19262460863592
 One-Electron (beta)  Energy = -4192.43914854147533
 Total Coulomb        Energy = 2814.98827542608069
    6   -5265.6256851995      2.55e-04  
 Alpha HF Exchange    Energy = -19.76773619065129
 Beta HF Exchange     Energy = -19.54349774020607
 DFT Correlation      Energy =  -5.22600616554325
 DFT Exchange         Energy = -156.46703942824325
 One-Electron (alpha) Energy = -4248.12680861993340
 One-Electron (beta)  Energy = -4192.43103170914037
 Total Coulomb        Energy = 2814.90485325995405
    7   -5265.6265745443      1.32e-04  
 Alpha HF Exchange    Energy = -19.76780738582616
 Beta HF Exchange     Energy = -19.54325354986852
 DFT Correlation      Energy =  -5.22609897804691
 DFT Exchange         Energy = -156.46715150117419
 One-Electron (alpha) Energy = -4248.10062138170451
 One-Electron (beta)  Energy = -4192.27410618307931
 Total Coulomb        Energy = 2814.72148285819640
    8   -5265.6268640720      3.67e-05  
 Alpha HF Exchange    Energy = -19.76814601039408
 Beta HF Exchange     Energy = -19.54361621399745
 DFT Correlation      Energy =  -5.22609107073072
 DFT Exchange         Energy = -156.46922513443297
 One-Electron (alpha) Energy = -4248.15402178904424
 One-Electron (beta)  Energy = -4192.32048161253078
 Total Coulomb        Energy = 2814.82397916903119
    9   -5265.6269106126      1.55e-05  
 Alpha HF Exchange    Energy = -19.76819573819636
 Beta HF Exchange     Energy = -19.54372778042774
 DFT Correlation      Energy =  -5.22609245565903
 DFT Exchange         Energy = -156.46954090338528
 One-Electron (alpha) Energy = -4248.16062341687666
 One-Electron (beta)  Energy = -4192.31370926009367
 Total Coulomb        Energy = 2814.82426756588211
   10   -5265.6269299393      9.84e-06  
 Alpha HF Exchange    Energy = -19.76820751697122
 Beta HF Exchange     Energy = -19.54383847990897
 DFT Correlation      Energy =  -5.22604196992784
 DFT Exchange         Energy = -156.46959052744492
 One-Electron (alpha) Energy = -4248.16402422906685
 One-Electron (beta)  Energy = -4192.30747159393013
 Total Coulomb        Energy = 2814.82154183192233
   11   -5265.6269404359      3.39e-06  
 Alpha HF Exchange    Energy = -19.76819501894097
 Beta HF Exchange     Energy = -19.54386268881247
 DFT Correlation      Energy =  -5.22603524348315
 DFT Exchange         Energy = -156.46958430120216
 One-Electron (alpha) Energy = -4248.16128851001667
 One-Electron (beta)  Energy = -4192.30630480710624
 Total Coulomb        Energy = 2814.81763761858520
   12   -5265.6269409015      2.29e-06  
 Alpha HF Exchange    Energy = -19.76819128252978
 Beta HF Exchange     Energy = -19.54387634248246
 DFT Correlation      Energy =  -5.22603159999138
 DFT Exchange         Energy = -156.46959264140469
 One-Electron (alpha) Energy = -4248.16001288533789
 One-Electron (beta)  Energy = -4192.30735086695677
 Total Coulomb        Energy = 2814.81742252597132
   13   -5265.6269410433      8.86e-07  Convergence criterion met
 ---------------------------------------
 SCF time:   CPU 52.83s  wall 4.00s 
<S^2> =          2.006251748
 Alpha HF Exchange    Energy = -19.76819128252978
 Beta HF Exchange     Energy = -19.54387634248246
 DFT Correlation      Energy =  -5.22603159999138
 DFT Exchange         Energy = -156.46959264140469
 One-Electron (alpha) Energy = -4248.16001288533789
 One-Electron (beta)  Energy = -4192.30735086695677
 Total Coulomb        Energy = 2814.81742252597132
 Nuclear repulsion Energy = 561.03069204947224
 SCF   energy in the final basis set =    -5265.6269410433
 Total energy in the final basis set =    -5265.6269410433
 
 --------------------------------------------------------------
 
                    Orbital Energies (a.u.)
 --------------------------------------------------------------
 
 Alpha MOs
 -- Occupied --
*******-482.842 -62.516 -62.499 -56.336 -56.335 -56.333 -56.321
-56.317 -56.316 -10.269 -10.253 -10.215  -8.703  -8.686  -6.529
 -6.526  -6.519  -6.516  -6.506  -6.502  -2.624  -2.624  -2.618
 -2.616  -2.615  -2.609  -2.607  -2.604  -2.597  -2.597  -0.844
 -0.767  -0.742  -0.725  -0.606  -0.512  -0.467  -0.454  -0.409
 -0.397  -0.370  -0.342  -0.299  -0.288  -0.270  -0.256  -0.252
 -- Virtual --
 -0.045   0.078   0.104   0.113   0.149   0.150   0.152   0.209
  0.234   0.264   0.291   0.322   0.347   0.369   0.375   0.385
  0.409   0.440   0.472   0.492   0.515   0.528   0.550   0.564
  0.571   0.578   0.617   0.620   0.645   0.645   0.684   0.723
  0.732   0.790   0.809   0.840   0.855   0.861   0.864   0.896
  0.920   1.045   1.160   1.217   1.279   1.314   1.360   1.437
  1.598   1.728   1.772   1.818   1.821   1.874   1.891   1.947
  2.012   2.045   2.055   2.089   2.157   2.248   2.303   2.341
  2.403   2.454   2.543   2.572   2.625   2.654   2.765   2.817
  2.846   2.941   3.158   3.235   3.386   3.395   3.424   3.574
  4.166   4.355   4.542   4.665   4.698   4.718   4.734   4.739
  4.744   4.753   4.824   4.872   4.898   6.267   6.326  90.243
 90.400
 
 Beta MOs
 -- Occupied --
*******-482.840 -62.514 -62.498 -56.333 -56.333 -56.332 -56.317
-56.316 -56.315 -10.266 -10.246 -10.215  -8.699  -8.683  -6.523
 -6.522  -6.517  -6.509  -6.503  -6.501  -2.619  -2.619  -2.615
 -2.613  -2.613  -2.603  -2.602  -2.600  -2.595  -2.595  -0.831
 -0.738  -0.721  -0.704  -0.599  -0.508  -0.463  -0.447  -0.406
 -0.395  -0.329  -0.302  -0.287  -0.261  -0.259
 -- Virtual --
 -0.170  -0.162  -0.011   0.080   0.106   0.117   0.151   0.154
  0.154   0.217   0.238   0.276   0.295   0.326   0.359   0.381
  0.387   0.397   0.423   0.455   0.479   0.515   0.527   0.548
  0.561   0.582   0.591   0.595   0.629   0.638   0.666   0.670
  0.694   0.731   0.742   0.795   0.816   0.842   0.863   0.868
  0.882   0.902   0.924   1.057   1.163   1.224   1.289   1.327
  1.371   1.452   1.601   1.735   1.782   1.827   1.836   1.878
  1.907   1.956   2.013   2.046   2.057   2.091   2.167   2.250
  2.307   2.344   2.412   2.462   2.552   2.578   2.630   2.656
  2.767   2.818   2.848   2.943   3.159   3.238   3.389   3.396
  3.425   3.578   4.176   4.362   4.548   4.675   4.706   4.728
  4.738   4.746   4.753   4.760   4.832   4.882   4.908   6.279
  6.338  90.248  90.405
 --------------------------------------------------------------
 
          Ground-State Mulliken Net Atomic Charges

     Atom                 Charge (a.u.)    Spin (a.u.)
  --------------------------------------------------------
      1 Br                   -0.144023       0.755979
      2 Br                   -0.212795       0.714861
      3 C                    -0.058664       0.142491
      4 C                    -0.166451       0.421273
      5 C                    -0.339648      -0.007603
      6 H                     0.161598      -0.004009
      7 H                     0.162669      -0.016500
      8 H                     0.165659      -0.018217
      9 H                     0.137668       0.004911
     10 H                     0.144943      -0.000096
     11 H                     0.149044       0.006910
  --------------------------------------------------------
  Sum of atomic charges =     0.000000
  Sum of spin   charges =     2.000000

 -----------------------------------------------------------------
                    Cartesian Multipole Moments
 -----------------------------------------------------------------
    Charge (ESU x 10^10)
                 0.0000
    Dipole Moment (Debye)
         X      -4.0127      Y      -2.7487      Z       1.1955
       Tot       5.0086
    Quadrupole Moments (Debye-Ang)
        XX     -59.7135     XY      -1.4916     YY     -56.0131
        XZ       1.0973     YZ      -0.6615     ZZ     -56.1685
    Octopole Moments (Debye-Ang^2)
       XXX    -143.0497    XXY      -9.5376    XYY     -45.7768
       YYY     -23.5252    XXZ      11.1987    XYZ      -3.7126
       YYZ      13.3810    XZZ     -44.4455    YZZ      -6.1198
       ZZZ      44.6324
    Hexadecapole Moments (Debye-Ang^3)
      XXXX    -850.7553   XXXY    -154.3967   XXYY    -197.2760
      XYYY    -157.7315   YYYY    -337.0238   XXXZ      -1.4722
      XXYZ     -25.1080   XYYZ       4.3177   YYYZ     -63.8540
      XXZZ    -226.0624   XYZZ     -49.9951   YYZZ    -142.8488
      XZZZ       7.3044   YZZZ     -62.7436   ZZZZ    -520.9368
 -----------------------------------------------------------------
 Calculating analytic gradient of the SCF energy
 Gradient of SCF Energy
            1           2           3           4           5           6
    1  -0.0011479  -0.0032336  -0.0002977   0.0019167  -0.0002415   0.0005109
    2  -0.0005579  -0.0027412   0.0012418   0.0011223  -0.0000233  -0.0012046
    3   0.0014527   0.0018351  -0.0008670  -0.0002518  -0.0003306  -0.0008974
            7           8           9          10          11
    1   0.0014423   0.0009420   0.0000797  -0.0000085   0.0000377
    2   0.0016761   0.0005270  -0.0001016  -0.0000716   0.0001328
    3  -0.0004584  -0.0003738  -0.0001576   0.0000602  -0.0000115
 Max gradient component =       3.234E-03
 RMS gradient           =       1.123E-03
 Gradient time:  CPU 16.14 s  wall 1.43 s
 Geometry Optimization Parameters
   NAtoms,    NIC,     NZ,  NCons,   NDum,   NFix, NCnnct, MaxDiis
       11      75       0       1       0       0       0       0

 Cartesian Hessian Update
 Hessian Updated using BFGS Update


** CONSTRAINED OPTIMIZATION IN DELOCALIZED INTERNAL COORDINATES **
   Searching for a Minimum

   Optimization Cycle:   2

                       Coordinates (Angstroms)
     ATOM                X               Y               Z
      1  Br        1.2255319794   -0.1879383566   -1.6745923452
      2  Br        1.9404668201    1.2633557352    0.7788590718
      3  C        -0.5630010393   -1.1152409998   -0.0512977573
      4  C        -0.0057358444   -0.7157941922    1.1595843430
      5  C        -1.8287376076   -0.5192472949   -0.5898171803
      6  H        -0.2704562031   -2.0884458646   -0.4397556410
      7  H        -0.4287853555    0.1075310530    1.7231645834
      8  H         0.7949806474   -1.2794481381    1.6220797805
      9  H        -2.6819570983   -1.0774378075   -0.1790816345
     10  H        -1.9358858079    0.5288426252   -0.3010983357
     11  H        -1.8816294908   -0.5951767596   -1.6772358847
   Point Group: c1    Number of degrees of freedom:    27


   Energy is  -5265.626941043

              Constraints and their Current Values
                                        Value     Constraint
   Distance(Angs):        2   4             2.801730     2.800000
 Hessian Updated using BFGS Update

   Using Lagrange Multiplier Algorithm


 25 Hessian modes will be used to form the next step
  Hessian Eigenvalues:
    -0.992835    0.035478    0.043201    0.045000    0.045022    0.046648
     0.057361    0.061160    0.081765    0.084829    0.089001    0.093770
     0.136490    0.159673    0.159997    0.172102    0.324742    0.334879
     0.337705    0.345381    0.346584    0.355999    0.356755    0.472230
     1.007973

 Minimum Search - Taking P-RFO Step
 Searching for Lamda that Maximizes Along the Constraint modes Only
 Value Taken    Lamda =   0.00000052
 Searching for Lamda that Minimizes Along All other modes
 Value Taken    Lamda =  -0.00022970
 Step Taken.  Stepsize is  0.049118

                             Maximum     Tolerance    Cnvgd?
         Gradient            0.003269       0.000300      NO
         Displacement        0.020348       0.001200      NO
         Energy change      0.000706       0.000001      NO


 New Cartesian Coordinates Obtained by Inverse Iteration

 Displacement from previous Coordinates is:  0.067590
 ----------------------------------------------------------------
             Standard Nuclear Orientation (Angstroms)
    I     Atom           X                Y                Z
 ----------------------------------------------------------------
    1      Br      1.2302591441    -0.1832046819    -1.6860913826
    2      Br      1.9418193316     1.2568657290     0.7616609326
    3      C      -0.5589912764    -1.1121696539    -0.0508237445
    4      C      -0.0068798001    -0.7133336719     1.1627701154
    5      C      -1.8258330570    -0.5180616687    -0.5881208103
    6      H      -0.2651189618    -2.0837721601    -0.4393613853
    7      H      -0.4461995938     0.0971215670     1.7316242763
    8      H       0.7874799905    -1.2809263398     1.6308468143
    9      H      -2.6780781398    -1.0776730890    -0.1772041259
   10      H      -1.9345920112     0.5297724978    -0.2989035716
   11      H      -1.8790746262    -0.5936185285    -1.6755881183
 ----------------------------------------------------------------
 Nuclear Repulsion Energy =   561.5537418370 hartrees
 There are       48 alpha and       46 beta electrons

                       Distance Matrix (Angstroms)
             Br(  1)   Br(  2)   C (  3)   C (  4)   C (  5)   H (  6)
   Br(  2)  2.927732
   C (  3)  2.595861  3.539282
   C (  4)  3.150803  2.800000  1.391656
   C (  5)  3.264562  4.378068  1.498846  2.532260
   H (  6)  2.720781  4.180059  1.086892  2.124056  2.215718
   H (  7)  3.817051  2.826388  2.156902  1.083252  2.768223  3.082575
   H (  8)  3.521807  2.920338  2.160898  1.082712  3.512148  2.457293
   H (  9)  4.283913  5.260703  2.123132  3.010577  1.099245  2.627420
   H ( 10)  3.528301  4.084119  2.156338  2.719904  1.092443  3.104430
   H ( 11)  3.136321  4.895274  2.156705  3.402311  1.091388  2.520648
             H (  7)   H (  8)   H (  9)   H ( 10)
   H (  8)  1.852333
   H (  9)  3.163076  3.914135
   H ( 10)  2.554514  3.796346  1.775236
   H ( 11)  3.760233  4.302955  1.765749  1.777737
 
 Applying Cartesian multipole field
    Component          Value
    ---------          -----
     (2,0,0)        1.00000E-11
     (0,2,0)        2.00000E-11
     (0,0,2)       -3.00000E-11
 Nucleus-field energy     =    -0.0000000015 hartrees
 Requested basis set is 6-31G(d,p)
 There are 46 shells and 145 basis functions
 A cutoff of  1.0D-14 yielded    967 shell pairs
 There are      9685 function pairs
 Smallest overlap matrix eigenvalue = 7.23E-04
 Guess from superposition of atomic densities
 Warning:  Energy on first SCF cycle will be non-variational
 SAD guess density has 93.945746 electrons

 -----------------------------------------------------------------------
  General SCF calculation program by
  Eric Jon Sundstrom, Paul Horn, Yuezhi Mao, Dmitri Zuev, Alec White,
  David Stuck, Shaama M.S., Shane Yost, Joonho Lee, David Small,
  Daniel Levine, Susi Lehtola, Hugh Burton, Evgeny Epifanovsky
 -----------------------------------------------------------------------
 Exchange:     0.2000 Hartree-Fock + 0.0800 Slater + 0.7200 B88
 Correlation:  0.1900 VWN1RPA + 0.8100 LYP
 Using SG-1 standard quadrature grid
 using 12 threads for integral computing
 -------------------------------------------------------
 OpenMP Integral computing Module                
 Release: version 1.0, May 2013, Q-Chem Inc. Pittsburgh 
 -------------------------------------------------------
 -------------------------------------------------------
 OpenMP BLAS3 based DFT computing Module                
 Release: version 1.0, May 2013, Q-Chem Inc. Pittsburgh 
 -------------------------------------------------------
 A unrestricted SCF calculation will be
 performed using DIIS
 SCF converges when DIIS error is below 1.0e-06
 Alpha HF Exchange    Energy = -19.60398310986409
 Beta HF Exchange     Energy = -19.60398310986409
 DFT Correlation      Energy =  -5.19818472056194
 DFT Exchange         Energy = -155.85926273018038
 One-Electron (alpha) Energy = -4217.91237814369470
 One-Electron (beta)  Energy = -4217.91237814369470
 Total Coulomb        Energy = 2801.66923488144994
 ---------------------------------------
  Cycle       Energy         DIIS error
 ---------------------------------------
    1   -5272.8671932409      1.83e-01  
 Alpha HF Exchange    Energy = -19.83981232235584
 Beta HF Exchange     Energy = -19.61641843588990
 DFT Correlation      Energy =  -5.24526816616993
 DFT Exchange         Energy = -157.04559960406726
 One-Electron (alpha) Energy = -4256.13229033533480
 One-Electron (beta)  Energy = -4201.73400956621026
 Total Coulomb        Energy = 2832.56659438642100
    2   -5265.4930622081      1.04e-02  
 Alpha HF Exchange    Energy = -19.69351799760868
 Beta HF Exchange     Energy = -19.47687843438899
 DFT Correlation      Energy =  -5.20984320718545
 DFT Exchange         Energy = -155.92721570229116
 One-Electron (alpha) Energy = -4240.05040902332348
 One-Electron (beta)  Energy = -4184.54449695862513
 Total Coulomb        Energy = 2797.84575957090237
    3   -5265.5028599170      4.00e-03  
 Alpha HF Exchange    Energy = -19.81113355443126
 Beta HF Exchange     Energy = -19.59069029273699
 DFT Correlation      Energy =  -5.23375478496598
 DFT Exchange         Energy = -156.80522464819353
 One-Electron (alpha) Energy = -4253.53325831229267
 One-Electron (beta)  Energy = -4198.74580187924312
 Total Coulomb        Energy = 2826.62357971460096
    4   -5265.5425419218      3.13e-03  
 Alpha HF Exchange    Energy = -19.77370027332084
 Beta HF Exchange     Energy = -19.54774466535076
 DFT Correlation      Energy =  -5.22881147057731
 DFT Exchange         Energy = -156.51676047829210
 One-Electron (alpha) Energy = -4249.18631877653934
 One-Electron (beta)  Energy = -4193.18880842779527
 Total Coulomb        Energy = 2816.27337798245890
    5   -5265.6150242739      9.38e-04  
 Alpha HF Exchange    Energy = -19.76854187903305
 Beta HF Exchange     Energy = -19.54407599130813
 DFT Correlation      Energy =  -5.22641449754996
 DFT Exchange         Energy = -156.47377693338763
 One-Electron (alpha) Energy = -4248.72989831094765
 One-Electron (beta)  Energy = -4192.97549771589365
 Total Coulomb        Energy = 2815.53853177697010
    6   -5265.6259317157      2.47e-04  
 Alpha HF Exchange    Energy = -19.76777163766605
 Beta HF Exchange     Energy = -19.54343859923846
 DFT Correlation      Energy =  -5.22604567731332
 DFT Exchange         Energy = -156.46731332016373
 One-Electron (alpha) Energy = -4248.66471380377152
 One-Electron (beta)  Energy = -4192.95193943398408
 Total Coulomb        Energy = 2815.44073463423001
    7   -5265.6267460024      1.31e-04  
 Alpha HF Exchange    Energy = -19.76783143974271
 Beta HF Exchange     Energy = -19.54317419670419
 DFT Correlation      Energy =  -5.22613136982025
 DFT Exchange         Energy = -156.46730462360625
 One-Electron (alpha) Energy = -4248.63890049621477
 One-Electron (beta)  Energy = -4192.79790872178637
 Total Coulomb        Energy = 2815.26047950953489
    8   -5265.6270295029      3.60e-05  
 Alpha HF Exchange    Energy = -19.76816615291858
 Beta HF Exchange     Energy = -19.54351220767371
 DFT Correlation      Energy =  -5.22612717450841
 DFT Exchange         Energy = -156.46932359438279
 One-Electron (alpha) Energy = -4248.69182685743272
 One-Electron (beta)  Energy = -4192.84292720199574
 Total Coulomb        Energy = 2815.36106972719381
    9   -5265.6270716262      1.48e-05  
 Alpha HF Exchange    Energy = -19.76821782218222
 Beta HF Exchange     Energy = -19.54360714992605
 DFT Correlation      Energy =  -5.22613119560108
 DFT Exchange         Energy = -156.46962589509698
 One-Electron (alpha) Energy = -4248.69898128767363
 One-Electron (beta)  Energy = -4192.83665659883172
 Total Coulomb        Energy = 2815.36238954911460
   10   -5265.6270885647      9.45e-06  
 Alpha HF Exchange    Energy = -19.76823356827609
 Beta HF Exchange     Energy = -19.54370358981940
 DFT Correlation      Energy =  -5.22608532580303
 DFT Exchange         Energy = -156.46967464799567
 One-Electron (alpha) Energy = -4248.70313873446412
 One-Electron (beta)  Energy = -4192.83033362616334
 Total Coulomb        Energy = 2815.36032921479546
   11   -5265.6270984422      3.35e-06  
 Alpha HF Exchange    Energy = -19.76822096691589
 Beta HF Exchange     Energy = -19.54372640709378
 DFT Correlation      Energy =  -5.22607882648353
 DFT Exchange         Energy = -156.46966538484605
 One-Electron (alpha) Energy = -4248.70037715429953
 One-Electron (beta)  Energy = -4192.82911758190494
 Total Coulomb        Energy = 2815.35634556520017
   12   -5265.6270989209      2.24e-06  
 Alpha HF Exchange    Energy = -19.76821661120562
 Beta HF Exchange     Energy = -19.54374040798258
 DFT Correlation      Energy =  -5.22607517876663
 DFT Exchange         Energy = -156.46967251052882
 One-Electron (alpha) Energy = -4248.69900776660324
 One-Electron (beta)  Energy = -4192.83015813567181
 Total Coulomb        Energy = 2815.35602971006028
   13   -5265.6270990652      8.72e-07  Convergence criterion met
 ---------------------------------------
 SCF time:   CPU 52.71s  wall 4.00s 
<S^2> =          2.006044065
 Alpha HF Exchange    Energy = -19.76821661120562
 Beta HF Exchange     Energy = -19.54374040798258
 DFT Correlation      Energy =  -5.22607517876663
 DFT Exchange         Energy = -156.46967251052882
 One-Electron (alpha) Energy = -4248.69900776660324
 One-Electron (beta)  Energy = -4192.83015813567181
 Total Coulomb        Energy = 2815.35602971006028
 Nuclear repulsion Energy = 561.55374183547610
 SCF   energy in the final basis set =    -5265.6270990652
 Total energy in the final basis set =    -5265.6270990652
 
 --------------------------------------------------------------
 
                    Orbital Energies (a.u.)
 --------------------------------------------------------------
 
 Alpha MOs
 -- Occupied --
*******-482.842 -62.515 -62.499 -56.336 -56.335 -56.332 -56.321
-56.318 -56.317 -10.269 -10.253 -10.215  -8.702  -8.687  -6.529
 -6.525  -6.518  -6.516  -6.506  -6.503  -2.623  -2.623  -2.618
 -2.615  -2.614  -2.609  -2.607  -2.605  -2.597  -2.597  -0.844
 -0.767  -0.742  -0.725  -0.606  -0.512  -0.467  -0.453  -0.409
 -0.398  -0.369  -0.343  -0.298  -0.289  -0.270  -0.255  -0.252
 -- Virtual --
 -0.045   0.078   0.104   0.113   0.149   0.150   0.152   0.209
  0.235   0.265   0.290   0.322   0.348   0.369   0.375   0.385
  0.409   0.441   0.473   0.491   0.516   0.528   0.550   0.564
  0.570   0.578   0.616   0.619   0.645   0.647   0.683   0.723
  0.731   0.790   0.808   0.840   0.857   0.862   0.865   0.896
  0.920   1.044   1.157   1.220   1.278   1.312   1.358   1.439
  1.598   1.728   1.772   1.818   1.821   1.874   1.891   1.944
  2.012   2.044   2.055   2.088   2.160   2.248   2.304   2.341
  2.400   2.455   2.543   2.572   2.626   2.653   2.766   2.817
  2.847   2.941   3.159   3.236   3.386   3.395   3.424   3.574
  4.165   4.356   4.542   4.664   4.697   4.717   4.733   4.740
  4.745   4.754   4.824   4.876   4.899   6.265   6.327  90.236
 90.406
 
 Beta MOs
 -- Occupied --
*******-482.840 -62.514 -62.498 -56.332 -56.332 -56.331 -56.317
-56.316 -56.316 -10.266 -10.247 -10.215  -8.699  -8.683  -6.522
 -6.521  -6.516  -6.509  -6.503  -6.501  -2.618  -2.618  -2.614
 -2.613  -2.612  -2.604  -2.603  -2.601  -2.596  -2.596  -0.831
 -0.738  -0.721  -0.704  -0.599  -0.508  -0.463  -0.447  -0.406
 -0.395  -0.328  -0.303  -0.287  -0.261  -0.258
 -- Virtual --
 -0.171  -0.161  -0.011   0.080   0.106   0.117   0.151   0.154
  0.155   0.217   0.238   0.276   0.295   0.326   0.359   0.381
  0.387   0.397   0.423   0.456   0.480   0.514   0.528   0.548
  0.562   0.582   0.591   0.594   0.628   0.637   0.667   0.671
  0.695   0.731   0.742   0.794   0.815   0.842   0.863   0.868
  0.884   0.902   0.923   1.056   1.161   1.227   1.288   1.325
  1.369   1.454   1.601   1.735   1.781   1.828   1.835   1.879
  1.907   1.953   2.013   2.046   2.057   2.091   2.171   2.249
  2.308   2.344   2.409   2.463   2.552   2.579   2.632   2.655
  2.768   2.818   2.849   2.943   3.159   3.239   3.390   3.396
  3.424   3.578   4.176   4.363   4.547   4.674   4.706   4.727
  4.738   4.746   4.754   4.761   4.831   4.886   4.908   6.278
  6.340  90.241  90.411
 --------------------------------------------------------------
 
          Ground-State Mulliken Net Atomic Charges

     Atom                 Charge (a.u.)    Spin (a.u.)
  --------------------------------------------------------
      1 Br                   -0.146765       0.753481
      2 Br                   -0.210608       0.716334
      3 C                    -0.056108       0.149280
      4 C                    -0.166662       0.415114
      5 C                    -0.340257      -0.008001
      6 H                     0.161585      -0.004302
      7 H                     0.161676      -0.016328
      8 H                     0.165316      -0.017963
      9 H                     0.137632       0.005354
     10 H                     0.144998      -0.000054
     11 H                     0.149191       0.007086
  --------------------------------------------------------
  Sum of atomic charges =    -0.000000
  Sum of spin   charges =     2.000000

 -----------------------------------------------------------------
                    Cartesian Multipole Moments
 -----------------------------------------------------------------
    Charge (ESU x 10^10)
                 0.0000
    Dipole Moment (Debye)
         X      -4.0205      Y      -2.7400      Z       1.2500
       Tot       5.0234
    Quadrupole Moments (Debye-Ang)
        XX     -59.6936     XY      -1.4472     YY     -55.9783
        XZ       1.1397     YZ      -0.6679     ZZ     -56.1908
    Octopole Moments (Debye-Ang^2)
       XXX    -143.3439    XXY      -9.3828    XYY     -45.8174
       YYY     -23.4366    XXZ      11.8602    XYZ      -3.6948
       YYZ      13.9035    XZZ     -44.7327    YZZ      -6.1979
       ZZZ      46.3805
    Hexadecapole Moments (Debye-Ang^3)
      XXXX    -851.6829   XXXY    -153.5005   XXYY    -196.8550
      XYYY    -157.0706   YYYY    -334.3914   XXXZ       2.0544
      XXYZ     -24.4800   XYYZ       5.3781   YYYZ     -62.0196
      XXZZ    -226.7629   XYZZ     -49.8850   YYZZ    -142.7725
      XZZZ      10.7628   YZZZ     -60.9453   ZZZZ    -522.8936
 -----------------------------------------------------------------
 Calculating analytic gradient of the SCF energy
 Gradient of SCF Energy
            1           2           3           4           5           6
    1  -0.0007733  -0.0025880   0.0001347   0.0018971  -0.0002969   0.0001124
    2  -0.0001372  -0.0023686   0.0006914   0.0016498  -0.0001149  -0.0007432
    3   0.0016464   0.0011009  -0.0010985  -0.0002016  -0.0000119  -0.0005226
            7           8           9          10          11
    1   0.0008523   0.0005276   0.0000671  -0.0000265   0.0000935
    2   0.0007201   0.0003200  -0.0000680  -0.0000529   0.0001034
    3  -0.0004942  -0.0002990  -0.0001661   0.0000709  -0.0000241
 Max gradient component =       2.588E-03
 RMS gradient           =       9.191E-04
 Gradient time:  CPU 16.13 s  wall 1.44 s
 Geometry Optimization Parameters
   NAtoms,    NIC,     NZ,  NCons,   NDum,   NFix, NCnnct, MaxDiis
       11      75       0       1       0       0       0       0

 Cartesian Hessian Update
 Hessian Updated using BFGS Update


** CONSTRAINED OPTIMIZATION IN DELOCALIZED INTERNAL COORDINATES **
   Searching for a Minimum

   Optimization Cycle:   3

                       Coordinates (Angstroms)
     ATOM                X               Y               Z
      1  Br        1.2302591441   -0.1832046819   -1.6860913826
      2  Br        1.9418193316    1.2568657290    0.7616609326
      3  C        -0.5589912764   -1.1121696539   -0.0508237445
      4  C        -0.0068798001   -0.7133336719    1.1627701154
      5  C        -1.8258330570   -0.5180616687   -0.5881208103
      6  H        -0.2651189618   -2.0837721601   -0.4393613853
      7  H        -0.4461995938    0.0971215670    1.7316242763
      8  H         0.7874799905   -1.2809263398    1.6308468143
      9  H        -2.6780781398   -1.0776730890   -0.1772041259
     10  H        -1.9345920112    0.5297724978   -0.2989035716
     11  H        -1.8790746262   -0.5936185285   -1.6755881183
   Point Group: c1    Number of degrees of freedom:    27


   Energy is  -5265.627099065

              Constraints and their Current Values
                                        Value     Constraint
   Distance(Angs):        2   4             2.800000     2.800000
 Hessian Updated using BFGS Update

 24 Hessian modes will be used to form the next step
  Hessian Eigenvalues:
     0.026917    0.039390    0.044570    0.045007    0.045137    0.048180
     0.061298    0.080380    0.081776    0.084830    0.091083    0.116139
     0.155889    0.159970    0.160003    0.162192    0.324640    0.331003
     0.337705    0.345378    0.346578    0.356302    0.359370    0.472275

 Minimum Search - Taking Simple RFO Step
 Searching for Lamda that Minimizes Along All modes
 Value Taken    Lamda =  -0.00027297
 Step Taken.  Stepsize is  0.091408

                             Maximum     Tolerance    Cnvgd?
         Gradient           0.001755      0.000300      NO
         Displacement       0.036741      0.001200      NO
         Energy change     -0.000158      0.000001      NO


 New Cartesian Coordinates Obtained by Inverse Iteration

 Displacement from previous Coordinates is:  0.133253
 ----------------------------------------------------------------
             Standard Nuclear Orientation (Angstroms)
    I     Atom           X                Y                Z
 ----------------------------------------------------------------
    1      Br      1.2389920641    -0.1774650000    -1.7154771018
    2      Br      1.9362542167     1.2524557090     0.7286524853
    3      C      -0.5522284001    -1.1070186443    -0.0478854009
    4      C      -0.0093210970    -0.7118577060     1.1716107990
    5      C      -1.8190824818    -0.5143969913    -0.5856463291
    6      H      -0.2547270666    -2.0758740250    -0.4365512859
    7      H      -0.4746022197     0.0762662996     1.7520504831
    8      H       0.7722836236    -1.2896408387     1.6483949367
    9      H      -2.6707973487    -1.0752244999    -0.1748292813
   10      H      -1.9293938378     0.5332797529    -0.2962898642
   11      H      -1.8725864524    -0.5895240563    -1.6732204409
 ----------------------------------------------------------------
 Nuclear Repulsion Energy =   561.5776664887 hartrees
 There are       48 alpha and       46 beta electrons

                       Distance Matrix (Angstroms)
             Br(  1)   Br(  2)   C (  3)   C (  4)   C (  5)   H (  6)
   Br(  2)  2.916268
   C (  3)  2.617900  3.516060
   C (  4)  3.190476  2.800000  1.392146
   C (  5)  3.277478  4.353355  1.498435  2.530253
   H (  6)  2.733277  4.151611  1.085472  2.122958  2.215321
   H (  7)  3.876149  2.871061  2.155449  1.083760  2.760677  3.077342
   H (  8)  3.573568  2.943299  2.159873  1.082618  3.508151  2.453551
   H (  9)  4.297211  5.240162  2.122607  3.004728  1.099416  2.628154
   H ( 10)  3.543716  4.063368  2.156123  2.718783  1.092484  3.103525
   H ( 11)  3.139028  4.865095  2.157049  3.402909  1.091478  2.521122
             H (  7)   H (  8)   H (  9)   H ( 10)
   H (  8)  1.852342
   H (  9)  3.140393  3.901913
   H ( 10)  2.553621  3.795247  1.775308
   H ( 11)  3.759005  4.303328  1.765849  1.777598
 
 Applying Cartesian multipole field
    Component          Value
    ---------          -----
     (2,0,0)        1.00000E-11
     (0,2,0)        2.00000E-11
     (0,0,2)       -3.00000E-11
 Nucleus-field energy     =    -0.0000000017 hartrees
 Requested basis set is 6-31G(d,p)
 There are 46 shells and 145 basis functions
 A cutoff of  1.0D-14 yielded    967 shell pairs
 There are      9685 function pairs
 Smallest overlap matrix eigenvalue = 7.23E-04
 Guess from superposition of atomic densities
 Warning:  Energy on first SCF cycle will be non-variational
 SAD guess density has 93.945746 electrons

 -----------------------------------------------------------------------
  General SCF calculation program by
  Eric Jon Sundstrom, Paul Horn, Yuezhi Mao, Dmitri Zuev, Alec White,
  David Stuck, Shaama M.S., Shane Yost, Joonho Lee, David Small,
  Daniel Levine, Susi Lehtola, Hugh Burton, Evgeny Epifanovsky
 -----------------------------------------------------------------------
 Exchange:     0.2000 Hartree-Fock + 0.0800 Slater + 0.7200 B88
 Correlation:  0.1900 VWN1RPA + 0.8100 LYP
 Using SG-1 standard quadrature grid
 using 12 threads for integral computing
 -------------------------------------------------------
 OpenMP Integral computing Module                
 Release: version 1.0, May 2013, Q-Chem Inc. Pittsburgh 
 -------------------------------------------------------
 -------------------------------------------------------
 OpenMP BLAS3 based DFT computing Module                
 Release: version 1.0, May 2013, Q-Chem Inc. Pittsburgh 
 -------------------------------------------------------
 A unrestricted SCF calculation will be
 performed using DIIS
 SCF converges when DIIS error is below 1.0e-06
 Alpha HF Exchange    Energy = -19.60356255410274
 Beta HF Exchange     Energy = -19.60356255410274
 DFT Correlation      Energy =  -5.19792837787834
 DFT Exchange         Energy = -155.85859152722173
 One-Electron (alpha) Energy = -4217.93580794023910
 One-Electron (beta)  Energy = -4217.93580794023910
 Total Coulomb        Energy = 2801.69192927026415
 ---------------------------------------
  Cycle       Energy         DIIS error
 ---------------------------------------
    1   -5272.8656651366      1.83e-01  
 Alpha HF Exchange    Energy = -19.83973773538856
 Beta HF Exchange     Energy = -19.61647577370440
 DFT Correlation      Energy =  -5.24509278439658
 DFT Exchange         Energy = -157.04541842353819
 One-Electron (alpha) Energy = -4256.18520703784907
 One-Electron (beta)  Energy = -4201.86084662740450
 Total Coulomb        Energy = 2832.72248712233750
    2   -5265.4926247730      1.04e-02  
 Alpha HF Exchange    Energy = -19.69293938971271
 Beta HF Exchange     Energy = -19.47621272956804
 DFT Correlation      Energy =  -5.20962639874419
 DFT Exchange         Energy = -155.92350791094799
 One-Electron (alpha) Energy = -4239.99152561956453
 One-Electron (beta)  Energy = -4184.45001501790921
 Total Coulomb        Energy = 2797.66444865835592
    3   -5265.5017119211      4.02e-03  
 Alpha HF Exchange    Energy = -19.81125718685363
 Beta HF Exchange     Energy = -19.59104388197053
 DFT Correlation      Energy =  -5.23351822855990
 DFT Exchange         Energy = -156.80640741695740
 One-Electron (alpha) Energy = -4253.63769411702469
 One-Electron (beta)  Energy = -4198.98548598563229
 Total Coulomb        Energy = 2826.94513147434645
    4   -5265.5426088557      3.15e-03  
 Alpha HF Exchange    Energy = -19.77341290713182
 Beta HF Exchange     Energy = -19.54711368655758
 DFT Correlation      Energy =  -5.22869043351607
 DFT Exchange         Energy = -156.51445570365763
 One-Electron (alpha) Energy = -4249.18344697146404
 One-Electron (beta)  Energy = -4193.14051826294599
 Total Coulomb        Energy = 2816.19344720606250
    5   -5265.6165242722      8.94e-04  
 Alpha HF Exchange    Energy = -19.76831101615576
 Beta HF Exchange     Energy = -19.54373788693430
 DFT Correlation      Energy =  -5.22619204018484
 DFT Exchange         Energy = -156.47205642024340
 One-Electron (alpha) Energy = -4248.76308276147302
 One-Electron (beta)  Energy = -4193.04636611605019
 Total Coulomb        Energy = 2815.61583354624418
    6   -5265.6262462078      2.31e-04  
 Alpha HF Exchange    Energy = -19.76760652914194
 Beta HF Exchange     Energy = -19.54301796835218
 DFT Correlation      Energy =  -5.22589822557680
 DFT Exchange         Energy = -156.46603518852510
 One-Electron (alpha) Energy = -4248.69558358527047
 One-Electron (beta)  Energy = -4192.98440898003537
 Total Coulomb        Energy = 2815.47798170681199
    7   -5265.6269022831      1.35e-04  
 Alpha HF Exchange    Energy = -19.76766012021821
 Beta HF Exchange     Energy = -19.54273220555028
 DFT Correlation      Energy =  -5.22597137234609
 DFT Exchange         Energy = -156.46590195571406
 One-Electron (alpha) Energy = -4248.67260687686576
 One-Electron (beta)  Energy = -4192.83869576956477
 Total Coulomb        Energy = 2815.30870930691890
    8   -5265.6271925064      3.52e-05  
 Alpha HF Exchange    Energy = -19.76799196016104
 Beta HF Exchange     Energy = -19.54302860326937
 DFT Correlation      Energy =  -5.22597522988566
 DFT Exchange         Energy = -156.46784842445697
 One-Electron (alpha) Energy = -4248.72543444284292
 One-Electron (beta)  Energy = -4192.88205067316267
 Total Coulomb        Energy = 2815.40743529636165
    9   -5265.6272275505      1.36e-05  
 Alpha HF Exchange    Energy = -19.76804633377781
 Beta HF Exchange     Energy = -19.54309380233414
 DFT Correlation      Energy =  -5.22598372665786
 DFT Exchange         Energy = -156.46812176767241
 One-Electron (alpha) Energy = -4248.73347741882753
 One-Electron (beta)  Energy = -4192.87659788913425
 Total Coulomb        Energy = 2815.41041409979380
   10   -5265.6272403516      8.68e-06  
 Alpha HF Exchange    Energy = -19.76807041845865
 Beta HF Exchange     Energy = -19.54316126390246
 DFT Correlation      Energy =  -5.22594702264954
 DFT Exchange         Energy = -156.46816766209656
 One-Electron (alpha) Energy = -4248.73922880766531
 One-Electron (beta)  Energy = -4192.87001157888517
 Total Coulomb        Energy = 2815.40967124808640
   11   -5265.6272490186      3.36e-06  
 Alpha HF Exchange    Energy = -19.76805862828035
 Beta HF Exchange     Energy = -19.54318173964744
 DFT Correlation      Energy =  -5.22594111570754
 DFT Exchange         Energy = -156.46815743452134
 One-Electron (alpha) Energy = -4248.73661196714420
 One-Electron (beta)  Energy = -4192.86871502965823
 Total Coulomb        Energy = 2815.40574986564252
   12   -5265.6272495624      2.22e-06  
 Alpha HF Exchange    Energy = -19.76805320707574
 Beta HF Exchange     Energy = -19.54319673472355
 DFT Correlation      Energy =  -5.22593736861601
 DFT Exchange         Energy = -156.46816293518381
 One-Electron (alpha) Energy = -4248.73505999769441
 One-Electron (beta)  Energy = -4192.86971774940866
 Total Coulomb        Energy = 2815.40521177386290
   13   -5265.6272497319      8.60e-07  Convergence criterion met
 ---------------------------------------
 SCF time:   CPU 52.31s  wall 5.00s 
<S^2> =          2.005645469
 Alpha HF Exchange    Energy = -19.76805320707574
 Beta HF Exchange     Energy = -19.54319673472355
 DFT Correlation      Energy =  -5.22593736861601
 DFT Exchange         Energy = -156.46816293518381
 One-Electron (alpha) Energy = -4248.73505999769441
 One-Electron (beta)  Energy = -4192.86971774940866
 Total Coulomb        Energy = 2815.40521177386290
 Nuclear repulsion Energy = 561.57766648695986
 SCF   energy in the final basis set =    -5265.6272497319
 Total energy in the final basis set =    -5265.6272497319
 
 --------------------------------------------------------------
 
                    Orbital Energies (a.u.)
 --------------------------------------------------------------
 
 Alpha MOs
 -- Occupied --
*******-482.843 -62.513 -62.500 -56.334 -56.333 -56.330 -56.322
-56.319 -56.318 -10.269 -10.254 -10.215  -8.700  -8.687  -6.527
 -6.524  -6.517  -6.516  -6.508  -6.504  -2.622  -2.621  -2.616
 -2.614  -2.612  -2.610  -2.608  -2.605  -2.599  -2.598  -0.843
 -0.766  -0.741  -0.725  -0.606  -0.512  -0.467  -0.453  -0.409
 -0.398  -0.369  -0.343  -0.298  -0.289  -0.269  -0.253  -0.252
 -- Virtual --
 -0.046   0.078   0.104   0.113   0.149   0.150   0.152   0.209
  0.235   0.265   0.289   0.322   0.349   0.370   0.375   0.385
  0.408   0.443   0.475   0.489   0.517   0.529   0.552   0.565
  0.570   0.578   0.614   0.617   0.645   0.648   0.683   0.724
  0.730   0.789   0.807   0.839   0.857   0.863   0.865   0.895
  0.918   1.040   1.150   1.225   1.276   1.307   1.354   1.444
  1.599   1.728   1.772   1.816   1.823   1.875   1.890   1.938
  2.012   2.044   2.055   2.088   2.166   2.246   2.305   2.342
  2.394   2.455   2.541   2.572   2.627   2.652   2.767   2.817
  2.849   2.940   3.158   3.237   3.385   3.394   3.424   3.573
  4.163   4.357   4.540   4.663   4.697   4.715   4.732   4.740
  4.745   4.754   4.821   4.880   4.898   6.264   6.328  90.227
 90.410
 
 Beta MOs
 -- Occupied --
*******-482.841 -62.512 -62.499 -56.331 -56.330 -56.329 -56.318
-56.317 -56.317 -10.266 -10.248 -10.215  -8.697  -8.684  -6.521
 -6.519  -6.515  -6.510  -6.505  -6.502  -2.616  -2.616  -2.612
 -2.611  -2.610  -2.604  -2.604  -2.601  -2.597  -2.597  -0.831
 -0.737  -0.721  -0.703  -0.599  -0.508  -0.463  -0.446  -0.406
 -0.396  -0.327  -0.302  -0.287  -0.261  -0.258
 -- Virtual --
 -0.172  -0.160  -0.012   0.080   0.106   0.116   0.151   0.153
  0.155   0.217   0.239   0.276   0.294   0.326   0.360   0.381
  0.387   0.397   0.421   0.457   0.481   0.513   0.529   0.548
  0.564   0.582   0.591   0.594   0.626   0.636   0.667   0.672
  0.695   0.731   0.741   0.794   0.814   0.842   0.862   0.868
  0.884   0.904   0.921   1.052   1.154   1.232   1.286   1.318
  1.366   1.458   1.602   1.735   1.781   1.831   1.833   1.880
  1.906   1.947   2.013   2.046   2.057   2.090   2.177   2.248
  2.309   2.345   2.403   2.463   2.548   2.580   2.633   2.654
  2.769   2.817   2.851   2.942   3.159   3.239   3.389   3.396
  3.424   3.576   4.173   4.364   4.546   4.673   4.705   4.725
  4.737   4.747   4.754   4.762   4.828   4.889   4.908   6.276
  6.341  90.232  90.416
 --------------------------------------------------------------
 
          Ground-State Mulliken Net Atomic Charges

     Atom                 Charge (a.u.)    Spin (a.u.)
  --------------------------------------------------------
      1 Br                   -0.154005       0.747316
      2 Br                   -0.205471       0.721582
      3 C                    -0.050068       0.163370
      4 C                    -0.167464       0.401065
      5 C                    -0.341491      -0.008784
      6 H                     0.161512      -0.004942
      7 H                     0.160053      -0.015869
      8 H                     0.164311      -0.017409
      9 H                     0.137549       0.006256
     10 H                     0.145343       0.000053
     11 H                     0.149731       0.007362
  --------------------------------------------------------
  Sum of atomic charges =    -0.000000
  Sum of spin   charges =     2.000000

 -----------------------------------------------------------------
                    Cartesian Multipole Moments
 -----------------------------------------------------------------
    Charge (ESU x 10^10)
                -0.0000
    Dipole Moment (Debye)
         X      -4.0284      Y      -2.7239      Z       1.3735
       Tot       5.0531
    Quadrupole Moments (Debye-Ang)
        XX     -59.6263     XY      -1.3478     YY     -55.9051
        XZ       1.2645     YZ      -0.6838     ZZ     -56.2559
    Octopole Moments (Debye-Ang^2)
       XXX    -143.3768    XXY      -9.1172    XYY     -45.7078
       YYY     -23.4790    XXZ      13.3038    XYZ      -3.6452
       YYZ      15.0585    XZZ     -45.1723    YZZ      -6.4250
       ZZZ      50.1402
    Hexadecapole Moments (Debye-Ang^3)
      XXXX    -849.3423   XXXY    -151.7027   XXYY    -195.7806
      XYYY    -155.7480   YYYY    -331.8654   XXXZ       9.8973
      XXYZ     -23.4370   XYYZ       7.7543   YYYZ     -59.0438
      XXZZ    -228.1272   XYZZ     -49.6939   YYZZ    -143.5868
      XZZZ      18.3073   YZZZ     -57.9887   ZZZZ    -530.0262
 -----------------------------------------------------------------
 Calculating analytic gradient of the SCF energy
 Gradient of SCF Energy
            1           2           3           4           5           6
    1  -0.0002169  -0.0012509   0.0007506   0.0020375  -0.0003613  -0.0004219
    2   0.0004522  -0.0013803  -0.0000043   0.0018510  -0.0002039  -0.0002144
    3   0.0014774  -0.0000582  -0.0016462  -0.0001713   0.0003751   0.0001856
            7           8           9          10          11
    1  -0.0003821  -0.0002182   0.0000455  -0.0000459   0.0000635
    2  -0.0003020  -0.0002080  -0.0000764  -0.0000326   0.0001187
    3   0.0000958  -0.0000280  -0.0001753   0.0000407  -0.0000957
 Max gradient component =       2.037E-03
 RMS gradient           =       7.338E-04
 Gradient time:  CPU 16.13 s  wall 1.43 s
 Geometry Optimization Parameters
   NAtoms,    NIC,     NZ,  NCons,   NDum,   NFix, NCnnct, MaxDiis
       11      75       0       1       0       0       0       0

 Cartesian Hessian Update
 Hessian Updated using BFGS Update


** CONSTRAINED OPTIMIZATION IN DELOCALIZED INTERNAL COORDINATES **
   Searching for a Minimum

   Optimization Cycle:   4

                       Coordinates (Angstroms)
     ATOM                X               Y               Z
      1  Br        1.2389920641   -0.1774650000   -1.7154771018
      2  Br        1.9362542167    1.2524557090    0.7286524853
      3  C        -0.5522284001   -1.1070186443   -0.0478854009
      4  C        -0.0093210970   -0.7118577060    1.1716107990
      5  C        -1.8190824818   -0.5143969913   -0.5856463291
      6  H        -0.2547270666   -2.0758740250   -0.4365512859
      7  H        -0.4746022197    0.0762662996    1.7520504831
      8  H         0.7722836236   -1.2896408387    1.6483949367
      9  H        -2.6707973487   -1.0752244999   -0.1748292813
     10  H        -1.9293938378    0.5332797529   -0.2962898642
     11  H        -1.8725864524   -0.5895240563   -1.6732204409
   Point Group: c1    Number of degrees of freedom:    27


   Energy is  -5265.627249732

              Constraints and their Current Values
                                        Value     Constraint
   Distance(Angs):        2   4             2.800000     2.800000
 Hessian Updated using BFGS Update

 25 Hessian modes will be used to form the next step
  Hessian Eigenvalues:
     0.022910    0.039920    0.044946    0.045070    0.045713    0.050931
     0.063982    0.076543    0.081794    0.084833    0.091014    0.111344
     0.156554    0.159996    0.160001    0.160074    0.163994    0.324580
     0.331714    0.337708    0.345379    0.346599    0.356381    0.359395
     0.473353

 Minimum Search - Taking Simple RFO Step
 Searching for Lamda that Minimizes Along All modes
 Value Taken    Lamda =  -0.00003503
 Step Taken.  Stepsize is  0.028177

                             Maximum     Tolerance    Cnvgd?
         Gradient           0.000817      0.000300      NO
         Displacement       0.014361      0.001200      NO
         Energy change     -0.000151      0.000001      NO


 New Cartesian Coordinates Obtained by Inverse Iteration

 Displacement from previous Coordinates is:  0.033139
 ----------------------------------------------------------------
             Standard Nuclear Orientation (Angstroms)
    I     Atom           X                Y                Z
 ----------------------------------------------------------------
    1      Br      1.2414649725    -0.1778598216    -1.7264147503
    2      Br      1.9300733602     1.2537656738     0.7239925398
    3      C      -0.5520391965    -1.1069822760    -0.0457940502
    4      C      -0.0107860445    -0.7134861885     1.1745338186
    5      C      -1.8172643060    -0.5131399788    -0.5850759912
    6      H      -0.2526971538    -2.0747362835    -0.4354815214
    7      H      -0.4775527238     0.0723444284     1.7566514192
    8      H       0.7701124100    -1.2920710903     1.6516755048
    9      H      -2.6699628116    -1.0730151782    -0.1747633514
   10      H      -1.9267717424     0.5346807654    -0.2958975800
   11      H      -1.8697857640    -0.5885000508    -1.6726170378
 ----------------------------------------------------------------
 Nuclear Repulsion Energy =   560.9687117864 hartrees
 There are       48 alpha and       46 beta electrons

                       Distance Matrix (Angstroms)
             Br(  1)   Br(  2)   C (  3)   C (  4)   C (  5)   H (  6)
   Br(  2)  2.920313
   C (  3)  2.627625  3.510924
[...]
   Br(  2)  2.876650
   C (  3)  3.778695  3.122488
   C (  4)  4.469192  2.800000  1.363734
   C (  5)  3.810560  3.834475  1.484186  2.532615
   H (  6)  3.654026  3.435737  1.088964  2.106029  2.198381
   H (  7)  5.004147  3.098558  2.140044  1.085676  2.805911  3.084694
   H (  8)  4.921244  2.995162  2.135892  1.083938  3.510218  2.435182
   H (  9)  4.471139  4.843242  2.132099  3.299692  1.096716  2.506581
   H ( 10)  4.475482  4.093408  2.155282  2.704170  1.092660  3.104318
   H ( 11)  2.927953  3.609573  2.116473  3.180335  1.102048  2.573073
             H (  7)   H (  8)   H (  9)   H ( 10)
   H (  8)  1.852192
   H (  9)  3.646955  4.176241
   H ( 10)  2.531693  3.778646  1.787151
   H ( 11)  3.485815  4.101275  1.759117  1.784944
 
 Applying Cartesian multipole field
    Component          Value
    ---------          -----
     (2,0,0)        1.00000E-11
     (0,2,0)        2.00000E-11
     (0,0,2)       -3.00000E-11
 Nucleus-field energy     =    -0.0000000186 hartrees
 Requested basis set is 6-31G(d,p)
 There are 46 shells and 145 basis functions
 A cutoff of  1.0D-14 yielded    947 shell pairs
 There are      9442 function pairs
 Smallest overlap matrix eigenvalue = 7.23E-04
 Guess from superposition of atomic densities
 Warning:  Energy on first SCF cycle will be non-variational
 SAD guess density has 93.945746 electrons

 -----------------------------------------------------------------------
  General SCF calculation program by
  Eric Jon Sundstrom, Paul Horn, Yuezhi Mao, Dmitri Zuev, Alec White,
  David Stuck, Shaama M.S., Shane Yost, Joonho Lee, David Small,
  Daniel Levine, Susi Lehtola, Hugh Burton, Evgeny Epifanovsky
 -----------------------------------------------------------------------
 Exchange:     0.2000 Hartree-Fock + 0.0800 Slater + 0.7200 B88
 Correlation:  0.1900 VWN1RPA + 0.8100 LYP
 Using SG-1 standard quadrature grid
 using 12 threads for integral computing
 -------------------------------------------------------
 OpenMP Integral computing Module                
 Release: version 1.0, May 2013, Q-Chem Inc. Pittsburgh 
 -------------------------------------------------------
 -------------------------------------------------------
 OpenMP BLAS3 based DFT computing Module                
 Release: version 1.0, May 2013, Q-Chem Inc. Pittsburgh 
 -------------------------------------------------------
 A unrestricted SCF calculation will be
 performed using DIIS
 SCF converges when DIIS error is below 1.0e-06
 Alpha HF Exchange    Energy = -19.60123661560173
 Beta HF Exchange     Energy = -19.60123661560173
 DFT Correlation      Energy =  -5.19358395095590
 DFT Exchange         Energy = -155.85613432174350
 One-Electron (alpha) Energy = -4197.95034381195728
 One-Electron (beta)  Energy = -4197.95034381195728
 Total Coulomb        Energy = 2781.71820157353386
 ---------------------------------------
  Cycle       Energy         DIIS error
 ---------------------------------------
    1   -5272.8308202842      1.83e-01  
 Alpha HF Exchange    Energy = -19.84111711023062
 Beta HF Exchange     Energy = -19.61701697568625
 DFT Correlation      Energy =  -5.24155114424701
 DFT Exchange         Energy = -157.04937168533010
 One-Electron (alpha) Energy = -4236.01347239204642
 One-Electron (beta)  Energy = -4182.87991157420311
 Total Coulomb        Energy = 2813.55425678964593
    2   -5265.4843268220      1.04e-02  
 Alpha HF Exchange    Energy = -19.69161288768901
 Beta HF Exchange     Energy = -19.47938748050011
 DFT Correlation      Energy =  -5.20434346546949
 DFT Exchange         Energy = -155.92268427995901
 One-Electron (alpha) Energy = -4219.68217828782235
 One-Electron (beta)  Energy = -4163.14963057112709
 Total Coulomb        Energy = 2776.13440140144894
    3   -5265.3915783010      4.70e-03  
 Alpha HF Exchange    Energy = -19.80603851783692
 Beta HF Exchange     Energy = -19.59483983808934
 DFT Correlation      Energy =  -5.22628933781700
 DFT Exchange         Energy = -156.78358656980052
 One-Electron (alpha) Energy = -4233.05217199061644
 One-Electron (beta)  Energy = -4179.67751894739104
 Total Coulomb        Energy = 2807.16910487625410
    4   -5265.3674830552      4.55e-03  
 Alpha HF Exchange    Energy = -19.78250410255751
 Beta HF Exchange     Energy = -19.54859152350491
 DFT Correlation      Energy =  -5.22636775830575
 DFT Exchange         Energy = -156.56430204870671
 One-Electron (alpha) Energy = -4230.11323204111886
 One-Electron (beta)  Energy = -4173.31807694550844
 Total Coulomb        Energy = 2797.34298563594848
    5   -5265.6062315137      1.43e-03  
 Alpha HF Exchange    Energy = -19.76889888264832
 Beta HF Exchange     Energy = -19.53915805465436
 DFT Correlation      Energy =  -5.22186134893731
 DFT Exchange         Energy = -156.45685189479394
 One-Electron (alpha) Energy = -4228.80861919017752
 One-Electron (beta)  Energy = -4172.68461354641931
 Total Coulomb        Energy = 2795.25043788001767
    6   -5265.6257077675      6.55e-04  
 Alpha HF Exchange    Energy = -19.76911888024280
 Beta HF Exchange     Energy = -19.53848839504563
 DFT Correlation      Energy =  -5.22164146786741
 DFT Exchange         Energy = -156.45566218271517
 One-Electron (alpha) Energy = -4228.83619898305824
 One-Electron (beta)  Energy = -4172.67026582818380
 Total Coulomb        Energy = 2795.25427068743193
    7   -5265.6332477796      2.66e-04  
 Alpha HF Exchange    Energy = -19.76999086370839
 Beta HF Exchange     Energy = -19.53957644458290
 DFT Correlation      Energy =  -5.22198839995221
 DFT Exchange         Energy = -156.46234596024772
 One-Electron (alpha) Energy = -4228.86140182383588
 One-Electron (beta)  Energy = -4172.33919553605483
 Total Coulomb        Energy = 2794.95603418422525
    8   -5265.6346075741      1.03e-04  
 Alpha HF Exchange    Energy = -19.77029849157465
 Beta HF Exchange     Energy = -19.54061817873429
 DFT Correlation      Energy =  -5.22187508486681
 DFT Exchange         Energy = -156.46477203184517
 One-Electron (alpha) Energy = -4228.94220985070024
 One-Electron (beta)  Energy = -4172.49689307896188
 Total Coulomb        Energy = 2795.19783498016341
    9   -5265.6349744664      4.86e-05  
 Alpha HF Exchange    Energy = -19.77013853088921
 Beta HF Exchange     Energy = -19.54131025280466
 DFT Correlation      Energy =  -5.22177953466641
 DFT Exchange         Energy = -156.46471095980678
 One-Electron (alpha) Energy = -4228.92297603517909
 One-Electron (beta)  Energy = -4172.46846458690470
 Total Coulomb        Energy = 2795.15038312343950
   10   -5265.6351395067      2.35e-05  
 Alpha HF Exchange    Energy = -19.77009452033227
 Beta HF Exchange     Energy = -19.54161117928482
 DFT Correlation      Energy =  -5.22171263219534
 DFT Exchange         Energy = -156.46490297633628
 One-Electron (alpha) Energy = -4228.91975142968022
 One-Electron (beta)  Energy = -4172.47342847461550
 Total Coulomb        Energy = 2795.15248156604684
   11   -5265.6351623763      9.02e-06  
 Alpha HF Exchange    Energy = -19.77003676513410
 Beta HF Exchange     Energy = -19.54169462319380
 DFT Correlation      Energy =  -5.22169166838113
 DFT Exchange         Energy = -156.46476527118281
 One-Electron (alpha) Energy = -4228.91090393360901
 One-Electron (beta)  Energy = -4172.46960803294405
 Total Coulomb        Energy = 2795.13967773694867
   12   -5265.6351652874      4.94e-06  
 Alpha HF Exchange    Energy = -19.77002916480492
 Beta HF Exchange     Energy = -19.54173945990577
 DFT Correlation      Energy =  -5.22169413175007
 DFT Exchange         Energy = -156.46484030346656
 One-Electron (alpha) Energy = -4228.90920033077055
 One-Electron (beta)  Energy = -4172.47191725129323
 Total Coulomb        Energy = 2795.14039733654317
   13   -5265.6351660354      1.83e-06  
 Alpha HF Exchange    Energy = -19.77002985781949
 Beta HF Exchange     Energy = -19.54176313010314
 DFT Correlation      Energy =  -5.22169421908504
 DFT Exchange         Energy = -156.46490629334576
 One-Electron (alpha) Energy = -4228.90924538029503
 One-Electron (beta)  Energy = -4172.47501168716190
 Total Coulomb        Energy = 2795.14362701724713
   14   -5265.6351662805      7.89e-07  Convergence criterion met
 ---------------------------------------
 SCF time:   CPU 54.61s  wall 5.00s 
<S^2> =          2.005221137
 Alpha HF Exchange    Energy = -19.77002985781949
 Beta HF Exchange     Energy = -19.54176313010314
 DFT Correlation      Energy =  -5.22169421908504
 DFT Exchange         Energy = -156.46490629334576
 One-Electron (alpha) Energy = -4228.90924538029503
 One-Electron (beta)  Energy = -4172.47501168716190
 Total Coulomb        Energy = 2795.14362701724713
 Nuclear repulsion Energy = 541.60385727007645
 SCF   energy in the final basis set =    -5265.6351662805
 Total energy in the final basis set =    -5265.6351662805
 
 --------------------------------------------------------------
 
                    Orbital Energies (a.u.)
 --------------------------------------------------------------
 
 Alpha MOs
 -- Occupied --
*******-482.836 -62.531 -62.493 -56.352 -56.351 -56.348 -56.316
-56.311 -56.310 -10.260 -10.248 -10.213  -8.718  -8.680  -6.546
 -6.541  -6.533  -6.511  -6.499  -6.496  -2.640  -2.640  -2.634
 -2.630  -2.629  -2.604  -2.601  -2.600  -2.590  -2.590  -0.842
 -0.780  -0.735  -0.726  -0.603  -0.513  -0.468  -0.448  -0.410
 -0.394  -0.364  -0.357  -0.307  -0.286  -0.268  -0.266  -0.251
 -- Virtual --
 -0.044   0.079   0.101   0.118   0.146   0.148   0.154   0.211
  0.245   0.262   0.307   0.320   0.336   0.362   0.375   0.382
  0.415   0.465   0.481   0.486   0.520   0.522   0.541   0.569
  0.578   0.587   0.615   0.627   0.632   0.651   0.654   0.667
  0.713   0.755   0.791   0.825   0.852   0.858   0.874   0.895
  0.947   0.989   1.133   1.168   1.256   1.297   1.345   1.434
  1.583   1.745   1.770   1.783   1.804   1.852   1.891   1.968
  2.009   2.051   2.063   2.078   2.134   2.257   2.328   2.338
  2.437   2.448   2.494   2.599   2.615   2.654   2.781   2.828
  2.834   2.948   3.154   3.232   3.379   3.402   3.433   3.595
  4.158   4.353   4.539   4.652   4.685   4.699   4.706   4.739
  4.747   4.749   4.758   4.792   4.891   6.248   6.320  90.183
 90.390
 
 Beta MOs
 -- Occupied --
*******-482.834 -62.529 -62.492 -56.348 -56.348 -56.347 -56.311
-56.310 -56.310 -10.256 -10.246 -10.213  -8.714  -8.677  -6.539
 -6.536  -6.531  -6.503  -6.496  -6.495  -2.634  -2.634  -2.630
 -2.627  -2.626  -2.598  -2.596  -2.595  -2.589  -2.589  -0.831
 -0.745  -0.724  -0.698  -0.598  -0.510  -0.466  -0.440  -0.408
 -0.392  -0.321  -0.313  -0.294  -0.261  -0.255
 -- Virtual --
 -0.188  -0.154  -0.020   0.080   0.102   0.120   0.148   0.151
  0.156   0.219   0.248   0.273   0.312   0.325   0.349   0.376
  0.385   0.396   0.431   0.474   0.488   0.511   0.536   0.547
  0.562   0.589   0.594   0.597   0.629   0.637   0.644   0.668
  0.679   0.690   0.720   0.766   0.793   0.829   0.857   0.861
  0.894   0.902   0.955   0.995   1.139   1.171   1.265   1.302
  1.358   1.440   1.585   1.758   1.777   1.791   1.814   1.859
  1.902   1.973   2.011   2.053   2.065   2.081   2.141   2.259
  2.330   2.341   2.442   2.454   2.501   2.606   2.618   2.657
  2.782   2.830   2.837   2.950   3.156   3.234   3.381   3.405
  3.434   3.597   4.166   4.357   4.544   4.661   4.693   4.709
  4.717   4.742   4.754   4.759   4.765   4.803   4.903   6.262
  6.333  90.189  90.396
 --------------------------------------------------------------
 
          Ground-State Mulliken Net Atomic Charges

     Atom                 Charge (a.u.)    Spin (a.u.)
  --------------------------------------------------------
      1 Br                   -0.241122       0.735882
      2 Br                   -0.094449       0.881535
      3 C                     0.023871       0.275017
      4 C                    -0.222607       0.114410
      5 C                    -0.366603      -0.013868
      6 H                     0.146480      -0.012131
      7 H                     0.147170      -0.005098
      8 H                     0.155856      -0.004369
      9 H                     0.138723       0.011296
     10 H                     0.127632       0.000498
     11 H                     0.185050       0.016827
  --------------------------------------------------------
  Sum of atomic charges =    -0.000000
  Sum of spin   charges =     2.000000

 -----------------------------------------------------------------
                    Cartesian Multipole Moments
 -----------------------------------------------------------------
    Charge (ESU x 10^10)
                -0.0000
    Dipole Moment (Debye)
         X      -3.4603      Y      -1.8440      Z       3.5067
       Tot       5.2604
    Quadrupole Moments (Debye-Ang)
        XX     -58.3051     XY       0.0774     YY     -55.1836
        XZ       4.7906     YZ       0.4346     ZZ     -60.5168
    Octopole Moments (Debye-Ang^2)
       XXX    -135.0493    XXY       0.1968    XYY     -42.8512
       YYY      -7.2544    XXZ      44.1948    XYZ      -2.7594
       YYZ      41.5975    XZZ     -51.8037    YZZ      -3.5725
       ZZZ     138.2729
    Hexadecapole Moments (Debye-Ang^3)
      XXXX    -811.4226   XXXY    -101.4818   XXYY    -166.6998
      XYYY    -111.7939   YYYY    -207.5896   XXXZ     186.5313
      XXYZ      12.6696   XYYZ      62.9159   YYYZ      33.7543
      XXZZ    -314.3397   XYZZ     -42.2484   YYZZ    -201.9780
      XZZZ     198.3229   YZZZ      37.5505   ZZZZ    -981.1540
 -----------------------------------------------------------------
 Calculating analytic gradient of the SCF energy
 Gradient of SCF Energy
            1           2           3           4           5           6
    1  -0.0001326   0.0015127   0.0000834  -0.0015797  -0.0000077   0.0001193
    2   0.0002804   0.0013235  -0.0000239  -0.0011726  -0.0000645   0.0000271
    3  -0.0000162  -0.0010979  -0.0000180   0.0010558   0.0000285  -0.0000824
            7           8           9          10          11
    1  -0.0000015   0.0001174   0.0000391  -0.0000654  -0.0000849
    2  -0.0001026  -0.0000049  -0.0001276  -0.0001374   0.0000025
    3   0.0000351  -0.0000651   0.0000269   0.0000854   0.0000478
 Max gradient component =       1.580E-03
 RMS gradient           =       5.627E-04
 Gradient time:  CPU 15.07 s  wall 1.39 s
 Geometry Optimization Parameters
   NAtoms,    NIC,     NZ,  NCons,   NDum,   NFix, NCnnct, MaxDiis
       11      75       0       1       0       0       0       0

 Cartesian Hessian Update
 Hessian Updated using BFGS Update


** CONSTRAINED OPTIMIZATION IN DELOCALIZED INTERNAL COORDINATES **
   Searching for a Minimum

   Optimization Cycle:  42

                       Coordinates (Angstroms)
     ATOM                X               Y               Z
      1  Br        1.3502227022    0.1269176680   -2.6435818786
      2  Br        1.8435659632    0.7022652702    0.1314316371
      3  C        -0.6645933539   -1.1511120381    0.2865530138
      4  C        -0.1743266266   -0.6980729368    1.4757400106
      5  C        -1.7401424945   -0.5038718136   -0.5053319973
      6  H        -0.2081701060   -2.0394216689   -0.1475271742
      7  H        -0.5969387688    0.1735792583    1.9659591523
      8  H         0.5827591280   -1.2534055230    2.0173566049
      9  H        -2.4906782612   -1.2431690041   -0.8101631570
     10  H        -2.2298101555    0.3092135862    0.0359839121
     11  H        -1.3070970269   -0.1019227980   -1.4356111236
   Point Group: c1    Number of degrees of freedom:    27


   Energy is  -5265.635166280

              Constraints and their Current Values
                                        Value     Constraint
   Distance(Angs):        2   4             2.800000     2.800000
 Hessian Updated using BFGS Update

 26 Hessian modes will be used to form the next step
  Hessian Eigenvalues:
     0.000316    0.003737    0.007965    0.012705    0.017855    0.034480
     0.043514    0.050782    0.064100    0.078381    0.081455    0.088852
     0.144549    0.157350    0.158949    0.160303    0.163149    0.170679
     0.335098    0.337516    0.344654    0.346594    0.355756    0.358734
     0.371397    0.505596

 Minimum Search - Taking Simple RFO Step
 Searching for Lamda that Minimizes Along All modes
 Value Taken    Lamda =   0.00000000
 Step Taken.  Stepsize is  0.024977

                             Maximum     Tolerance    Cnvgd?
         Gradient           0.000026      0.000300     YES
         Displacement       0.018132      0.001200      NO
         Energy change     -0.000001      0.000001     YES


                       Distance Matrix (Angstroms)
             Br(  1)   Br(  2)   C (  3)   C (  4)   C (  5)   H (  6)
   Br(  2)  2.876650
   C (  3)  3.778695  3.122488
   C (  4)  4.469192  2.800000  1.363734
   C (  5)  3.810560  3.834475  1.484186  2.532615
   H (  6)  3.654026  3.435737  1.088964  2.106029  2.198381
   H (  7)  5.004147  3.098558  2.140044  1.085676  2.805911  3.084694
   H (  8)  4.921244  2.995162  2.135892  1.083938  3.510218  2.435182
   H (  9)  4.471139  4.843242  2.132099  3.299692  1.096716  2.506581
   H ( 10)  4.475482  4.093408  2.155282  2.704170  1.092660  3.104318
   H ( 11)  2.927953  3.609573  2.116473  3.180335  1.102048  2.573073
             H (  7)   H (  8)   H (  9)   H ( 10)
   H (  8)  1.852192
   H (  9)  3.646955  4.176241
   H ( 10)  2.531693  3.778646  1.787151
   H ( 11)  3.485815  4.101275  1.759117  1.784944
 
 Final energy is   -5265.63516628049     


 ******************************
 **  OPTIMIZATION CONVERGED  **
 ******************************

                       Coordinates (Angstroms)
     ATOM                X               Y               Z
      1  Br        1.3502227022    0.1269176680   -2.6435818786
      2  Br        1.8435659632    0.7022652702    0.1314316371
      3  C        -0.6645933539   -1.1511120381    0.2865530138
      4  C        -0.1743266266   -0.6980729368    1.4757400106
      5  C        -1.7401424945   -0.5038718136   -0.5053319973
      6  H        -0.2081701060   -2.0394216689   -0.1475271742
      7  H        -0.5969387688    0.1735792583    1.9659591523
      8  H         0.5827591280   -1.2534055230    2.0173566049
      9  H        -2.4906782612   -1.2431690041   -0.8101631570
     10  H        -2.2298101555    0.3092135862    0.0359839121
     11  H        -1.3070970269   -0.1019227980   -1.4356111236

Z-matrix Print:
$molecule
0 3
Br
C  1 2.800000
H  2 1.083938 1 89.585345
H  2 1.085676 1 95.496644 3 117.324126 0
C  2 1.363734 1 90.376320 3 -121.104290 0
H  5 1.088964 2 117.898683 1 84.249695 0
C  5 1.484186 2 125.514496 1 -93.111359 0
H  7 1.092660 5 112.640099 2 -9.136192 0
H  7 1.096716 5 110.503125 2 -131.870781 0
H  7 1.102048 5 108.946518 2 111.731568 0
Br 1 2.876650 2 103.858479 3 121.071489 0
$end

PES scan, value:    2.8000 energy: -5265.6351662805
------- Summary of potential scan: ------ 
    2.8000     -5265.6351662805
----------------------------------------- 
Archival summary:
1\1\hpc0242\JobtypUnspecified\ProcedureUnspecified\6-31G**\r236(3)\knomura\ThuMar1401:29:002019ThuMar1401:29:002019\0\\#,JobtypUnspecified,ProcedureUnspecified,6-31G**,\\0,3\Br\C,1,2.8\H,2,1.08394,1,89.5853\H,2,1.08568,1,95.4966,3,117.324,0\C,2,1.36373,1,90.3763,3,-121.104,0\H,5,1.08896,2,117.899,1,84.2497,0\C,5,1.48419,2,125.514,1,-93.1114,0\H,7,1.09266,5,112.64,2,-9.13619,0\H,7,1.09672,5,110.503,2,-131.871,0\H,7,1.10205,5,108.947,2,111.732,0\Br,1,2.87665,2,103.858,3,121.071,0\\\@

 Total job time:  272.47s(wall), 3157.43s(cpu) 
 Thu Mar 14 01:29:00 2019

        *************************************************************
        *                                                           *
        *  Thank you very much for using Q-Chem.  Have a nice day.  *
        *                                                           *
        *************************************************************


