
Running Job 1 of 1 halogens/Bromine/03/Br_2_4.xyz.data/inputs/bond_singlet_2.2.in
qchem halogens/Bromine/03/Br_2_4.xyz.data/inputs/bond_singlet_2.2.in_6912.0 /staging/scratch/2868759/qchem6912/ 1
/usr/usc/qchem/5.1.1/exe/qcprog.exe_s halogens/Bromine/03/Br_2_4.xyz.data/inputs/bond_singlet_2.2.in_6912.0 /staging/scratch/2868759/qchem6912/
Check license passed

                  Welcome to Q-Chem
     A Quantum Leap Into The Future Of Chemistry


 Q-Chem 5.1, Q-Chem, Inc., Pleasanton, CA (2018)

 Yihan Shao,  Zhengting Gan,  E. Epifanovsky,  A. T. B. Gilbert,  M. Wormit,  
 J. Kussmann,  A. W. Lange,  A. Behn,  Jia Deng,  Xintian Feng,  D. Ghosh,  
 M. Goldey,  P. R. Horn,  L. D. Jacobson,  I. Kaliman,  T. Kus,  A. Landau,  
 Jie Liu,  E. I. Proynov,  R. M. Richard,  R. P. Steele,  E. J. Sundstrom,  
 H. L. Woodcock III,  P. M. Zimmerman,  D. Zuev,  B. Albrecht,  E. Alguire,  
 S. A. Baeppler,  D. Barton,  Z. Benda,  Y. A. Bernard,  E. J. Berquist,  
 K. B. Bravaya,  H. Burton,  D. Casanova,  Chun-Min Chang,  Yunqing Chen,  
 A. Chien,  K. D. Closser,  M. P. Coons,  S. Coriani,  S. Dasgupta,  
 A. L. Dempwolff,  M. Diedenhofen,  Hainam Do,  R. G. Edgar,  Po-Tung Fang,  
 S. Faraji,  S. Fatehi,  Qingguo Feng,  K. D. Fenk,  J. Fosso-Tande,  
 Qinghui Ge,  A. Ghysels,  G. Gidofalvi,  J. Gomes,  J. Gonthier,  A. Gunina,  
 D. Hait,  M. W. D. Hanson-Heine,  P. H. P. Harbach,  A. W. Hauser,  
 J. E. Herr,  E. G. Hohenstein,  Z. C. Holden,  Kerwin Hui,  B. C. Huynh,  
 T.-C. Jagau,  Hyunjun Ji,  B. Kaduk,  K. Khistyaev,  Jaehoon Kim,  
 P. Klunzinger,  K. Koh,  D. Kosenkov,  L. Koulias,  T. Kowalczyk,  
 C. M. Krauter,  A. Kunitsa,  Ka Un Lao,  A. Laurent,  K. V. Lawler,  
 Joonho Lee,  D. Lefrancois,  S. Lehtola,  D. S. Levine,  Yi-Pei Li,  
 You-Sheng Lin,  Fenglai Liu,  E. Livshits,  A. Luenser,  P. Manohar,  
 E. Mansoor,  S. F. Manzer,  Shan-Ping Mao,  Yuezhi Mao,  N. Mardirossian,  
 A. V. Marenich,  T. Markovich,  L. A. Martinez-Martinez,  S. A. Maurer,  
 N. J. Mayhall,  S. C. McKenzie,  J.-M. Mewes,  A. F. Morrison,  
 J. W. Mullinax,  K. Nanda,  T. S. Nguyen-Beck,  R. Olivares-Amaya,  
 J. A. Parkhill,  T. M. Perrine,  F. Plasser,  P. Pokhilko,  S. Prager,  
 A. Prociuk,  E. Ramos,  D. R. Rehn,  F. Rob,  M. Schneider,  N. Sergueev,  
 S. M. Sharada,  S. Sharma,  D. W. Small,  T. Stauch,  T. Stein,  
 Yu-Chuan Su,  A. J. W. Thom,  A. Tkatchenko,  T. Tsuchimochi,  N. M. Tubman,  
 L. Vogt,  M. L. Vidal,  O. Vydrov,  M. A. Watson,  J. Wenzel,  
 M. de Wergifosse,  T. A. Wesolowski,  A. White,  J. Witte,  A. Yamada,  
 Jun Yang,  K. Yao,  S. Yeganeh,  S. R. Yost,  Zhi-Qiang You,  A. Zech,  
 Igor Ying Zhang,  Xing Zhang,  Yan Zhao,  Ying Zhu,  B. R. Brooks,  
 G. K. L. Chan,  C. J. Cramer,  M. S. Gordon,  W. J. Hehre,  A. Klamt,  
 M. W. Schmidt,  C. D. Sherrill,  D. G. Truhlar,  A. Aspuru-Guzik,  R. Baer,  
 A. T. Bell,  N. A. Besley,  Jeng-Da Chai,  A. E. DePrince, III,  
 R. A. DiStasio Jr.,  A. Dreuw,  B. D. Dunietz,  T. R. Furlani,  
 Chao-Ping Hsu,  Yousung Jung,  Jing Kong,  D. S. Lambrecht,  WanZhen Liang,  
 C. Ochsenfeld,  V. A. Rassolov,  L. V. Slipchenko,  J. E. Subotnik,  
 T. Van Voorhis,  J. M. Herbert,  A. I. Krylov,  P. M. W. Gill,  M. Head-Gordon

 Contributors to earlier versions of Q-Chem not listed above: 
 R. D. Adamson,  B. Austin,  J. Baker,  G. J. O. Beran,  K. Brandhorst,  
 S. T. Brown,  E. F. C. Byrd,  A. K. Chakraborty,  C.-L. Cheng,  
 Siu Hung Chien,  D. M. Chipman,  D. L. Crittenden,  H. Dachsel,  
 R. J. Doerksen,  A. D. Dutoi,  L. Fusti-Molnar,  W. A. Goddard III,  
 A. Golubeva-Zadorozhnaya,  S. R. Gwaltney,  G. Hawkins,  A. Heyden,  
 S. Hirata,  G. Kedziora,  F. J. Keil,  C. Kelley,  Jihan Kim,  R. A. King,  
 R. Z. Khaliullin,  P. P. Korambath,  W. Kurlancheek,  A. M. Lee,  M. S. Lee,  
 S. V. Levchenko,  Ching Yeh Lin,  D. Liotard,  R. C. Lochan,  I. Lotan,  
 P. E. Maslen,  N. Nair,  D. P. O'Neill,  D. Neuhauser,  E. Neuscamman,  
 C. M. Oana,  R. Olson,  B. Peters,  R. Peverati,  P. A. Pieniazek,  
 Y. M. Rhee,  J. Ritchie,  M. A. Rohrdanz,  E. Rosta,  N. J. Russ,  
 H. F. Schaefer III,  N. E. Schultz,  N. Shenvi,  A. C. Simmonett,  A. Sodt,  
 D. Stuck,  K. S. Thanthiriwatte,  V. Vanovschi,  Tao Wang,  A. Warshel,  
 C. F. Williams,  Q. Wu,  X. Xu,  W. Zhang

 Please cite Q-Chem as follows:
 Y. Shao et al., Mol. Phys. 113, 184-215 (2015)
 DOI: 10.1080/00268976.2014.952696

 Q-Chem 5.1.1 for Intel X86 EM64T Linux

 Parts of Q-Chem use Armadillo 8.300.2 (Tropical Shenanigans).
 http://arma.sourceforge.net/

 Q-Chem begins on Wed Mar 13 22:43:17 2019  

Host: 
0

     Scratch files written to /staging/scratch/2868759/qchem6912//
 Aug318 |scratch|qcdevops|jenkins|workspace|build_RNUM 6013   
Processing $rem in /usr/usc/qchem/5.1.1/config/preferences.
 MEM_TOTAL  2000 
Input Ideriv = 2
Curr. Ideriv = -1
Max.  Ideriv = 2

Checking the input file for inconsistencies... 	...done.

--------------------------------------------------------------
User input:
--------------------------------------------------------------

$comment
potential surface scanner
$end

$rem
JOBTYPE  PES_SCAN
UNRESTRICTED TRUE
SYM_IGNORE  TRUE
GEOM_OPT_MAX_CYCLES 400
SCF_MAX_CYCLES 400
METHOD   B3LYP
BASIS   6-31G**
PDB_PRINT 2
SCF_CONVERGENCE 6
THRESH 14
SCF_PRINT 1
$end
$molecule
0 1
Br -0.679787 1.791406 0.179779
Br 2.480051 -0.115909 -0.281155
C -0.539392 -0.127826 -0.326803
C 0.610422 -0.793126 0.394024
C -1.860187 -0.830524 -0.012649
H -0.356485 -0.104766 -1.401000
H 0.629279 -0.605602 1.465100
H 0.651457 -1.859754 0.174088
H -2.068248 -0.827475 1.060715
H -2.687579 -0.334872 -0.524538
H -1.814731 -1.870550 -0.356763
$end
$scan
stre 2 4 2.200000 2.201000 0.100000
$end
--------------------------------------------------------------
 ----------------------------------------------------------------
             Standard Nuclear Orientation (Angstroms)
    I     Atom           X                Y                Z
 ----------------------------------------------------------------
    1      Br     -0.6797870000     1.7914060000     0.1797790000
    2      Br      2.4800510000    -0.1159090000    -0.2811550000
    3      C      -0.5393920000    -0.1278260000    -0.3268030000
    4      C       0.6104220000    -0.7931260000     0.3940240000
    5      C      -1.8601870000    -0.8305240000    -0.0126490000
    6      H      -0.3564850000    -0.1047660000    -1.4010000000
    7      H       0.6292790000    -0.6056020000     1.4651000000
    8      H       0.6514570000    -1.8597540000     0.1740880000
    9      H      -2.0682480000    -0.8274750000     1.0607150000
   10      H      -2.6875790000    -0.3348720000    -0.5245380000
   11      H      -1.8147310000    -1.8705500000    -0.3567630000
 ----------------------------------------------------------------
 Nuclear Repulsion Energy =   558.1549019772 hartrees
 There are       47 alpha and       47 beta electrons
 Requested basis set is 6-31G(d,p)
 There are 46 shells and 145 basis functions

 Total QAlloc Memory Limit   2000 MB
 Mega-Array Size       188 MB
 MEM_STATIC part       192 MB
A total of 1 constraints
  
            1
    1   1.0100000
    2   2.0100000
    3   4.0100000
    4   2.2000000
    5   2.2010000
    6   0.1000000
    7   0.0000000
    8   0.0000000
    9   0.0000000
   10   0.0000000

                       Distance Matrix (Angstroms)
             Br(  1)   Br(  2)   C (  3)   C (  4)   C (  5)   H (  6)
   Br(  2)  3.719528
   C (  3)  1.989921  3.019812
   C (  4)  2.896609  2.100001  1.511386
   C (  5)  2.881821  4.406862  1.528717  2.504135
   H (  6)  2.489750  3.049609  1.089902  2.151943  2.171489
   H (  7)  3.018501  2.591247  2.192026  1.087531  2.903752  3.071986
   H (  8)  3.886285  2.567489  2.160691  1.089840  2.720761  2.564534
   H (  9)  3.092315  4.795202  2.179935  2.760603  1.093348  3.084231
   H ( 10)  3.008047  5.177990  2.167181  3.454065  1.091915  2.501027
   H ( 11)  3.871162  4.640004  2.159739  2.757878  1.096419  2.516924
             H (  7)   H (  8)   H (  9)   H ( 10)
   H (  8)  1.800028
   H (  9)  2.736678  3.041135
   H ( 10)  3.877306  3.736644  1.771794
   H ( 11)  3.300373  2.522697  1.778066  1.774350
 
 A cutoff of  1.0D-14 yielded    983 shell pairs
 There are      9761 function pairs
 
 -------------------------------------------------------
 OpenMP Integral Computing Module                       
 Release: version 1.0, May 2013, Q-Chem Inc. Pittsburgh 
 -------------------------------------------------------
 Integral Job Info:
 Integral job number is                      11
 Integral operator is                         1
 short-range coefficients                     0
 long-range coefficients              100000000
 Omega coefficients                           0
 if combine SR and LR in K                    0
 Integral screening is                        0
 Integral computing path is                   2
 max size of driver memory is            800000
 size of driver memory is                593474
 size of scratch memory is             15267112
 max col of scratch BK array               1296
 max len of scratch array in speh3          155
 max len of scratch index in speh4           18
 max int batch size is                      520
 min int batch size is                       52
 fixed nKL is                                52
 max L of basis functions is                  2
 order of int derivative is                   0
 number of shells is                         46
 number of basis is                         145
 number of cartesian basis is               145
 number of contracted shell pairs           983
 number of primitive shell pairs           4266
 maxK2 (contraction) of shell pair           36
 max number of K2 of shell pair               1
 max number of CS2 of shell pair             71
 max number of PS2 of shell pair            426
 mem total for path MDJ                  534684
 -------------------------------------------------------
 Smallest overlap matrix eigenvalue = 7.22E-04

 Scale SEOQF with 1.000000e-01/1.000000e-01/1.000000e+00

 Standard Electronic Orientation quadrupole field applied
 Nucleus-field energy     =     0.0000000070 hartrees
 Guess from superposition of atomic densities
 Warning:  Energy on first SCF cycle will be non-variational
 SAD guess density has 93.945746 electrons

 -----------------------------------------------------------------------
  General SCF calculation program by
  Eric Jon Sundstrom, Paul Horn, Yuezhi Mao, Dmitri Zuev, Alec White,
  David Stuck, Shaama M.S., Shane Yost, Joonho Lee, David Small,
  Daniel Levine, Susi Lehtola, Hugh Burton, Evgeny Epifanovsky
 -----------------------------------------------------------------------
 Exchange:     0.2000 Hartree-Fock + 0.0800 Slater + 0.7200 B88
 Correlation:  0.1900 VWN1RPA + 0.8100 LYP
 Using SG-1 standard quadrature grid
 using 12 threads for integral computing
 -------------------------------------------------------
 OpenMP Integral computing Module                
 Release: version 1.0, May 2013, Q-Chem Inc. Pittsburgh 
 -------------------------------------------------------
 -------------------------------------------------------
 OpenMP BLAS3 based DFT computing Module                
 Release: version 1.0, May 2013, Q-Chem Inc. Pittsburgh 
 -------------------------------------------------------
 A unrestricted SCF calculation will be
 performed using DIIS
 SCF converges when DIIS error is below 1.0e-06
 Alpha HF Exchange    Energy = -19.63245351046429
 Beta HF Exchange     Energy = -19.63245351046429
 DFT Correlation      Energy =  -5.21018640044691
 DFT Exchange         Energy = -155.91063947574298
 One-Electron (alpha) Energy = -4214.53942678250132
 One-Electron (beta)  Energy = -4214.53942678250132
 Total Coulomb        Energy = 2798.28481645893135
 ---------------------------------------
  Cycle       Energy         DIIS error
 ---------------------------------------
    1   -5273.0248680190      1.84e-01  
 Alpha HF Exchange    Energy = -19.73305314073988
 Beta HF Exchange     Energy = -19.73305314073988
 DFT Correlation      Energy =  -5.25927538913922
 DFT Exchange         Energy = -157.05511419228716
 One-Electron (alpha) Energy = -4224.67466510304803
 One-Electron (beta)  Energy = -4224.67466510304894
 Total Coulomb        Energy = 2827.38695718536292
    2   -5265.5879668994      1.03e-02  
 Alpha HF Exchange    Energy = -19.59929959110839
 Beta HF Exchange     Energy = -19.59929959110839
 DFT Correlation      Energy =  -5.22564599260377
 DFT Exchange         Energy = -155.99608655860663
 One-Electron (alpha) Energy = -4209.74813020575493
 One-Electron (beta)  Energy = -4209.74813020575402
 Total Coulomb        Energy = 2796.14563033602553
    3   -5265.6160598247      3.73e-03  
 Alpha HF Exchange    Energy = -19.70532757695728
 Beta HF Exchange     Energy = -19.70532757695728
 DFT Correlation      Energy =  -5.24912712633324
 DFT Exchange         Energy = -156.81867734078958
 One-Electron (alpha) Energy = -4221.62126188655839
 One-Electron (beta)  Energy = -4221.62126188655839
 Total Coulomb        Energy = 2820.90870587425252
    4   -5265.6573755357      2.80e-03  
 Alpha HF Exchange    Energy = -19.66838544033969
 Beta HF Exchange     Energy = -19.66838544033970
 DFT Correlation      Energy =  -5.24334462029979
 DFT Exchange         Energy = -156.54066900839942
 One-Electron (alpha) Energy = -4217.51667112798714
 One-Electron (beta)  Energy = -4217.51667112798805
 Total Coulomb        Energy = 2812.29418656495318
    5   -5265.7050382162      6.58e-04  
 Alpha HF Exchange    Energy = -19.66471057740874
 Beta HF Exchange     Energy = -19.66471057740874
 DFT Correlation      Energy =  -5.24132603961161
 DFT Exchange         Energy = -156.50712974202702
 One-Electron (alpha) Energy = -4217.20723922456273
 One-Electron (beta)  Energy = -4217.20723922456455
 Total Coulomb        Energy = 2811.62757928483916
    6   -5265.7098741165      7.70e-05  
 Alpha HF Exchange    Energy = -19.66401203608375
 Beta HF Exchange     Energy = -19.66401203608376
 DFT Correlation      Energy =  -5.24121295613985
 DFT Exchange         Energy = -156.50196938909846
 One-Electron (alpha) Energy = -4217.08404750904538
 One-Electron (beta)  Energy = -4217.08404750904629
 Total Coulomb        Energy = 2811.37444964232691
    7   -5265.7099498090      2.56e-05  
 Alpha HF Exchange    Energy = -19.66406939092434
 Beta HF Exchange     Energy = -19.66406939092433
 DFT Correlation      Energy =  -5.24118136736345
 DFT Exchange         Energy = -156.50231717057648
 One-Electron (alpha) Energy = -4217.10008499514879
 One-Electron (beta)  Energy = -4217.10008499514788
 Total Coulomb        Energy = 2811.40694907089892
    8   -5265.7099562550      6.32e-06  
 Alpha HF Exchange    Energy = -19.66410989770766
 Beta HF Exchange     Energy = -19.66410989770766
 DFT Correlation      Energy =  -5.24120013028919
 DFT Exchange         Energy = -156.50264072828890
 One-Electron (alpha) Energy = -4217.10451643231318
 One-Electron (beta)  Energy = -4217.10451643231227
 Total Coulomb        Energy = 2811.41623484170987
    9   -5265.7099566927      1.34e-06  
 Alpha HF Exchange    Energy = -19.66411311856659
 Beta HF Exchange     Energy = -19.66411311856659
 DFT Correlation      Energy =  -5.24120103716652
 DFT Exchange         Energy = -156.50266478966483
 One-Electron (alpha) Energy = -4217.10494444385040
 One-Electron (beta)  Energy = -4217.10494444385040
 Total Coulomb        Energy = 2811.41712225846459
   10   -5265.7099567090      4.64e-07  Convergence criterion met
 ---------------------------------------
 SCF time:   CPU 43.08s  wall 4.00s 
<S^2> =          0.000000000
 Alpha HF Exchange    Energy = -19.66411311856659
 Beta HF Exchange     Energy = -19.66411311856659
 DFT Correlation      Energy =  -5.24120103716652
 DFT Exchange         Energy = -156.50266478966483
 One-Electron (alpha) Energy = -4217.10494444385040
 One-Electron (beta)  Energy = -4217.10494444385040
 Total Coulomb        Energy = 2811.41712225846459
 Nuclear repulsion Energy = 558.15490198420912
 SCF   energy in the final basis set =    -5265.7099567090
 Total energy in the final basis set =    -5265.7099567090
 
 --------------------------------------------------------------
 
                    Orbital Energies (a.u.)
 --------------------------------------------------------------
 
 Alpha MOs
 -- Occupied --
*******-482.853 -62.513 -62.511 -56.334 -56.332 -56.331 -56.331
-56.328 -56.328 -10.273 -10.270 -10.212  -8.700  -8.697  -6.530
 -6.528  -6.518  -6.517  -6.515  -6.514  -2.624  -2.621  -2.620
 -2.620  -2.617  -2.617  -2.610  -2.610  -2.607  -2.607  -0.857
 -0.779  -0.747  -0.695  -0.606  -0.498  -0.467  -0.447  -0.430
 -0.393  -0.361  -0.356  -0.288  -0.285  -0.281  -0.273
 -- Virtual --
 -0.048  -0.015   0.076   0.111   0.120   0.146   0.150   0.158
  0.183   0.202   0.220   0.251   0.327   0.334   0.341   0.345
  0.354   0.403   0.433   0.463   0.480   0.497   0.541   0.553
  0.584   0.609   0.615   0.636   0.640   0.685   0.710   0.757
  0.770   0.774   0.839   0.844   0.860   0.876   0.882   0.893
  0.912   0.939   1.007   1.113   1.318   1.337   1.375   1.532
  1.579   1.661   1.717   1.743   1.793   1.815   1.877   1.924
  2.013   2.029   2.042   2.065   2.079   2.132   2.246   2.248
  2.331   2.416   2.507   2.548   2.570   2.605   2.697   2.714
  2.803   2.847   2.874   3.172   3.226   3.293   3.412   3.435
  3.452   4.198   4.407   4.550   4.724   4.727   4.737   4.745
  4.774   4.789   4.818   4.838   4.952   4.976   6.300   6.309
 90.333  90.404
 
 Beta MOs
 -- Occupied --
*******-482.853 -62.513 -62.511 -56.334 -56.332 -56.331 -56.331
-56.328 -56.328 -10.273 -10.270 -10.212  -8.700  -8.697  -6.530
 -6.528  -6.518  -6.517  -6.515  -6.514  -2.624  -2.621  -2.620
 -2.620  -2.617  -2.617  -2.610  -2.610  -2.607  -2.607  -0.857
 -0.779  -0.747  -0.695  -0.606  -0.498  -0.467  -0.447  -0.430
 -0.393  -0.361  -0.356  -0.288  -0.285  -0.281  -0.273
 -- Virtual --
 -0.048  -0.015   0.076   0.111   0.120   0.146   0.150   0.158
  0.183   0.202   0.220   0.251   0.327   0.334   0.341   0.345
  0.354   0.403   0.433   0.463   0.480   0.497   0.541   0.553
  0.584   0.609   0.615   0.636   0.640   0.685   0.710   0.757
  0.770   0.774   0.839   0.844   0.860   0.876   0.882   0.893
  0.912   0.939   1.007   1.113   1.318   1.337   1.375   1.532
  1.579   1.661   1.717   1.743   1.793   1.815   1.877   1.924
  2.013   2.029   2.042   2.065   2.079   2.132   2.246   2.248
  2.331   2.416   2.507   2.548   2.570   2.605   2.697   2.714
  2.803   2.847   2.874   3.172   3.226   3.293   3.412   3.435
  3.452   4.198   4.407   4.550   4.724   4.727   4.737   4.745
  4.774   4.789   4.818   4.838   4.952   4.976   6.300   6.309
 90.333  90.404
 --------------------------------------------------------------
 
          Ground-State Mulliken Net Atomic Charges

     Atom                 Charge (a.u.)    Spin (a.u.)
  --------------------------------------------------------
      1 Br                   -0.093842       0.000000
      2 Br                   -0.124190       0.000000
      3 C                    -0.135406       0.000000
      4 C                    -0.237215       0.000000
      5 C                    -0.322836       0.000000
      6 H                     0.172581      -0.000000
      7 H                     0.177685      -0.000000
      8 H                     0.164316      -0.000000
      9 H                     0.134344       0.000000
     10 H                     0.144700      -0.000000
     11 H                     0.119862       0.000000
  --------------------------------------------------------
  Sum of atomic charges =    -0.000000
  Sum of spin   charges =     0.000000

 -----------------------------------------------------------------
                    Cartesian Multipole Moments
 -----------------------------------------------------------------
    Charge (ESU x 10^10)
                 0.0000
    Dipole Moment (Debye)
         X      -2.2156      Y      -2.6345      Z       0.1716
       Tot       3.4466
    Quadrupole Moments (Debye-Ang)
        XX     -60.0254     XY       1.9563     YY     -56.6208
        XZ       0.9316     YZ      -0.4688     ZZ     -55.4162
    Octopole Moments (Debye-Ang^2)
       XXX     -69.5316    XXY     -16.5930    XYY     -20.4855
       YYY     -55.0365    XXZ      -1.0481    XYZ      -1.2357
       YYZ       2.9027    XZZ     -21.1391    YZZ     -19.1525
       ZZZ       4.8059
    Hexadecapole Moments (Debye-Ang^3)
      XXXX    -978.2178   XXXY      74.4788   XXYY    -254.0859
      XYYY      53.1490   YYYY    -465.9181   XXXZ      27.1588
      XXYZ      -7.7747   XYYZ      11.5720   YYYZ      -5.4385
      XXZZ    -183.8872   XYZZ      20.2285   YYZZ    -102.5400
      XZZZ      37.6318   YZZZ     -15.4984   ZZZZ    -103.6140
 -----------------------------------------------------------------
 Calculating analytic gradient of the SCF energy
 Gradient of SCF Energy
            1           2           3           4           5           6
    1   0.0000259   0.0212587   0.0000521  -0.0212975  -0.0000320  -0.0000074
    2   0.0000311   0.0076830  -0.0000175  -0.0077579   0.0000522  -0.0000008
    3   0.0000478  -0.0075786   0.0000118   0.0077554   0.0000016  -0.0000046
            7           8           9          10          11
    1  -0.0000414   0.0000384  -0.0000239   0.0000305  -0.0000034
    2  -0.0000594   0.0000150   0.0000032   0.0000359   0.0000153
    3   0.0000101  -0.0001182  -0.0000356  -0.0000416  -0.0000481
 Max gradient component =       2.130E-02
 RMS gradient           =       5.884E-03
 Gradient time:  CPU 16.99 s  wall 1.50 s
 Geometry Optimization Parameters
   NAtoms,    NIC,     NZ,  NCons,   NDum,   NFix, NCnnct, MaxDiis
       11      68       0       1       0       0       0       0


** CONSTRAINED OPTIMIZATION IN DELOCALIZED INTERNAL COORDINATES **
   Searching for a Minimum

   Optimization Cycle:   1

                       Coordinates (Angstroms)
     ATOM                X               Y               Z
      1  Br       -0.6797870000    1.7914060000    0.1797790000
      2  Br        2.4800510000   -0.1159090000   -0.2811550000
      3  C        -0.5393920000   -0.1278260000   -0.3268030000
      4  C         0.6104220000   -0.7931260000    0.3940240000
      5  C        -1.8601870000   -0.8305240000   -0.0126490000
      6  H        -0.3564850000   -0.1047660000   -1.4010000000
      7  H         0.6292790000   -0.6056020000    1.4651000000
      8  H         0.6514570000   -1.8597540000    0.1740880000
      9  H        -2.0682480000   -0.8274750000    1.0607150000
     10  H        -2.6875790000   -0.3348720000   -0.5245380000
     11  H        -1.8147310000   -1.8705500000   -0.3567630000
   Point Group: c1    Number of degrees of freedom:    27


   Energy is  -5265.709956709

              Constraints and their Current Values
                                        Value     Constraint
   Distance(Angs):        2   4             2.100001     2.200000

 Attempting to Generate Delocalized Internal Coordinates

   Using Lagrange Multiplier Algorithm


 28 Hessian modes will be used to form the next step
  Hessian Eigenvalues:
    -0.942538    0.045000    0.045000    0.074592    0.080645    0.081757
     0.082964    0.083172    0.084251    0.111120    0.154608    0.160000
     0.160000    0.160000    0.160000    0.160000    0.178140    0.222729
     0.231531    0.295422    0.312116    0.340812    0.344286    0.345922
     0.348240    0.348311    0.350995    1.060965

 Minimum Search - Taking P-RFO Step
 Searching for Lamda that Maximizes Along the Constraint modes Only
 Value Taken    Lamda =   0.02448691
 Searching for Lamda that Minimizes Along All other modes
 Value Taken    Lamda =  -0.01174641
 Step Taken.  Stepsize is  0.185307

                             Maximum     Tolerance    Cnvgd?
         Gradient            0.188972       0.000300      NO
         Displacement        0.185293       0.001200      NO
         Energy change     *********       0.000001      NO


 New Cartesian Coordinates Obtained by Inverse Iteration

 Displacement from previous Coordinates is:  0.174154
 ----------------------------------------------------------------
             Standard Nuclear Orientation (Angstroms)
    I     Atom           X                Y                Z
 ----------------------------------------------------------------
    1      Br     -0.6840505787     1.7888467008     0.1822574009
    2      Br      2.5608133023    -0.0929778094    -0.3038196510
    3      C      -0.5458861648    -0.1305412053    -0.3239890064
    4      C       0.6011823939    -0.7977221658     0.3994730692
    5      C      -1.8685159622    -0.8311375998    -0.0128594136
    6      H      -0.3604634300    -0.1078079516    -1.3977446327
    7      H       0.6181851396    -0.6097749023     1.4705194374
    8      H       0.6404953567    -1.8646138375     0.1804431262
    9      H      -2.0789682108    -0.8279392767     1.0600363827
   10      H      -2.6940537534    -0.3341563410    -0.5264874856
   11      H      -1.8239380925    -1.8711736113    -0.3570312272
 ----------------------------------------------------------------
 Nuclear Repulsion Energy =   550.5149606709 hartrees
 There are       47 alpha and       47 beta electrons

                       Distance Matrix (Angstroms)
             Br(  1)   Br(  2)   C (  3)   C (  4)   C (  5)   H (  6)
   Br(  2)  3.782417
   C (  3)  1.989830  3.106992
   C (  4)  2.896437  2.198053  1.511388
   C (  5)  2.881900  4.499833  1.528721  2.504106
   H (  6)  2.489661  3.119415  1.089885  2.151914  2.171482
   H (  7)  3.018083  2.681261  2.192028  1.087545  2.903979  3.071915
   H (  8)  3.886155  2.657221  2.160778  1.089852  2.720400  2.564949
   H (  9)  3.092549  4.891610  2.179961  2.760519  1.093346  3.084240
   H ( 10)  3.008251  5.265109  2.167277  3.454110  1.091933  2.501193
   H ( 11)  3.871166  4.731898  2.159701  2.757863  1.096411  2.516804
             H (  7)   H (  8)   H (  9)   H ( 10)
   H (  8)  1.799838
   H (  9)  2.736919  3.040372
   H ( 10)  3.877490  3.736478  1.771782
   H ( 11)  3.300763  2.522371  1.778049  1.774328
 
 Applying Cartesian multipole field
    Component          Value
    ---------          -----
     (2,0,0)        1.00000E-11
     (0,2,0)        2.00000E-11
     (0,0,2)       -3.00000E-10
 Nucleus-field energy     =     0.0000000069 hartrees
 Requested basis set is 6-31G(d,p)
 There are 46 shells and 145 basis functions
 A cutoff of  1.0D-14 yielded    981 shell pairs
 There are      9725 function pairs
 Smallest overlap matrix eigenvalue = 7.22E-04
 Guess from superposition of atomic densities
 Warning:  Energy on first SCF cycle will be non-variational
 SAD guess density has 93.945746 electrons

 -----------------------------------------------------------------------
  General SCF calculation program by
  Eric Jon Sundstrom, Paul Horn, Yuezhi Mao, Dmitri Zuev, Alec White,
  David Stuck, Shaama M.S., Shane Yost, Joonho Lee, David Small,
  Daniel Levine, Susi Lehtola, Hugh Burton, Evgeny Epifanovsky
 -----------------------------------------------------------------------
 Exchange:     0.2000 Hartree-Fock + 0.0800 Slater + 0.7200 B88
 Correlation:  0.1900 VWN1RPA + 0.8100 LYP
 Using SG-1 standard quadrature grid
 using 12 threads for integral computing
 -------------------------------------------------------
 OpenMP Integral computing Module                
 Release: version 1.0, May 2013, Q-Chem Inc. Pittsburgh 
 -------------------------------------------------------
 -------------------------------------------------------
 OpenMP BLAS3 based DFT computing Module                
 Release: version 1.0, May 2013, Q-Chem Inc. Pittsburgh 
 -------------------------------------------------------
 A unrestricted SCF calculation will be
 performed using DIIS
 SCF converges when DIIS error is below 1.0e-06
 Alpha HF Exchange    Energy = -19.62657037527669
 Beta HF Exchange     Energy = -19.62657037527669
 DFT Correlation      Energy =  -5.20807924017086
 DFT Exchange         Energy = -155.89940405086972
 One-Electron (alpha) Energy = -4206.91567494393712
 One-Electron (beta)  Energy = -4206.91567494393712
 Total Coulomb        Energy = 2790.72489783914853
 ---------------------------------------
  Cycle       Energy         DIIS error
 ---------------------------------------
    1   -5272.9521154125      1.83e-01  
 Alpha HF Exchange    Energy = -19.73090778103096
 Beta HF Exchange     Energy = -19.73090778103095
 DFT Correlation      Energy =  -5.25701108231146
 DFT Exchange         Energy = -157.04096789744082
 One-Electron (alpha) Energy = -4217.15016062820359
 One-Electron (beta)  Energy = -4217.15016062820087
 Total Coulomb        Energy = 2819.96674355367395
    2   -5265.5784115668      1.03e-02  
 Alpha HF Exchange    Energy = -19.59589555458098
 Beta HF Exchange     Energy = -19.59589555458097
 DFT Correlation      Energy =  -5.22390637246252
 DFT Exchange         Energy = -155.97666327009921
 One-Electron (alpha) Energy = -4201.83438219772233
 One-Electron (beta)  Energy = -4201.83438219772324
 Total Coulomb        Energy = 2787.95314690871919
    3   -5265.5930175607      3.94e-03  
 Alpha HF Exchange    Energy = -19.70366595344229
 Beta HF Exchange     Energy = -19.70366595344228
 DFT Correlation      Energy =  -5.24601191349122
 DFT Exchange         Energy = -156.80347071054518
 One-Electron (alpha) Energy = -4214.25417140955415
 One-Electron (beta)  Energy = -4214.25417140955142
 Total Coulomb        Energy = 2813.82820821215091
    4   -5265.6219884601      3.22e-03  
 Alpha HF Exchange    Energy = -19.66777282617018
 Beta HF Exchange     Energy = -19.66777282617016
 DFT Correlation      Energy =  -5.24211376192370
 DFT Exchange         Energy = -156.54255087024563
 One-Electron (alpha) Energy = -4209.99713292077831
 One-Electron (beta)  Energy = -4209.99713292077740
 Total Coulomb        Energy = 2804.90583109449290
    5   -5265.6936843538      9.48e-04  
 Alpha HF Exchange    Energy = -19.66216390312682
 Beta HF Exchange     Energy = -19.66216390312687
 DFT Correlation      Energy =  -5.23922763241316
 DFT Exchange         Energy = -156.49172739755005
 One-Electron (alpha) Energy = -4209.58944572900327
 One-Electron (beta)  Energy = -4209.58944572900782
 Total Coulomb        Energy = 2804.01520719954306
    6   -5265.7040064169      7.50e-05  
 Alpha HF Exchange    Energy = -19.66132290108079
 Beta HF Exchange     Energy = -19.66132290108078
 DFT Correlation      Energy =  -5.23905434576080
 DFT Exchange         Energy = -156.48540314595616
 One-Electron (alpha) Energy = -4209.43456830464402
 One-Electron (beta)  Energy = -4209.43456830464311
 Total Coulomb        Energy = 2803.69720379636919
    7   -5265.7040754290      3.67e-05  
 Alpha HF Exchange    Energy = -19.66147814333727
 Beta HF Exchange     Energy = -19.66147814333728
 DFT Correlation      Energy =  -5.23903860040918
 DFT Exchange         Energy = -156.48648992040214
 One-Electron (alpha) Energy = -4209.46747738997692
 One-Electron (beta)  Energy = -4209.46747738997601
 Total Coulomb        Energy = 2803.76438946915687
    8   -5265.7040894405      9.82e-06  
 Alpha HF Exchange    Energy = -19.66154542298273
 Beta HF Exchange     Energy = -19.66154542298270
 DFT Correlation      Energy =  -5.23906878637808
 DFT Exchange         Energy = -156.48702033084717
 One-Electron (alpha) Energy = -4209.47585812053785
 One-Electron (beta)  Energy = -4209.47585812053421
 Total Coulomb        Energy = 2803.78184497971870
    9   -5265.7040905468      1.92e-06  
 Alpha HF Exchange    Energy = -19.66154652338378
 Beta HF Exchange     Energy = -19.66154652338377
 DFT Correlation      Energy =  -5.23906890655509
 DFT Exchange         Energy = -156.48702665530885
 One-Electron (alpha) Energy = -4209.47589466992576
 One-Electron (beta)  Energy = -4209.47589466992304
 Total Coulomb        Energy = 2803.78192668902602
   10   -5265.7040905817      5.79e-07  Convergence criterion met
 ---------------------------------------
 SCF time:   CPU 42.25s  wall 3.00s 
<S^2> =         -0.000000000
 Alpha HF Exchange    Energy = -19.66154652338378
 Beta HF Exchange     Energy = -19.66154652338377
 DFT Correlation      Energy =  -5.23906890655509
 DFT Exchange         Energy = -156.48702665530885
 One-Electron (alpha) Energy = -4209.47589466992576
 One-Electron (beta)  Energy = -4209.47589466992304
 Total Coulomb        Energy = 2803.78192668902602
 Nuclear repulsion Energy = 550.51496067779010
 SCF   energy in the final basis set =    -5265.7040905817
 Total energy in the final basis set =    -5265.7040905817
 
 --------------------------------------------------------------
 
                    Orbital Energies (a.u.)
 --------------------------------------------------------------
 
 Alpha MOs
 -- Occupied --
*******-482.851 -62.514 -62.509 -56.336 -56.332 -56.332 -56.330
-56.326 -56.326 -10.276 -10.275 -10.215  -8.701  -8.695  -6.532
 -6.525  -6.519  -6.518  -6.512  -6.512  -2.625  -2.622  -2.621
 -2.618  -2.615  -2.615  -2.611  -2.611  -2.604  -2.604  -0.857
 -0.770  -0.748  -0.700  -0.608  -0.499  -0.468  -0.447  -0.431
 -0.394  -0.362  -0.348  -0.288  -0.286  -0.280  -0.273
 -- Virtual --
 -0.068  -0.018   0.074   0.111   0.120   0.145   0.149   0.157
  0.181   0.202   0.219   0.249   0.326   0.335   0.341   0.344
  0.355   0.405   0.433   0.464   0.481   0.494   0.537   0.557
  0.586   0.610   0.617   0.632   0.634   0.674   0.712   0.738
  0.768   0.772   0.835   0.841   0.858   0.866   0.875   0.889
  0.907   0.934   0.992   1.110   1.312   1.331   1.363   1.522
  1.571   1.654   1.715   1.742   1.792   1.812   1.872   1.915
  2.010   2.020   2.037   2.059   2.072   2.118   2.241   2.243
  2.329   2.412   2.502   2.543   2.567   2.603   2.694   2.711
  2.799   2.844   2.872   3.170   3.222   3.290   3.410   3.431
  3.450   4.195   4.406   4.546   4.724   4.729   4.735   4.743
  4.767   4.778   4.816   4.831   4.928   4.975   6.295   6.309
 90.300  90.405
 
 Beta MOs
 -- Occupied --
*******-482.851 -62.514 -62.509 -56.336 -56.332 -56.332 -56.330
-56.326 -56.326 -10.276 -10.275 -10.215  -8.701  -8.695  -6.532
 -6.525  -6.519  -6.518  -6.512  -6.512  -2.625  -2.622  -2.621
 -2.618  -2.615  -2.615  -2.611  -2.611  -2.604  -2.604  -0.857
 -0.770  -0.748  -0.700  -0.608  -0.499  -0.468  -0.447  -0.431
 -0.394  -0.362  -0.348  -0.288  -0.286  -0.280  -0.273
 -- Virtual --
 -0.068  -0.018   0.074   0.111   0.120   0.145   0.149   0.157
  0.181   0.202   0.219   0.249   0.326   0.335   0.341   0.344
  0.355   0.405   0.433   0.464   0.481   0.494   0.537   0.557
  0.586   0.610   0.617   0.632   0.634   0.674   0.712   0.738
  0.768   0.772   0.835   0.841   0.858   0.866   0.875   0.889
  0.907   0.934   0.992   1.110   1.312   1.331   1.363   1.522
  1.571   1.654   1.715   1.742   1.792   1.812   1.872   1.915
  2.010   2.020   2.037   2.059   2.072   2.118   2.241   2.243
  2.329   2.412   2.502   2.543   2.567   2.603   2.694   2.711
  2.799   2.844   2.872   3.170   3.222   3.290   3.410   3.431
  3.450   4.195   4.406   4.546   4.724   4.729   4.735   4.743
  4.767   4.778   4.816   4.831   4.928   4.975   6.295   6.309
 90.300  90.405
 --------------------------------------------------------------
 
          Ground-State Mulliken Net Atomic Charges

     Atom                 Charge (a.u.)    Spin (a.u.)
  --------------------------------------------------------
      1 Br                   -0.090643      -0.000000
      2 Br                   -0.148129       0.000000
      3 C                    -0.136940      -0.000000
      4 C                    -0.224247      -0.000000
      5 C                    -0.324029       0.000000
      6 H                     0.175373      -0.000000
      7 H                     0.179206       0.000000
      8 H                     0.165692       0.000000
      9 H                     0.135394      -0.000000
     10 H                     0.147204      -0.000000
     11 H                     0.121119       0.000000
  --------------------------------------------------------
  Sum of atomic charges =    -0.000000
  Sum of spin   charges =     0.000000

 -----------------------------------------------------------------
                    Cartesian Multipole Moments
 -----------------------------------------------------------------
    Charge (ESU x 10^10)
                -0.0000
    Dipole Moment (Debye)
         X      -2.5027      Y      -2.6760      Z       0.2222
       Tot       3.6707
    Quadrupole Moments (Debye-Ang)
        XX     -60.6334     XY       2.0166     YY     -56.5362
        XZ       1.0111     YZ      -0.5187     ZZ     -55.4426
    Octopole Moments (Debye-Ang^2)
       XXX     -75.8535    XXY     -16.7960    XYY     -22.0829
       YYY     -55.9268    XXZ      -0.6769    XYZ      -1.2836
       YYZ       3.3190    XZZ     -22.7213    YZZ     -19.5045
       ZZZ       5.8864
    Hexadecapole Moments (Debye-Ang^3)
      XXXX   -1029.6948   XXXY      73.0327   XXYY    -262.2648
      XYYY      50.5634   YYYY    -463.9413   XXXZ      31.6978
      XXYZ      -7.9183   XYYZ      13.1931   YYYZ      -5.3705
      XXZZ    -192.5635   XYZZ      19.3932   YYZZ    -102.5650
      XZZZ      42.4048   YZZZ     -15.4397   ZZZZ    -105.2760
 -----------------------------------------------------------------
 Calculating analytic gradient of the SCF energy
 Gradient of SCF Energy
            1           2           3           4           5           6
    1   0.0000132   0.0346536  -0.0037299  -0.0248421  -0.0002057   0.0001578
    2   0.0002222   0.0131001  -0.0019426  -0.0104678   0.0011253   0.0001083
    3   0.0000775  -0.0128752   0.0009847   0.0107746  -0.0006733   0.0000154
            7           8           9          10          11
    1  -0.0029458  -0.0030139   0.0000406  -0.0002286   0.0001008
    2  -0.0014530  -0.0005351  -0.0000006  -0.0001811   0.0000242
    3   0.0004580   0.0012397  -0.0000183   0.0000644  -0.0000476
 Max gradient component =       3.465E-02
 RMS gradient           =       8.570E-03
 Gradient time:  CPU 16.91 s  wall 1.52 s
 Geometry Optimization Parameters
   NAtoms,    NIC,     NZ,  NCons,   NDum,   NFix, NCnnct, MaxDiis
       11      68       0       1       0       0       0       0

 Cartesian Hessian Update
 Hessian Updated using BFGS Update


** CONSTRAINED OPTIMIZATION IN DELOCALIZED INTERNAL COORDINATES **
   Searching for a Minimum

   Optimization Cycle:   2

                       Coordinates (Angstroms)
     ATOM                X               Y               Z
      1  Br       -0.6840505787    1.7888467008    0.1822574009
      2  Br        2.5608133023   -0.0929778094   -0.3038196510
      3  C        -0.5458861648   -0.1305412053   -0.3239890064
      4  C         0.6011823939   -0.7977221658    0.3994730692
      5  C        -1.8685159622   -0.8311375998   -0.0128594136
      6  H        -0.3604634300   -0.1078079516   -1.3977446327
      7  H         0.6181851396   -0.6097749023    1.4705194374
      8  H         0.6404953567   -1.8646138375    0.1804431262
      9  H        -2.0789682108   -0.8279392767    1.0600363827
     10  H        -2.6940537534   -0.3341563410   -0.5264874856
     11  H        -1.8239380925   -1.8711736113   -0.3570312272
   Point Group: c1    Number of degrees of freedom:    27


   Energy is  -5265.704090582

              Constraints and their Current Values
                                        Value     Constraint
   Distance(Angs):        2   4             2.198053     2.200000
 Hessian Updated using BFGS Update

   Using Lagrange Multiplier Algorithm


 25 Hessian modes will be used to form the next step
  Hessian Eigenvalues:
    -0.960051    0.044998    0.045000    0.074598    0.081668    0.082133
     0.082965    0.084251    0.087578    0.111159    0.154615    0.160000
     0.163864    0.178141    0.222927    0.234238    0.295467    0.314493
     0.340813    0.344287    0.345926    0.348240    0.348324    0.351009
     1.042955

 Minimum Search - Taking P-RFO Step
 Searching for Lamda that Maximizes Along the Constraint modes Only
 Value Taken    Lamda =   0.00000073
 Searching for Lamda that Minimizes Along All other modes
 Value Taken    Lamda =  -0.00035079
 Step Taken.  Stepsize is  0.052267

                             Maximum     Tolerance    Cnvgd?
         Gradient            0.004837       0.000300      NO
         Displacement        0.041375       0.001200      NO
         Energy change      0.005866       0.000001      NO


 New Cartesian Coordinates Obtained by Inverse Iteration

 Displacement from previous Coordinates is:  0.035012
 ----------------------------------------------------------------
             Standard Nuclear Orientation (Angstroms)
    I     Atom           X                Y                Z
 ----------------------------------------------------------------
    1      Br     -0.6847146694     1.7908734800     0.1815062675
    2      Br      2.5558788686    -0.1001929625    -0.2993808957
    3      C      -0.5467611859    -0.1274775351    -0.3260201378
    4      C       0.5907067156    -0.7987385807     0.4007104401
    5      C      -1.8675999561    -0.8317875400    -0.0126988112
    6      H      -0.3609574015    -0.1048596591    -1.3996691874
    7      H       0.6242946839    -0.6068259546     1.4704074958
    8      H       0.6467339641    -1.8638996700     0.1780891518
    9      H      -2.0770666149    -0.8290753439     1.0604506262
   10      H      -2.6935528512    -0.3351777759    -0.5257714465
   11      H      -1.8221615532    -1.8718364582    -0.3568255029
 ----------------------------------------------------------------
 Nuclear Repulsion Energy =   550.6954380871 hartrees
 There are       47 alpha and       47 beta electrons

                       Distance Matrix (Angstroms)
             Br(  1)   Br(  2)   C (  3)   C (  4)   C (  5)   H (  6)
   Br(  2)  3.782702
   C (  3)  1.989142  3.102874
   C (  4)  2.894968  2.199999  1.507502
   C (  5)  2.883623  4.492725  1.529326  2.493045
   H (  6)  2.489727  3.117465  1.089843  2.151395  2.173035
   H (  7)  3.020552  2.668304  2.197339  1.087295  2.908565  3.075717
   H (  8)  3.889747  2.642626  2.166499  1.089618  2.724616  2.568849
   H (  9)  3.094401  4.883093  2.180912  2.748307  1.093404  3.085727
   H ( 10)  3.009280  5.259563  2.166046  3.443780  1.091816  2.501549
   H ( 11)  3.872858  4.723268  2.161107  2.747241  1.096444  2.518898
             H (  7)   H (  8)   H (  9)   H ( 10)
   H (  8)  1.803004
   H (  9)  2.741316  3.044423
   H ( 10)  3.881576  3.740311  1.772030
   H ( 11)  3.305175  2.526191  1.777920  1.774594
 
 Applying Cartesian multipole field
    Component          Value
    ---------          -----
     (2,0,0)        1.00000E-11
     (0,2,0)        2.00000E-11
     (0,0,2)       -3.00000E-10
 Nucleus-field energy     =     0.0000000070 hartrees
 Requested basis set is 6-31G(d,p)
 There are 46 shells and 145 basis functions
 A cutoff of  1.0D-14 yielded    980 shell pairs
 There are      9719 function pairs
 Smallest overlap matrix eigenvalue = 7.22E-04
 Guess from superposition of atomic densities
 Warning:  Energy on first SCF cycle will be non-variational
 SAD guess density has 93.945746 electrons

 -----------------------------------------------------------------------
  General SCF calculation program by
  Eric Jon Sundstrom, Paul Horn, Yuezhi Mao, Dmitri Zuev, Alec White,
  David Stuck, Shaama M.S., Shane Yost, Joonho Lee, David Small,
  Daniel Levine, Susi Lehtola, Hugh Burton, Evgeny Epifanovsky
 -----------------------------------------------------------------------
 Exchange:     0.2000 Hartree-Fock + 0.0800 Slater + 0.7200 B88
 Correlation:  0.1900 VWN1RPA + 0.8100 LYP
 Using SG-1 standard quadrature grid
 using 12 threads for integral computing
 -------------------------------------------------------
 OpenMP Integral computing Module                
 Release: version 1.0, May 2013, Q-Chem Inc. Pittsburgh 
 -------------------------------------------------------
 -------------------------------------------------------
 OpenMP BLAS3 based DFT computing Module                
 Release: version 1.0, May 2013, Q-Chem Inc. Pittsburgh 
 -------------------------------------------------------
 A unrestricted SCF calculation will be
 performed using DIIS
 SCF converges when DIIS error is below 1.0e-06
 Alpha HF Exchange    Energy = -19.62696728475118
 Beta HF Exchange     Energy = -19.62696728475118
 DFT Correlation      Energy =  -5.20818728739849
 DFT Exchange         Energy = -155.90019744088062
 One-Electron (alpha) Energy = -4207.09443652633308
 One-Electron (beta)  Energy = -4207.09443652633308
 Total Coulomb        Energy = 2790.89984193249165
 ---------------------------------------
  Cycle       Energy         DIIS error
 ---------------------------------------
    1   -5272.9559123239      1.83e-01  
 Alpha HF Exchange    Energy = -19.73118135810008
 Beta HF Exchange     Energy = -19.73118135810010
 DFT Correlation      Energy =  -5.25713525657338
 DFT Exchange         Energy = -157.04289792725754
 One-Electron (alpha) Energy = -4217.35005229182661
 One-Electron (beta)  Energy = -4217.35005229182934
 Total Coulomb        Energy = 2820.18896590141821
    2   -5265.5780964882      1.04e-02  
 Alpha HF Exchange    Energy = -19.59593528262186
 Beta HF Exchange     Energy = -19.59593528262187
 DFT Correlation      Energy =  -5.22403490455988
 DFT Exchange         Energy = -155.97711046009601
 One-Electron (alpha) Energy = -4201.99422324978696
 One-Electron (beta)  Energy = -4201.99422324978786
 Total Coulomb        Energy = 2788.09413198421453
    3   -5265.5918923512      3.96e-03  
 Alpha HF Exchange    Energy = -19.70390386934372
 Beta HF Exchange     Energy = -19.70390386934370
 DFT Correlation      Energy =  -5.24607216631828
 DFT Exchange         Energy = -156.80485088819285
 One-Electron (alpha) Energy = -4214.45179023822584
 One-Electron (beta)  Energy = -4214.45179023822311
 Total Coulomb        Energy = 2814.04642250098095
    4   -5265.6204506746      3.24e-03  
 Alpha HF Exchange    Energy = -19.66804200891233
 Beta HF Exchange     Energy = -19.66804200891235
 DFT Correlation      Energy =  -5.24227517413359
 DFT Exchange         Energy = -156.54468078750654
 One-Electron (alpha) Energy = -4210.18980514296345
 One-Electron (beta)  Energy = -4210.18980514296618
 Total Coulomb        Energy = 2805.11366134481932
    5   -5265.6935508265      9.58e-04  
 Alpha HF Exchange    Energy = -19.66233264843412
 Beta HF Exchange     Energy = -19.66233264843412
 DFT Correlation      Energy =  -5.23934463048498
 DFT Exchange         Energy = -156.49296497760838
 One-Electron (alpha) Energy = -4209.77459116954469
 One-Electron (beta)  Energy = -4209.77459116954469
 Total Coulomb        Energy = 2804.20663244999787
    6   -5265.7040867000      7.57e-05  
 Alpha HF Exchange    Energy = -19.66148798566311
 Beta HF Exchange     Energy = -19.66148798566309
 DFT Correlation      Energy =  -5.23917091401854
 DFT Exchange         Energy = -156.48661872806053
 One-Electron (alpha) Energy = -4209.61815934298738
 One-Electron (beta)  Energy = -4209.61815934298556
 Total Coulomb        Energy = 2803.88548962861069
    7   -5265.7041565767      3.75e-05  
 Alpha HF Exchange    Energy = -19.66164925818512
 Beta HF Exchange     Energy = -19.66164925818512
 DFT Correlation      Energy =  -5.23915607550606
 DFT Exchange         Energy = -156.48775061701147
 One-Electron (alpha) Energy = -4209.65211965701474
 One-Electron (beta)  Energy = -4209.65211965701474
 Total Coulomb        Energy = 2803.95483516365812
    8   -5265.7041712652      1.01e-05  
 Alpha HF Exchange    Energy = -19.66171819961139
 Beta HF Exchange     Energy = -19.66171819961141
 DFT Correlation      Energy =  -5.23918685707374
 DFT Exchange         Energy = -156.48829322275884
 One-Electron (alpha) Energy = -4209.66077854232844
 One-Electron (beta)  Energy = -4209.66077854233026
 Total Coulomb        Energy = 2803.97286304137242
    9   -5265.7041724283      1.94e-06  
 Alpha HF Exchange    Energy = -19.66171913783366
 Beta HF Exchange     Energy = -19.66171913783364
 DFT Correlation      Energy =  -5.23918697770814
 DFT Exchange         Energy = -156.48829844179926
 One-Electron (alpha) Energy = -4209.66076946847443
 One-Electron (beta)  Energy = -4209.66076946847079
 Total Coulomb        Energy = 2803.97285207430332
   10   -5265.7041724638      5.85e-07  Convergence criterion met
 ---------------------------------------
 SCF time:   CPU 41.20s  wall 4.00s 
<S^2> =         -0.000000000
 Alpha HF Exchange    Energy = -19.66171913783366
 Beta HF Exchange     Energy = -19.66171913783364
 DFT Correlation      Energy =  -5.23918697770814
 DFT Exchange         Energy = -156.48829844179926
 One-Electron (alpha) Energy = -4209.66076946847443
 One-Electron (beta)  Energy = -4209.66076946847079
 Total Coulomb        Energy = 2803.97285207430332
 Nuclear repulsion Energy = 550.69543809406650
 SCF   energy in the final basis set =    -5265.7041724638
 Total energy in the final basis set =    -5265.7041724638
 
 --------------------------------------------------------------
 
                    Orbital Energies (a.u.)
 --------------------------------------------------------------
 
 Alpha MOs
 -- Occupied --
*******-482.850 -62.515 -62.507 -56.336 -56.332 -56.332 -56.329
-56.325 -56.325 -10.276 -10.276 -10.215  -8.702  -8.694  -6.532
 -6.524  -6.519  -6.519  -6.511  -6.511  -2.626  -2.622  -2.622
 -2.617  -2.614  -2.613  -2.612  -2.612  -2.603  -2.603  -0.858
 -0.770  -0.748  -0.700  -0.609  -0.500  -0.469  -0.447  -0.431
 -0.395  -0.363  -0.347  -0.288  -0.286  -0.279  -0.273
 -- Virtual --
 -0.067  -0.019   0.074   0.110   0.119   0.146   0.149   0.156
  0.181   0.202   0.220   0.250   0.326   0.335   0.342   0.344
  0.355   0.405   0.432   0.464   0.482   0.494   0.538   0.558
  0.586   0.610   0.617   0.632   0.634   0.674   0.710   0.737
  0.768   0.771   0.835   0.841   0.857   0.868   0.875   0.889
  0.908   0.933   0.996   1.111   1.311   1.332   1.365   1.521
  1.574   1.654   1.713   1.740   1.792   1.812   1.872   1.919
  2.009   2.018   2.035   2.059   2.071   2.120   2.240   2.248
  2.328   2.414   2.505   2.540   2.571   2.602   2.695   2.709
  2.799   2.843   2.873   3.170   3.223   3.291   3.409   3.431
  3.449   4.197   4.405   4.546   4.725   4.730   4.735   4.743
  4.767   4.779   4.815   4.831   4.929   4.974   6.296   6.309
 90.302  90.405
 
 Beta MOs
 -- Occupied --
*******-482.850 -62.515 -62.507 -56.336 -56.332 -56.332 -56.329
-56.325 -56.325 -10.276 -10.276 -10.215  -8.702  -8.694  -6.532
 -6.524  -6.519  -6.519  -6.511  -6.511  -2.626  -2.622  -2.622
 -2.617  -2.614  -2.613  -2.612  -2.612  -2.603  -2.603  -0.858
 -0.770  -0.748  -0.700  -0.609  -0.500  -0.469  -0.447  -0.431
 -0.395  -0.363  -0.347  -0.288  -0.286  -0.279  -0.273
 -- Virtual --
 -0.067  -0.019   0.074   0.110   0.119   0.146   0.149   0.156
  0.181   0.202   0.220   0.250   0.326   0.335   0.342   0.344
  0.355   0.405   0.432   0.464   0.482   0.494   0.538   0.558
  0.586   0.610   0.617   0.632   0.634   0.674   0.710   0.737
  0.768   0.771   0.835   0.841   0.857   0.868   0.875   0.889
  0.908   0.933   0.996   1.111   1.311   1.332   1.365   1.521
  1.574   1.654   1.713   1.740   1.792   1.812   1.872   1.919
  2.009   2.018   2.035   2.059   2.071   2.120   2.240   2.248
  2.328   2.414   2.505   2.540   2.571   2.602   2.695   2.709
  2.799   2.843   2.873   3.170   3.223   3.291   3.409   3.431
  3.449   4.197   4.405   4.546   4.725   4.730   4.735   4.743
  4.767   4.779   4.815   4.831   4.929   4.974   6.296   6.309
 90.302  90.405
 --------------------------------------------------------------
 
          Ground-State Mulliken Net Atomic Charges

     Atom                 Charge (a.u.)    Spin (a.u.)
  --------------------------------------------------------
      1 Br                   -0.089125      -0.000000
      2 Br                   -0.153558       0.000000
      3 C                    -0.136375       0.000000
      4 C                    -0.224469       0.000000
      5 C                    -0.324294      -0.000000
      6 H                     0.176007       0.000000
      7 H                     0.180629       0.000000
      8 H                     0.167286      -0.000000
      9 H                     0.135557       0.000000
     10 H                     0.146883       0.000000
     11 H                     0.121459      -0.000000
  --------------------------------------------------------
  Sum of atomic charges =    -0.000000
  Sum of spin   charges =    -0.000000

 -----------------------------------------------------------------
                    Cartesian Multipole Moments
 -----------------------------------------------------------------
    Charge (ESU x 10^10)
                -0.0000
    Dipole Moment (Debye)
         X      -2.5473      Y      -2.6688      Z       0.2324
       Tot       3.6967
    Quadrupole Moments (Debye-Ang)
        XX     -60.7848     XY       1.9909     YY     -56.4929
        XZ       1.0468     YZ      -0.5129     ZZ     -55.4207
    Octopole Moments (Debye-Ang^2)
       XXX     -75.8791    XXY     -16.7570    XYY     -21.9857
       YYY     -55.6266    XXZ      -0.6230    XYZ      -1.2730
       YYZ       3.2735    XZZ     -22.6133    YZZ     -19.4078
       ZZZ       5.7256
    Hexadecapole Moments (Debye-Ang^3)
      XXXX   -1028.5009   XXXY      73.8451   XXYY    -261.9975
      XYYY      51.4956   YYYY    -464.5055   XXXZ      31.3033
      XXYZ      -7.8660   XYYZ      12.9762   YYYZ      -5.3304
      XXZZ    -192.1560   XYZZ      19.7141   YYZZ    -102.6686
      XZZZ      41.8179   YZZZ     -15.4544   ZZZZ    -104.9369
 -----------------------------------------------------------------
 Calculating analytic gradient of the SCF energy
 Gradient of SCF Energy
            1           2           3           4           5           6
    1   0.0000181   0.0336816  -0.0020278  -0.0295061   0.0004149   0.0000346
    2   0.0003636   0.0123653  -0.0010508  -0.0105633   0.0005177   0.0002521
    3   0.0000719  -0.0122767   0.0002004   0.0107958  -0.0001172  -0.0000976
            7           8           9          10          11
    1  -0.0013438  -0.0013427  -0.0000315   0.0000920   0.0000106
    2  -0.0011035  -0.0005356  -0.0000963  -0.0000433  -0.0001058
    3   0.0004626   0.0008878   0.0000520   0.0000091   0.0000119
 Max gradient component =       3.368E-02
 RMS gradient           =       8.789E-03
 Gradient time:  CPU 16.90 s  wall 1.49 s
 Geometry Optimization Parameters
   NAtoms,    NIC,     NZ,  NCons,   NDum,   NFix, NCnnct, MaxDiis
       11      68       0       1       0       0       0       0

 Cartesian Hessian Update
 Hessian Updated using BFGS Update


** CONSTRAINED OPTIMIZATION IN DELOCALIZED INTERNAL COORDINATES **
   Searching for a Minimum

   Optimization Cycle:   3

                       Coordinates (Angstroms)
     ATOM                X               Y               Z
      1  Br       -0.6847146694    1.7908734800    0.1815062675
      2  Br        2.5558788686   -0.1001929625   -0.2993808957
      3  C        -0.5467611859   -0.1274775351   -0.3260201378
      4  C         0.5907067156   -0.7987385807    0.4007104401
      5  C        -1.8675999561   -0.8317875400   -0.0126988112
      6  H        -0.3609574015   -0.1048596591   -1.3996691874
      7  H         0.6242946839   -0.6068259546    1.4704074958
      8  H         0.6467339641   -1.8638996700    0.1780891518
      9  H        -2.0770666149   -0.8290753439    1.0604506262
     10  H        -2.6935528512   -0.3351777759   -0.5257714465
     11  H        -1.8221615532   -1.8718364582   -0.3568255029
   Point Group: c1    Number of degrees of freedom:    27


   Energy is  -5265.704172464

              Constraints and their Current Values
                                        Value     Constraint
   Distance(Angs):        2   4             2.199999     2.200000
 Hessian Updated using BFGS Update

   Using Lagrange Multiplier Algorithm


 26 Hessian modes will be used to form the next step
  Hessian Eigenvalues:
    -0.958251    0.044160    0.045001    0.050140    0.074698    0.081802
     0.082415    0.082985    0.084283    0.111065    0.153147    0.158251
     0.160000    0.165706    0.178183    0.220585    0.242017    0.295120
     0.308501    0.340903    0.344328    0.346062    0.348254    0.348678
     0.351139    1.045098

 Minimum Search - Taking P-RFO Step
 Searching for Lamda that Maximizes Along the Constraint modes Only
 Value Taken    Lamda =   0.00000000
 Searching for Lamda that Minimizes Along All other modes
 Value Taken    Lamda =  -0.00013671
 Step Taken.  Stepsize is  0.051308

                             Maximum     Tolerance    Cnvgd?
         Gradient            0.001986       0.000300      NO
         Displacement        0.041061       0.001200      NO
         Energy change     -0.000082       0.000001      NO


 New Cartesian Coordinates Obtained by Inverse Iteration

 Displacement from previous Coordinates is:  0.035664
 ----------------------------------------------------------------
             Standard Nuclear Orientation (Angstroms)
    I     Atom           X                Y                Z
 ----------------------------------------------------------------
    1      Br     -0.6849796936     1.7893816770     0.1829914029
    2      Br      2.5520998759    -0.1070743709    -0.2957359349
    3      C      -0.5468254712    -0.1263410351    -0.3258890812
    4      C       0.5841413420    -0.7995426872     0.4025666174
    5      C      -1.8694444117    -0.8318894079    -0.0134750639
    6      H      -0.3600522941    -0.1052689556    -1.3990592986
    7      H       0.6328294749    -0.5997997136     1.4695667044
    8      H       0.6548973589    -1.8618305448     0.1741694625
    9      H      -2.0783158751    -0.8293090622     1.0596758526
   10      H      -2.6964114579    -0.3358350664    -0.5258627118
   11      H      -1.8231388481    -1.8714888332    -0.3581499495
 ----------------------------------------------------------------
 Nuclear Repulsion Energy =   551.0175348735 hartrees
 There are       47 alpha and       47 beta electrons

                       Distance Matrix (Angstroms)
             Br(  1)   Br(  2)   C (  3)   C (  4)   C (  5)   H (  6)
   Br(  2)  3.782117
   C (  3)  1.986967  3.099132
   C (  4)  2.891610  2.200000  1.504305
   C (  5)  2.883161  4.489441  1.531248  2.488819
   H (  6)  2.489611  3.114154  1.089506  2.149273  2.173956
   H (  7)  3.016635  2.653803  2.199866  1.086626  2.917988  3.075612
   H (  8)  3.889306  2.626663  2.169359  1.088865  2.732817  2.567232
   H (  9)  3.093138  4.878475  2.181609  2.742509  1.093292  3.085781
   H ( 10)  3.010794  5.258532  2.169008  3.440790  1.092010  2.504837
   H ( 11)  3.871720  4.718026  2.162304  2.742764  1.096226  2.518660
             H (  7)   H (  8)   H (  9)   H ( 10)
   H (  8)  1.808663
   H (  9)  2.751544  3.052978
   H ( 10)  3.890406  3.748330  1.771861
   H ( 11)  3.315045  2.534585  1.778056  1.774532
 
 Applying Cartesian multipole field
    Component          Value
    ---------          -----
     (2,0,0)        1.00000E-11
     (0,2,0)        2.00000E-11
     (0,0,2)       -3.00000E-10
 Nucleus-field energy     =     0.0000000070 hartrees
 Requested basis set is 6-31G(d,p)
 There are 46 shells and 145 basis functions
 A cutoff of  1.0D-14 yielded    980 shell pairs
 There are      9719 function pairs
 Smallest overlap matrix eigenvalue = 7.22E-04
 Guess from superposition of atomic densities
 Warning:  Energy on first SCF cycle will be non-variational
 SAD guess density has 93.945746 electrons

 -----------------------------------------------------------------------
  General SCF calculation program by
  Eric Jon Sundstrom, Paul Horn, Yuezhi Mao, Dmitri Zuev, Alec White,
  David Stuck, Shaama M.S., Shane Yost, Joonho Lee, David Small,
  Daniel Levine, Susi Lehtola, Hugh Burton, Evgeny Epifanovsky
 -----------------------------------------------------------------------
 Exchange:     0.2000 Hartree-Fock + 0.0800 Slater + 0.7200 B88
 Correlation:  0.1900 VWN1RPA + 0.8100 LYP
 Using SG-1 standard quadrature grid
 using 12 threads for integral computing
 -------------------------------------------------------
 OpenMP Integral computing Module                
 Release: version 1.0, May 2013, Q-Chem Inc. Pittsburgh 
 -------------------------------------------------------
 -------------------------------------------------------
 OpenMP BLAS3 based DFT computing Module                
 Release: version 1.0, May 2013, Q-Chem Inc. Pittsburgh 
 -------------------------------------------------------
 A unrestricted SCF calculation will be
 performed using DIIS
 SCF converges when DIIS error is below 1.0e-06
 Alpha HF Exchange    Energy = -19.62743939604551
 Beta HF Exchange     Energy = -19.62743939604551
 DFT Correlation      Energy =  -5.20832669009929
 DFT Exchange         Energy = -155.90117301197415
 One-Electron (alpha) Energy = -4207.41425035690554
 One-Electron (beta)  Energy = -4207.41425035690554
 Total Coulomb        Energy = 2791.21465472060800
 ---------------------------------------
  Cycle       Energy         DIIS error
 ---------------------------------------
    1   -5272.9606896069      1.83e-01  
 Alpha HF Exchange    Energy = -19.73148154493174
 Beta HF Exchange     Energy = -19.73148154493177
 DFT Correlation      Energy =  -5.25729189881251
 DFT Exchange         Energy = -157.04501061088376
 One-Electron (alpha) Energy = -4217.68063697880552
 One-Electron (beta)  Energy = -4217.68063697880825
 Total Coulomb        Energy = 2820.53095348195075
    2   -5265.5780511947      1.04e-02  
 Alpha HF Exchange    Energy = -19.59610361704367
 Beta HF Exchange     Energy = -19.59610361704370
 DFT Correlation      Energy =  -5.22419941850595
 DFT Exchange         Energy = -155.97836155884630
 One-Electron (alpha) Energy = -4202.31122127743311
 One-Electron (beta)  Energy = -4202.31122127743674
 Total Coulomb        Energy = 2788.40812422154158
    3   -5265.5915516643      3.96e-03  
 Alpha HF Exchange    Energy = -19.70415908167288
 Beta HF Exchange     Energy = -19.70415908167290
 DFT Correlation      Energy =  -5.24619942123945
 DFT Exchange         Energy = -156.80649330328339
 One-Electron (alpha) Energy = -4214.77788399368183
 One-Electron (beta)  Energy = -4214.77788399368364
 Total Coulomb        Energy = 2814.37933609563652
    4   -5265.6199078991      3.25e-03  
 Alpha HF Exchange    Energy = -19.66831388347154
 Beta HF Exchange     Energy = -19.66831388347154
 DFT Correlation      Energy =  -5.24244403798183
 DFT Exchange         Energy = -156.54666752144973
 One-Electron (alpha) Energy = -4210.51835689446943
 One-Electron (beta)  Energy = -4210.51835689446943
 Total Coulomb        Energy = 2805.45135319895780
    5   -5265.6935650359      9.61e-04  
 Alpha HF Exchange    Energy = -19.66256364520558
 Beta HF Exchange     Energy = -19.66256364520557
 DFT Correlation      Energy =  -5.23949783611368
 DFT Exchange         Energy = -156.49458843119774
 One-Electron (alpha) Energy = -4210.09927531502308
 One-Electron (beta)  Energy = -4210.09927531502126
 Total Coulomb        Energy = 2804.53607223574318
    6   -5265.7041570715      7.63e-05  
 Alpha HF Exchange    Energy = -19.66171800845595
 Beta HF Exchange     Energy = -19.66171800845593
 DFT Correlation      Energy =  -5.23932553520300
 DFT Exchange         Energy = -156.48824252523787
 One-Electron (alpha) Energy = -4209.94228263457171
 One-Electron (beta)  Energy = -4209.94228263456989
 Total Coulomb        Energy = 2804.21380654484619
    7   -5265.7042279211      3.80e-05  
 Alpha HF Exchange    Energy = -19.66188070006265
 Beta HF Exchange     Energy = -19.66188070006267
 DFT Correlation      Energy =  -5.23931031443796
 DFT Exchange         Energy = -156.48938341670947
 One-Electron (alpha) Energy = -4209.97651583277820
 One-Electron (beta)  Energy = -4209.97651583278002
 Total Coulomb        Energy = 2804.28370891966506
    8   -5265.7042429967      1.02e-05  
 Alpha HF Exchange    Energy = -19.66195079176993
 Beta HF Exchange     Energy = -19.66195079176993
 DFT Correlation      Energy =  -5.23934144080093
 DFT Exchange         Energy = -156.48993454789937
 One-Electron (alpha) Energy = -4209.98535679452743
 One-Electron (beta)  Energy = -4209.98535679452561
 Total Coulomb        Energy = 2804.30211209096615
    9   -5265.7042441898      1.94e-06  
 Alpha HF Exchange    Energy = -19.66195163508839
 Beta HF Exchange     Energy = -19.66195163508835
 DFT Correlation      Energy =  -5.23934157702807
 DFT Exchange         Energy = -156.48993918295011
 One-Electron (alpha) Energy = -4209.98531858410206
 One-Electron (beta)  Energy = -4209.98531858409751
 Total Coulomb        Energy = 2804.30204209252634
   10   -5265.7042442253      5.86e-07  Convergence criterion met
 ---------------------------------------
 SCF time:   CPU 41.71s  wall 3.00s 
<S^2> =         -0.000000000
 Alpha HF Exchange    Energy = -19.66195163508839
 Beta HF Exchange     Energy = -19.66195163508835
 DFT Correlation      Energy =  -5.23934157702807
 DFT Exchange         Energy = -156.48993918295011
 One-Electron (alpha) Energy = -4209.98531858410206
 One-Electron (beta)  Energy = -4209.98531858409751
 Total Coulomb        Energy = 2804.30204209252634
 Nuclear repulsion Energy = 551.01753488050326
 SCF   energy in the final basis set =    -5265.7042442253
 Total energy in the final basis set =    -5265.7042442253
 
 --------------------------------------------------------------
 
                    Orbital Energies (a.u.)
 --------------------------------------------------------------
 
 Alpha MOs
 -- Occupied --
*******-482.849 -62.515 -62.507 -56.337 -56.333 -56.333 -56.328
-56.324 -56.324 -10.276 -10.276 -10.215  -8.702  -8.693  -6.533
 -6.523  -6.520  -6.519  -6.510  -6.510  -2.626  -2.623  -2.622
 -2.616  -2.613  -2.613  -2.612  -2.612  -2.603  -2.602  -0.858
 -0.770  -0.748  -0.699  -0.609  -0.501  -0.470  -0.447  -0.431
 -0.396  -0.364  -0.345  -0.288  -0.287  -0.278  -0.272
 -- Virtual --
 -0.067  -0.018   0.074   0.110   0.119   0.146   0.150   0.156
  0.181   0.201   0.220   0.250   0.326   0.335   0.343   0.345
  0.355   0.405   0.432   0.463   0.482   0.494   0.539   0.558
  0.586   0.610   0.617   0.632   0.634   0.673   0.707   0.737
  0.768   0.771   0.835   0.841   0.857   0.870   0.875   0.890
  0.908   0.932   1.000   1.112   1.310   1.333   1.366   1.521
  1.576   1.654   1.712   1.739   1.792   1.812   1.871   1.921
  2.007   2.018   2.034   2.059   2.070   2.122   2.240   2.256
  2.328   2.415   2.507   2.537   2.574   2.601   2.696   2.709
  2.797   2.843   2.874   3.171   3.226   3.292   3.408   3.431
  3.449   4.198   4.405   4.546   4.725   4.730   4.735   4.743
  4.768   4.779   4.816   4.832   4.930   4.975   6.296   6.309
 90.304  90.406
 
 Beta MOs
 -- Occupied --
*******-482.849 -62.515 -62.507 -56.337 -56.333 -56.333 -56.328
-56.324 -56.324 -10.276 -10.276 -10.215  -8.702  -8.693  -6.533
 -6.523  -6.520  -6.519  -6.510  -6.510  -2.626  -2.623  -2.622
 -2.616  -2.613  -2.613  -2.612  -2.612  -2.603  -2.602  -0.858
 -0.770  -0.748  -0.699  -0.609  -0.501  -0.470  -0.447  -0.431
 -0.396  -0.364  -0.345  -0.288  -0.287  -0.278  -0.272
 -- Virtual --
 -0.067  -0.018   0.074   0.110   0.119   0.146   0.150   0.156
  0.181   0.201   0.220   0.250   0.326   0.335   0.343   0.345
  0.355   0.405   0.432   0.463   0.482   0.494   0.539   0.558
  0.586   0.610   0.617   0.632   0.634   0.673   0.707   0.737
  0.768   0.771   0.835   0.841   0.857   0.870   0.875   0.890
  0.908   0.932   1.000   1.112   1.310   1.333   1.366   1.521
  1.576   1.654   1.712   1.739   1.792   1.812   1.871   1.921
  2.007   2.018   2.034   2.059   2.070   2.122   2.240   2.256
  2.328   2.415   2.507   2.537   2.574   2.601   2.696   2.709
  2.797   2.843   2.874   3.171   3.226   3.292   3.408   3.431
  3.449   4.198   4.405   4.546   4.725   4.730   4.735   4.743
  4.768   4.779   4.816   4.832   4.930   4.975   6.296   6.309
 90.304  90.406
 --------------------------------------------------------------
 
          Ground-State Mulliken Net Atomic Charges

     Atom                 Charge (a.u.)    Spin (a.u.)
  --------------------------------------------------------
      1 Br                   -0.087835       0.000000
      2 Br                   -0.157594      -0.000000
      3 C                    -0.136308      -0.000000
      4 C                    -0.224880       0.000000
      5 C                    -0.324321       0.000000
      6 H                     0.176334       0.000000
      7 H                     0.182018      -0.000000
      8 H                     0.168774      -0.000000
      9 H                     0.135607      -0.000000
     10 H                     0.146675      -0.000000
     11 H                     0.121532      -0.000000
  --------------------------------------------------------
  Sum of atomic charges =    -0.000000
  Sum of spin   charges =    -0.000000

 -----------------------------------------------------------------
                    Cartesian Multipole Moments
 -----------------------------------------------------------------
    Charge (ESU x 10^10)
                -0.0000
    Dipole Moment (Debye)
         X      -2.5765      Y      -2.6576      Z       0.2390
       Tot       3.7092
    Quadrupole Moments (Debye-Ang)
        XX     -60.8808     XY       1.9620     YY     -56.4639
        XZ       1.0793     YZ      -0.4912     ZZ     -55.4096
    Octopole Moments (Debye-Ang^2)
       XXX     -75.9475    XXY     -16.6505    XYY     -21.9078
       YYY     -55.1329    XXZ      -0.6313    XYZ      -1.2616
       YYZ       3.1655    XZZ     -22.5181    YZZ     -19.2346
       ZZZ       5.4662
    Hexadecapole Moments (Debye-Ang^3)
      XXXX   -1027.8565   XXXY      74.4542   XXYY    -261.6723
      XYYY      52.1950   YYYY    -463.8137   XXXZ      31.0438
      XXYZ      -7.8813   XYYZ      12.8052   YYYZ      -5.4899
      XXZZ    -191.9219   XYZZ      19.9694   YYZZ    -102.5415
      XZZZ      41.3778   YZZZ     -15.6694   ZZZZ    -104.7309
 -----------------------------------------------------------------
 Calculating analytic gradient of the SCF energy
 Gradient of SCF Energy
            1           2           3           4           5           6
    1  -0.0000014   0.0326408   0.0001521  -0.0328058   0.0001524  -0.0000623
    2  -0.0000022   0.0115482  -0.0003664  -0.0109218   0.0000545   0.0002041
    3   0.0000402  -0.0116086  -0.0000200   0.0111101   0.0001560   0.0000867
            7           8           9          10          11
    1  -0.0000235   0.0000616  -0.0000141  -0.0000993  -0.0000005
    2  -0.0003061  -0.0000777  -0.0000457  -0.0000817  -0.0000052
    3   0.0000817   0.0001284   0.0000016   0.0000208   0.0000031
 Max gradient component =       3.281E-02
 RMS gradient           =       8.966E-03
 Gradient time:  CPU 17.02 s  wall 1.50 s
 Geometry Optimization Parameters
   NAtoms,    NIC,     NZ,  NCons,   NDum,   NFix, NCnnct, MaxDiis
       11      68       0       1       0       0       0       0

 Cartesian Hessian Update
 Hessian Updated using BFGS Update


** CONSTRAINED OPTIMIZATION IN DELOCALIZED INTERNAL COORDINATES **
   Searching for a Minimum

   Optimization Cycle:   4

                       Coordinates (Angstroms)
     ATOM                X               Y               Z
      1  Br       -0.6849796936    1.7893816770    0.1829914029
      2  Br        2.5520998759   -0.1070743709   -0.2957359349
      3  C        -0.5468254712   -0.1263410351   -0.3258890812
      4  C         0.5841413420   -0.7995426872    0.4025666174
      5  C        -1.8694444117   -0.8318894079   -0.0134750639
      6  H        -0.3600522941   -0.1052689556   -1.3990592986
      7  H         0.6328294749   -0.5997997136    1.4695667044
      8  H         0.6548973589   -1.8618305448    0.1741694625
      9  H        -2.0783158751   -0.8293090622    1.0596758526
     10  H        -2.6964114579   -0.3358350664   -0.5258627118
     11  H        -1.8231388481   -1.8714888332   -0.3581499495
   Point Group: c1    Number of degrees of freedom:    27


   Energy is  -5265.704244225

              Constraints and their Current Values
                                        Value     Constraint
   Distance(Angs):        2   4             2.200000     2.200000
 Hessian Updated using BFGS Update

 25 Hessian modes will be used to form the next step
  Hessian Eigenvalues:
     0.040843    0.045000    0.048432    0.075040    0.081819    0.082460
     0.082990    0.084283    0.111044    0.154199    0.159623    0.160000
     0.160929    0.167202    0.178181    0.221772    0.243268    0.295784
     0.312782    0.340909    0.344330    0.346103    0.348273    0.348697
     0.351009

 Minimum Search - Taking Simple RFO Step
 Searching for Lamda that Minimizes Along All modes
 Value Taken    Lamda =  -0.00000265
 Step Taken.  Stepsize is  0.006456

                             Maximum     Tolerance    Cnvgd?
         Gradient           0.000275      0.000300     YES
         Displacement       0.003934      0.001200      NO
         Energy change     -0.000072      0.000001      NO


 New Cartesian Coordinates Obtained by Inverse Iteration

 Displacement from previous Coordinates is:  0.006431
 ----------------------------------------------------------------
             Standard Nuclear Orientation (Angstroms)
    I     Atom           X                Y                Z
 ----------------------------------------------------------------
    1      Br     -0.6854562201     1.7892649947     0.1837303325
    2      Br      2.5515930919    -0.1076051930    -0.2966713504
    3      C      -0.5469065912    -0.1263485240    -0.3252748602
    4      C       0.5841880740    -0.7998919272     0.4033687826
    5      C      -1.8697699066    -0.8319813894    -0.0137603304
    6      H      -0.3599768652    -0.1061190672    -1.3985500606
    7      H       0.6342098088    -0.5981790645     1.4698321540
    8      H       0.6552054882    -1.8618570424     0.1740926628
    9      H      -2.0789559239    -0.8297285129     1.0593483474
   10      H      -2.6959654077    -0.3351072304    -0.5264244349
   11      H      -1.8233655483    -1.8714450438    -0.3588932427
 ----------------------------------------------------------------
 Nuclear Repulsion Energy =   551.0038124291 hartrees
 There are       47 alpha and       47 beta electrons

                       Distance Matrix (Angstroms)
             Br(  1)   Br(  2)   C (  3)   C (  4)   C (  5)   H (  6)
   Br(  2)  3.782511
   C (  3)  1.986922  3.098688
   C (  4)  2.892053  2.200000  1.504645
   C (  5)  2.883147  4.489233  1.531315  2.489365
   H (  6)  2.490387  3.113098  1.089620  2.149344  2.173475
   H (  7)  3.015869  2.652839  2.200016  1.086524  2.919867  3.075410
   H (  8)  3.889493  2.625891  2.169431  1.088752  2.733392  2.566401
   H (  9)  3.093166  4.878753  2.181536  2.742906  1.093310  3.085412
   H ( 10)  3.009888  5.257510  2.168524  3.440922  1.091928  2.503973
   H ( 11)  3.871702  4.717549  2.162369  2.743280  1.096246  2.517691
             H (  7)   H (  8)   H (  9)   H ( 10)
   H (  8)  1.810045
   H (  9)  2.753794  3.053622
   H ( 10)  3.891570  3.748604  1.772012
   H ( 11)  3.317396  2.535248  1.778176  1.774776
 
 Applying Cartesian multipole field
    Component          Value
    ---------          -----
     (2,0,0)        1.00000E-11
     (0,2,0)        2.00000E-11
     (0,0,2)       -3.00000E-10
 Nucleus-field energy     =     0.0000000070 hartrees
 Requested basis set is 6-31G(d,p)
 There are 46 shells and 145 basis functions
 A cutoff of  1.0D-14 yielded    980 shell pairs
 There are      9719 function pairs
 Smallest overlap matrix eigenvalue = 7.22E-04
 Guess from superposition of atomic densities
 Warning:  Energy on first SCF cycle will be non-variational
 SAD guess density has 93.945746 electrons

 -----------------------------------------------------------------------
  General SCF calculation program by
  Eric Jon Sundstrom, Paul Horn, Yuezhi Mao, Dmitri Zuev, Alec White,
  David Stuck, Shaama M.S., Shane Yost, Joonho Lee, David Small,
  Daniel Levine, Susi Lehtola, Hugh Burton, Evgeny Epifanovsky
 -----------------------------------------------------------------------
 Exchange:     0.2000 Hartree-Fock + 0.0800 Slater + 0.7200 B88
 Correlation:  0.1900 VWN1RPA + 0.8100 LYP
 Using SG-1 standard quadrature grid
 using 12 threads for integral computing
 -------------------------------------------------------
 OpenMP Integral computing Module                
 Release: version 1.0, May 2013, Q-Chem Inc. Pittsburgh 
 -------------------------------------------------------
 -------------------------------------------------------
 OpenMP BLAS3 based DFT computing Module                
 Release: version 1.0, May 2013, Q-Chem Inc. Pittsburgh 
 -------------------------------------------------------
 A unrestricted SCF calculation will be
 performed using DIIS
 SCF converges when DIIS error is below 1.0e-06
 Alpha HF Exchange    Energy = -19.62740763838835
 Beta HF Exchange     Energy = -19.62740763838835
 DFT Correlation      Energy =  -5.20832106395044
 DFT Exchange         Energy = -155.90111177581679
 One-Electron (alpha) Energy = -4207.40062801170461
 One-Electron (beta)  Energy = -4207.40062801170461
 Total Coulomb        Energy = 2791.20136657476087
 ---------------------------------------
  Cycle       Energy         DIIS error
 ---------------------------------------
    1   -5272.9603251291      1.83e-01  
 Alpha HF Exchange    Energy = -19.73147888560860
 Beta HF Exchange     Energy = -19.73147888560858
 DFT Correlation      Energy =  -5.25728553098026
 DFT Exchange         Energy = -157.04497772385224
 One-Electron (alpha) Energy = -4217.66700016527921
 One-Electron (beta)  Energy = -4217.66700016527739
 Total Coulomb        Energy = 2820.51737571409330
    2   -5265.5780332064      1.04e-02  
 Alpha HF Exchange    Energy = -19.59609538327057
 Beta HF Exchange     Energy = -19.59609538327055
 DFT Correlation      Energy =  -5.22419704029294
 DFT Exchange         Energy = -155.97831256149317
 One-Electron (alpha) Energy = -4202.29731917965728
 One-Electron (beta)  Energy = -4202.29731917965637
 Total Coulomb        Energy = 2788.39407390651922
    3   -5265.5914523850      3.96e-03  
 Alpha HF Exchange    Energy = -19.70415332392039
 Beta HF Exchange     Energy = -19.70415332392037
 DFT Correlation      Energy =  -5.24618897839055
 DFT Exchange         Energy = -156.80641494941483
 One-Electron (alpha) Energy = -4214.76438550673174
 One-Electron (beta)  Energy = -4214.76438550672901
 Total Coulomb        Energy = 2814.36611568421313
    4   -5265.6197534688      3.25e-03  
 Alpha HF Exchange    Energy = -19.66831551427105
 Beta HF Exchange     Energy = -19.66831551427104
 DFT Correlation      Energy =  -5.24244076363677
 DFT Exchange         Energy = -156.54668389311709
 One-Electron (alpha) Energy = -4210.50525457395725
 One-Electron (beta)  Energy = -4210.50525457395815
 Total Coulomb        Energy = 2805.43889529395346
    5   -5265.6935571031      9.61e-04  
 Alpha HF Exchange    Energy = -19.66255731413438
 Beta HF Exchange     Energy = -19.66255731413437
 DFT Correlation      Energy =  -5.23949232055072
 DFT Exchange         Energy = -156.49453686986541
 One-Electron (alpha) Energy = -4210.08569952634116
 One-Electron (beta)  Energy = -4210.08569952633934
 Total Coulomb        Energy = 2804.52257165900119
    6   -5265.7041587762      7.63e-05  
 Alpha HF Exchange    Energy = -19.66171140904840
[...]

                             Maximum     Tolerance    Cnvgd?
         Gradient           0.000108      0.000300     YES
         Displacement       0.002261      0.001200      NO
         Energy change     -0.000002      0.000001      NO


 New Cartesian Coordinates Obtained by Inverse Iteration

 Displacement from previous Coordinates is:  0.006055
 ----------------------------------------------------------------
             Standard Nuclear Orientation (Angstroms)
    I     Atom           X                Y                Z
 ----------------------------------------------------------------
    1      Br     -0.6855995247     1.7889859376     0.1843333972
    2      Br      2.5511937091    -0.1079436239    -0.2980213187
    3      C      -0.5468908338    -0.1263071886    -0.3247620700
    4      C       0.5844217994    -0.7999947755     0.4040278771
    5      C      -1.8699647794    -0.8320595875    -0.0140390397
    6      H      -0.3595764186    -0.1066607279    -1.3980298015
    7      H       0.6351519647    -0.5967102915     1.4701057781
    8      H       0.6548406291    -1.8619177951     0.1746988325
    9      H      -2.0795401956    -0.8305444756     1.0590031792
   10      H      -2.6957842345    -0.3345726511    -0.5266571463
   11      H      -1.8234521156    -1.8712728209    -0.3598616879
 ----------------------------------------------------------------
 Nuclear Repulsion Energy =   551.0160341284 hartrees
 There are       47 alpha and       47 beta electrons

                       Distance Matrix (Angstroms)
             Br(  1)   Br(  2)   C (  3)   C (  4)   C (  5)   H (  6)
   Br(  2)  3.782570
   C (  3)  1.986647  3.098254
   C (  4)  2.892065  2.200000  1.504945
   C (  5)  2.883046  4.489057  1.531391  2.489944
   H (  6)  2.490711  3.111688  1.089668  2.149246  2.173225
   H (  7)  3.014820  2.652618  2.200012  1.086471  2.921247  3.075034
   H (  8)  3.889212  2.626032  2.169323  1.088683  2.733290  2.565822
   H (  9)  3.093551  4.879279  2.181690  2.743469  1.093318  3.085335
   H ( 10)  3.009294  5.256844  2.168382  3.441300  1.091901  2.503817
   H ( 11)  3.871479  4.717063  2.162347  2.743906  1.096230  2.516859
             H (  7)   H (  8)   H (  9)   H ( 10)
   H (  8)  1.810861
   H (  9)  2.755583  3.053287
   H ( 10)  3.892418  3.748516  1.772022
   H ( 11)  3.319341  2.535306  1.778166  1.774889
 
 Applying Cartesian multipole field
    Component          Value
    ---------          -----
     (2,0,0)        1.00000E-11
     (0,2,0)        2.00000E-11
     (0,0,2)       -3.00000E-10
 Nucleus-field energy     =     0.0000000070 hartrees
 Requested basis set is 6-31G(d,p)
 There are 46 shells and 145 basis functions
 A cutoff of  1.0D-14 yielded    980 shell pairs
 There are      9719 function pairs
 Smallest overlap matrix eigenvalue = 7.22E-04
 Guess from superposition of atomic densities
 Warning:  Energy on first SCF cycle will be non-variational
 SAD guess density has 93.945746 electrons

 -----------------------------------------------------------------------
  General SCF calculation program by
  Eric Jon Sundstrom, Paul Horn, Yuezhi Mao, Dmitri Zuev, Alec White,
  David Stuck, Shaama M.S., Shane Yost, Joonho Lee, David Small,
  Daniel Levine, Susi Lehtola, Hugh Burton, Evgeny Epifanovsky
 -----------------------------------------------------------------------
 Exchange:     0.2000 Hartree-Fock + 0.0800 Slater + 0.7200 B88
 Correlation:  0.1900 VWN1RPA + 0.8100 LYP
 Using SG-1 standard quadrature grid
 using 12 threads for integral computing
 -------------------------------------------------------
 OpenMP Integral computing Module                
 Release: version 1.0, May 2013, Q-Chem Inc. Pittsburgh 
 -------------------------------------------------------
 -------------------------------------------------------
 OpenMP BLAS3 based DFT computing Module                
 Release: version 1.0, May 2013, Q-Chem Inc. Pittsburgh 
 -------------------------------------------------------
 A unrestricted SCF calculation will be
 performed using DIIS
 SCF converges when DIIS error is below 1.0e-06
 Alpha HF Exchange    Energy = -19.62739535175929
 Beta HF Exchange     Energy = -19.62739535175929
 DFT Correlation      Energy =  -5.20832067014876
 DFT Exchange         Energy = -155.90108870362610
 One-Electron (alpha) Energy = -4207.41288074528620
 One-Electron (beta)  Energy = -4207.41288074528620
 Total Coulomb        Energy = 2791.21369700178775
 ---------------------------------------
  Cycle       Energy         DIIS error
 ---------------------------------------
    1   -5272.9602304308      1.83e-01  
 Alpha HF Exchange    Energy = -19.73147758773773
 Beta HF Exchange     Energy = -19.73147758773772
 DFT Correlation      Energy =  -5.25728461460126
 DFT Exchange         Energy = -157.04495658499894
 One-Electron (alpha) Energy = -4217.67849492474670
 One-Electron (beta)  Energy = -4217.67849492474761
 Total Coulomb        Energy = 2820.52811097926497
    2   -5265.5780411100      1.04e-02  
 Alpha HF Exchange    Energy = -19.59609849651912
 Beta HF Exchange     Energy = -19.59609849651912
 DFT Correlation      Energy =  -5.22419739589546
 DFT Exchange         Energy = -155.97832668850486
 One-Electron (alpha) Energy = -4202.31036580130967
 One-Electron (beta)  Energy = -4202.31036580130967
 Total Coulomb        Energy = 2788.40796574739306
    3   -5265.5914527973      3.96e-03  
 Alpha HF Exchange    Energy = -19.70415121224543
 Beta HF Exchange     Energy = -19.70415121224542
 DFT Correlation      Energy =  -5.24618913786918
 DFT Exchange         Energy = -156.80638883521448
 One-Electron (alpha) Energy = -4214.77586995026468
 One-Electron (beta)  Energy = -4214.77586995026650
 Total Coulomb        Energy = 2814.37683901229457
    4   -5265.6197471505      3.25e-03  
 Alpha HF Exchange    Energy = -19.66831448473282
 Beta HF Exchange     Energy = -19.66831448473282
 DFT Correlation      Energy =  -5.24243913416872
 DFT Exchange         Energy = -156.54666302152418
 One-Electron (alpha) Energy = -4210.51729494548636
 One-Electron (beta)  Energy = -4210.51729494548636
 Total Coulomb        Energy = 2805.45072245380015
    5   -5265.6935644270      9.61e-04  
 Alpha HF Exchange    Energy = -19.66255698094996
 Beta HF Exchange     Energy = -19.66255698094996
 DFT Correlation      Energy =  -5.23949183657827
 DFT Exchange         Energy = -156.49452354239924
 One-Electron (alpha) Energy = -4210.09780694687288
 One-Electron (beta)  Energy = -4210.09780694687197
 Total Coulomb        Energy = 2804.53454977634601
    6   -5265.7041593230      7.63e-05  
 Alpha HF Exchange    Energy = -19.66171118073986
 Beta HF Exchange     Energy = -19.66171118073986
 DFT Correlation      Energy =  -5.23931974790249
 DFT Exchange         Energy = -156.48817757053496
 One-Electron (alpha) Energy = -4209.94071799801168
 One-Electron (beta)  Energy = -4209.94071799801259
 Total Coulomb        Energy = 2804.21209134068249
    7   -5265.7042301999      3.81e-05  
 Alpha HF Exchange    Energy = -19.66187430214390
 Beta HF Exchange     Energy = -19.66187430214391
 DFT Correlation      Energy =  -5.23930446486436
 DFT Exchange         Energy = -156.48932129721953
 One-Electron (alpha) Energy = -4209.97501981306050
 One-Electron (beta)  Energy = -4209.97501981306414
 Total Coulomb        Energy = 2804.28213450369049
    8   -5265.7042453535      1.02e-05  
 Alpha HF Exchange    Energy = -19.66194464141983
 Beta HF Exchange     Energy = -19.66194464141988
 DFT Correlation      Energy =  -5.23933568666614
 DFT Exchange         Energy = -156.48987440200438
 One-Electron (alpha) Energy = -4209.98390724671117
 One-Electron (beta)  Energy = -4209.98390724671572
 Total Coulomb        Energy = 2804.30063317728172
    9   -5265.7042465523      1.95e-06  
 Alpha HF Exchange    Energy = -19.66194544588984
 Beta HF Exchange     Energy = -19.66194544588985
 DFT Correlation      Energy =  -5.23933581875774
 DFT Exchange         Energy = -156.48987873523177
 One-Electron (alpha) Energy = -4209.98385883196352
 One-Electron (beta)  Energy = -4209.98385883196534
 Total Coulomb        Energy = 2804.30054238601952
   10   -5265.7042465884      5.85e-07  Convergence criterion met
 ---------------------------------------
 SCF time:   CPU 41.23s  wall 4.00s 
<S^2> =          0.000000000
 Alpha HF Exchange    Energy = -19.66194544588984
 Beta HF Exchange     Energy = -19.66194544588985
 DFT Correlation      Energy =  -5.23933581875774
 DFT Exchange         Energy = -156.48987873523177
 One-Electron (alpha) Energy = -4209.98385883196352
 One-Electron (beta)  Energy = -4209.98385883196534
 Total Coulomb        Energy = 2804.30054238601952
 Nuclear repulsion Energy = 551.01603413531791
 SCF   energy in the final basis set =    -5265.7042465884
 Total energy in the final basis set =    -5265.7042465884
 
 --------------------------------------------------------------
 
                    Orbital Energies (a.u.)
 --------------------------------------------------------------
 
 Alpha MOs
 -- Occupied --
*******-482.849 -62.515 -62.507 -56.337 -56.333 -56.333 -56.328
-56.324 -56.324 -10.276 -10.276 -10.215  -8.702  -8.693  -6.533
 -6.523  -6.520  -6.519  -6.510  -6.510  -2.626  -2.623  -2.622
 -2.616  -2.613  -2.612  -2.612  -2.612  -2.602  -2.602  -0.858
 -0.770  -0.748  -0.699  -0.609  -0.501  -0.470  -0.447  -0.431
 -0.396  -0.364  -0.345  -0.288  -0.287  -0.278  -0.272
 -- Virtual --
 -0.067  -0.018   0.074   0.110   0.119   0.146   0.150   0.156
  0.181   0.201   0.221   0.250   0.326   0.335   0.343   0.345
  0.355   0.405   0.432   0.463   0.482   0.494   0.539   0.558
  0.586   0.610   0.617   0.632   0.634   0.673   0.707   0.737
  0.768   0.771   0.835   0.841   0.857   0.870   0.875   0.890
  0.909   0.932   1.001   1.112   1.309   1.333   1.366   1.521
  1.576   1.654   1.712   1.739   1.792   1.812   1.872   1.921
  2.007   2.018   2.033   2.059   2.070   2.122   2.240   2.257
  2.328   2.415   2.507   2.537   2.573   2.601   2.696   2.709
  2.796   2.843   2.873   3.171   3.227   3.292   3.408   3.431
  3.449   4.198   4.406   4.546   4.725   4.730   4.735   4.743
  4.768   4.780   4.815   4.832   4.930   4.975   6.296   6.309
 90.304  90.406
 
 Beta MOs
 -- Occupied --
*******-482.849 -62.515 -62.507 -56.337 -56.333 -56.333 -56.328
-56.324 -56.324 -10.276 -10.276 -10.215  -8.702  -8.693  -6.533
 -6.523  -6.520  -6.519  -6.510  -6.510  -2.626  -2.623  -2.622
 -2.616  -2.613  -2.612  -2.612  -2.612  -2.602  -2.602  -0.858
 -0.770  -0.748  -0.699  -0.609  -0.501  -0.470  -0.447  -0.431
 -0.396  -0.364  -0.345  -0.288  -0.287  -0.278  -0.272
 -- Virtual --
 -0.067  -0.018   0.074   0.110   0.119   0.146   0.150   0.156
  0.181   0.201   0.221   0.250   0.326   0.335   0.343   0.345
  0.355   0.405   0.432   0.463   0.482   0.494   0.539   0.558
  0.586   0.610   0.617   0.632   0.634   0.673   0.707   0.737
  0.768   0.771   0.835   0.841   0.857   0.870   0.875   0.890
  0.909   0.932   1.001   1.112   1.309   1.333   1.366   1.521
  1.576   1.654   1.712   1.739   1.792   1.812   1.872   1.921
  2.007   2.018   2.033   2.059   2.070   2.122   2.240   2.257
  2.328   2.415   2.507   2.537   2.573   2.601   2.696   2.709
  2.796   2.843   2.873   3.171   3.227   3.292   3.408   3.431
  3.449   4.198   4.406   4.546   4.725   4.730   4.735   4.743
  4.768   4.780   4.815   4.832   4.930   4.975   6.296   6.309
 90.304  90.406
 --------------------------------------------------------------
 
          Ground-State Mulliken Net Atomic Charges

     Atom                 Charge (a.u.)    Spin (a.u.)
  --------------------------------------------------------
      1 Br                   -0.087671      -0.000000
      2 Br                   -0.157930       0.000000
      3 C                    -0.136410       0.000000
      4 C                    -0.224835      -0.000000
      5 C                    -0.324247      -0.000000
      6 H                     0.176282       0.000000
      7 H                     0.182209       0.000000
      8 H                     0.168892      -0.000000
      9 H                     0.135535       0.000000
     10 H                     0.146684      -0.000000
     11 H                     0.121491       0.000000
  --------------------------------------------------------
  Sum of atomic charges =     0.000000
  Sum of spin   charges =     0.000000

 -----------------------------------------------------------------
                    Cartesian Multipole Moments
 -----------------------------------------------------------------
    Charge (ESU x 10^10)
                -0.0000
    Dipole Moment (Debye)
         X      -2.5762      Y      -2.6545      Z       0.2423
       Tot       3.7070
    Quadrupole Moments (Debye-Ang)
        XX     -60.8925     XY       1.9591     YY     -56.4588
        XZ       1.0878     YZ      -0.4871     ZZ     -55.4092
    Octopole Moments (Debye-Ang^2)
       XXX     -75.8878    XXY     -16.6160    XYY     -21.8885
       YYY     -55.0508    XXZ      -0.6195    XYZ      -1.2631
       YYZ       3.1686    XZZ     -22.4776    YZZ     -19.2005
       ZZZ       5.5025
    Hexadecapole Moments (Debye-Ang^3)
      XXXX   -1027.8108   XXXY      74.5631   XXYY    -261.6043
      XYYY      52.3297   YYYY    -463.6636   XXXZ      31.3555
      XXYZ      -7.9494   XYYZ      12.9129   YYYZ      -5.6250
      XXZZ    -191.8678   XYZZ      20.0310   YYZZ    -102.5537
      XZZZ      41.7194   YZZZ     -15.8135   ZZZZ    -104.9575
 -----------------------------------------------------------------
 Calculating analytic gradient of the SCF energy
 Gradient of SCF Energy
            1           2           3           4           5           6
    1  -0.0000358   0.0325307   0.0000216  -0.0325582  -0.0000291  -0.0000723
    2   0.0000121   0.0115244  -0.0000238  -0.0114683  -0.0000069   0.0000431
    3   0.0000754  -0.0116561   0.0000183   0.0116226   0.0000395  -0.0000056
            7           8           9          10          11
    1   0.0000194   0.0000691   0.0000209   0.0000034   0.0000303
    2  -0.0000225   0.0000413  -0.0000397  -0.0000362  -0.0000235
    3  -0.0000318  -0.0001259   0.0000223   0.0000319   0.0000095
 Max gradient component =       3.256E-02
 RMS gradient           =       8.967E-03
 Gradient time:  CPU 17.02 s  wall 1.49 s
 Geometry Optimization Parameters
   NAtoms,    NIC,     NZ,  NCons,   NDum,   NFix, NCnnct, MaxDiis
       11      68       0       1       0       0       0       0

 Cartesian Hessian Update
 Hessian Updated using BFGS Update


** CONSTRAINED OPTIMIZATION IN DELOCALIZED INTERNAL COORDINATES **
   Searching for a Minimum

   Optimization Cycle:   6

                       Coordinates (Angstroms)
     ATOM                X               Y               Z
      1  Br       -0.6855995247    1.7889859376    0.1843333972
      2  Br        2.5511937091   -0.1079436239   -0.2980213187
      3  C        -0.5468908338   -0.1263071886   -0.3247620700
      4  C         0.5844217994   -0.7999947755    0.4040278771
      5  C        -1.8699647794   -0.8320595875   -0.0140390397
      6  H        -0.3595764186   -0.1066607279   -1.3980298015
      7  H         0.6351519647   -0.5967102915    1.4701057781
      8  H         0.6548406291   -1.8619177951    0.1746988325
      9  H        -2.0795401956   -0.8305444756    1.0590031792
     10  H        -2.6957842345   -0.3345726511   -0.5266571463
     11  H        -1.8234521156   -1.8712728209   -0.3598616879
   Point Group: c1    Number of degrees of freedom:    27


   Energy is  -5265.704246588

              Constraints and their Current Values
                                        Value     Constraint
   Distance(Angs):        2   4             2.200000     2.200000
 Hessian Updated using BFGS Update

 26 Hessian modes will be used to form the next step
  Hessian Eigenvalues:
     0.017541    0.045005    0.055998    0.072961    0.081743    0.082162
     0.083053    0.084283    0.111537    0.154338    0.159248    0.159890
     0.160350    0.163823    0.167243    0.179315    0.216994    0.246729
     0.296832    0.306031    0.341079    0.344339    0.346454    0.348549
     0.349629    0.351254

 Minimum Search - Taking Simple RFO Step
 Searching for Lamda that Minimizes Along All modes
 Value Taken    Lamda =   0.00000000
 Step Taken.  Stepsize is  0.003826

                             Maximum     Tolerance    Cnvgd?
         Gradient           0.000055      0.000300     YES
         Displacement       0.002387      0.001200      NO
         Energy change     -0.000001      0.000001     YES


                       Distance Matrix (Angstroms)
             Br(  1)   Br(  2)   C (  3)   C (  4)   C (  5)   H (  6)
   Br(  2)  3.782570
   C (  3)  1.986647  3.098254
   C (  4)  2.892065  2.200000  1.504945
   C (  5)  2.883046  4.489057  1.531391  2.489944
   H (  6)  2.490711  3.111688  1.089668  2.149246  2.173225
   H (  7)  3.014820  2.652618  2.200012  1.086471  2.921247  3.075034
   H (  8)  3.889212  2.626032  2.169323  1.088683  2.733290  2.565822
   H (  9)  3.093551  4.879279  2.181690  2.743469  1.093318  3.085335
   H ( 10)  3.009294  5.256844  2.168382  3.441300  1.091901  2.503817
   H ( 11)  3.871479  4.717063  2.162347  2.743906  1.096230  2.516859
             H (  7)   H (  8)   H (  9)   H ( 10)
   H (  8)  1.810861
   H (  9)  2.755583  3.053287
   H ( 10)  3.892418  3.748516  1.772022
   H ( 11)  3.319341  2.535306  1.778166  1.774889
 
 Final energy is   -5265.70424658836     


 ******************************
 **  OPTIMIZATION CONVERGED  **
 ******************************

                       Coordinates (Angstroms)
     ATOM                X               Y               Z
      1  Br       -0.6855995247    1.7889859376    0.1843333972
      2  Br        2.5511937091   -0.1079436239   -0.2980213187
      3  C        -0.5468908338   -0.1263071886   -0.3247620700
      4  C         0.5844217994   -0.7999947755    0.4040278771
      5  C        -1.8699647794   -0.8320595875   -0.0140390397
      6  H        -0.3595764186   -0.1066607279   -1.3980298015
      7  H         0.6351519647   -0.5967102915    1.4701057781
      8  H         0.6548406291   -1.8619177951    0.1746988325
      9  H        -2.0795401956   -0.8305444756    1.0590031792
     10  H        -2.6957842345   -0.3345726511   -0.5266571463
     11  H        -1.8234521156   -1.8712728209   -0.3598616879

Z-matrix Print:
$molecule
0 1
Br
C  1 1.986647
H  2 1.089668 1 104.301345
C  2 1.504945 1 111.097789 3 119.468235 0
H  4 1.086471 2 115.246691 1 46.384327 0
H  4 1.088683 2 112.535806 1 177.526814 0
C  2 1.531391 1 109.389378 3 -118.680921 0
H  7 1.091901 2 110.377269 1 56.554674 0
H  7 1.093318 2 111.353002 1 -63.855996 0
H  7 1.096230 2 109.646762 1 175.923745 0
Br 4 2.200000 2 112.128555 1 -70.064970 0
$end

PES scan, value:    2.2000 energy: -5265.7042465884
------- Summary of potential scan: ------ 
    2.2000     -5265.7042465884
----------------------------------------- 
Archival summary:
1\1\hpc0242\JobtypUnspecified\ProcedureUnspecified\6-31G**\r236\knomura\WedMar1322:43:502019WedMar1322:43:502019\0\\#,JobtypUnspecified,ProcedureUnspecified,6-31G**,\\0,1\Br\C,1,1.98665\H,2,1.08967,1,104.301\C,2,1.50494,1,111.098,3,119.468,0\H,4,1.08647,2,115.247,1,46.3843,0\H,4,1.08868,2,112.536,1,177.527,0\C,2,1.53139,1,109.389,3,-118.681,0\H,7,1.0919,2,110.377,1,56.5547,0\H,7,1.09332,2,111.353,1,-63.856,0\H,7,1.09623,2,109.647,1,175.924,0\Br,4,2.2,2,112.129,1,-70.065,0\\\@

 Total job time:  33.53s(wall), 386.73s(cpu) 
 Wed Mar 13 22:43:51 2019

        *************************************************************
        *                                                           *
        *  Thank you very much for using Q-Chem.  Have a nice day.  *
        *                                                           *
        *************************************************************


