
Running Job 1 of 1 halogens/Bromine/03/Br_2_4.xyz.data/inputs/bond_triplet_4.3.in
qchem halogens/Bromine/03/Br_2_4.xyz.data/inputs/bond_triplet_4.3.in_11133.0 /staging/scratch/2868759/qchem11133/ 1
/usr/usc/qchem/5.1.1/exe/qcprog.exe_s halogens/Bromine/03/Br_2_4.xyz.data/inputs/bond_triplet_4.3.in_11133.0 /staging/scratch/2868759/qchem11133/
Check license passed

                  Welcome to Q-Chem
     A Quantum Leap Into The Future Of Chemistry


 Q-Chem 5.1, Q-Chem, Inc., Pleasanton, CA (2018)

 Yihan Shao,  Zhengting Gan,  E. Epifanovsky,  A. T. B. Gilbert,  M. Wormit,  
 J. Kussmann,  A. W. Lange,  A. Behn,  Jia Deng,  Xintian Feng,  D. Ghosh,  
 M. Goldey,  P. R. Horn,  L. D. Jacobson,  I. Kaliman,  T. Kus,  A. Landau,  
 Jie Liu,  E. I. Proynov,  R. M. Richard,  R. P. Steele,  E. J. Sundstrom,  
 H. L. Woodcock III,  P. M. Zimmerman,  D. Zuev,  B. Albrecht,  E. Alguire,  
 S. A. Baeppler,  D. Barton,  Z. Benda,  Y. A. Bernard,  E. J. Berquist,  
 K. B. Bravaya,  H. Burton,  D. Casanova,  Chun-Min Chang,  Yunqing Chen,  
 A. Chien,  K. D. Closser,  M. P. Coons,  S. Coriani,  S. Dasgupta,  
 A. L. Dempwolff,  M. Diedenhofen,  Hainam Do,  R. G. Edgar,  Po-Tung Fang,  
 S. Faraji,  S. Fatehi,  Qingguo Feng,  K. D. Fenk,  J. Fosso-Tande,  
 Qinghui Ge,  A. Ghysels,  G. Gidofalvi,  J. Gomes,  J. Gonthier,  A. Gunina,  
 D. Hait,  M. W. D. Hanson-Heine,  P. H. P. Harbach,  A. W. Hauser,  
 J. E. Herr,  E. G. Hohenstein,  Z. C. Holden,  Kerwin Hui,  B. C. Huynh,  
 T.-C. Jagau,  Hyunjun Ji,  B. Kaduk,  K. Khistyaev,  Jaehoon Kim,  
 P. Klunzinger,  K. Koh,  D. Kosenkov,  L. Koulias,  T. Kowalczyk,  
 C. M. Krauter,  A. Kunitsa,  Ka Un Lao,  A. Laurent,  K. V. Lawler,  
 Joonho Lee,  D. Lefrancois,  S. Lehtola,  D. S. Levine,  Yi-Pei Li,  
 You-Sheng Lin,  Fenglai Liu,  E. Livshits,  A. Luenser,  P. Manohar,  
 E. Mansoor,  S. F. Manzer,  Shan-Ping Mao,  Yuezhi Mao,  N. Mardirossian,  
 A. V. Marenich,  T. Markovich,  L. A. Martinez-Martinez,  S. A. Maurer,  
 N. J. Mayhall,  S. C. McKenzie,  J.-M. Mewes,  A. F. Morrison,  
 J. W. Mullinax,  K. Nanda,  T. S. Nguyen-Beck,  R. Olivares-Amaya,  
 J. A. Parkhill,  T. M. Perrine,  F. Plasser,  P. Pokhilko,  S. Prager,  
 A. Prociuk,  E. Ramos,  D. R. Rehn,  F. Rob,  M. Schneider,  N. Sergueev,  
 S. M. Sharada,  S. Sharma,  D. W. Small,  T. Stauch,  T. Stein,  
 Yu-Chuan Su,  A. J. W. Thom,  A. Tkatchenko,  T. Tsuchimochi,  N. M. Tubman,  
 L. Vogt,  M. L. Vidal,  O. Vydrov,  M. A. Watson,  J. Wenzel,  
 M. de Wergifosse,  T. A. Wesolowski,  A. White,  J. Witte,  A. Yamada,  
 Jun Yang,  K. Yao,  S. Yeganeh,  S. R. Yost,  Zhi-Qiang You,  A. Zech,  
 Igor Ying Zhang,  Xing Zhang,  Yan Zhao,  Ying Zhu,  B. R. Brooks,  
 G. K. L. Chan,  C. J. Cramer,  M. S. Gordon,  W. J. Hehre,  A. Klamt,  
 M. W. Schmidt,  C. D. Sherrill,  D. G. Truhlar,  A. Aspuru-Guzik,  R. Baer,  
 A. T. Bell,  N. A. Besley,  Jeng-Da Chai,  A. E. DePrince, III,  
 R. A. DiStasio Jr.,  A. Dreuw,  B. D. Dunietz,  T. R. Furlani,  
 Chao-Ping Hsu,  Yousung Jung,  Jing Kong,  D. S. Lambrecht,  WanZhen Liang,  
 C. Ochsenfeld,  V. A. Rassolov,  L. V. Slipchenko,  J. E. Subotnik,  
 T. Van Voorhis,  J. M. Herbert,  A. I. Krylov,  P. M. W. Gill,  M. Head-Gordon

 Contributors to earlier versions of Q-Chem not listed above: 
 R. D. Adamson,  B. Austin,  J. Baker,  G. J. O. Beran,  K. Brandhorst,  
 S. T. Brown,  E. F. C. Byrd,  A. K. Chakraborty,  C.-L. Cheng,  
 Siu Hung Chien,  D. M. Chipman,  D. L. Crittenden,  H. Dachsel,  
 R. J. Doerksen,  A. D. Dutoi,  L. Fusti-Molnar,  W. A. Goddard III,  
 A. Golubeva-Zadorozhnaya,  S. R. Gwaltney,  G. Hawkins,  A. Heyden,  
 S. Hirata,  G. Kedziora,  F. J. Keil,  C. Kelley,  Jihan Kim,  R. A. King,  
 R. Z. Khaliullin,  P. P. Korambath,  W. Kurlancheek,  A. M. Lee,  M. S. Lee,  
 S. V. Levchenko,  Ching Yeh Lin,  D. Liotard,  R. C. Lochan,  I. Lotan,  
 P. E. Maslen,  N. Nair,  D. P. O'Neill,  D. Neuhauser,  E. Neuscamman,  
 C. M. Oana,  R. Olson,  B. Peters,  R. Peverati,  P. A. Pieniazek,  
 Y. M. Rhee,  J. Ritchie,  M. A. Rohrdanz,  E. Rosta,  N. J. Russ,  
 H. F. Schaefer III,  N. E. Schultz,  N. Shenvi,  A. C. Simmonett,  A. Sodt,  
 D. Stuck,  K. S. Thanthiriwatte,  V. Vanovschi,  Tao Wang,  A. Warshel,  
 C. F. Williams,  Q. Wu,  X. Xu,  W. Zhang

 Please cite Q-Chem as follows:
 Y. Shao et al., Mol. Phys. 113, 184-215 (2015)
 DOI: 10.1080/00268976.2014.952696

 Q-Chem 5.1.1 for Intel X86 EM64T Linux

 Parts of Q-Chem use Armadillo 8.300.2 (Tropical Shenanigans).
 http://arma.sourceforge.net/

 Q-Chem begins on Thu Mar 14 00:59:18 2019  

Host: 
0

     Scratch files written to /staging/scratch/2868759/qchem11133//
 Aug318 |scratch|qcdevops|jenkins|workspace|build_RNUM 6013   
Processing $rem in /usr/usc/qchem/5.1.1/config/preferences.
 MEM_TOTAL  2000 
Input Ideriv = 2
Curr. Ideriv = -1
Max.  Ideriv = 2

Checking the input file for inconsistencies... 	...done.

--------------------------------------------------------------
User input:
--------------------------------------------------------------

$comment
potential surface scanner
$end

$rem
JOBTYPE  PES_SCAN
UNRESTRICTED TRUE
SYM_IGNORE  TRUE
GEOM_OPT_MAX_CYCLES 400
SCF_MAX_CYCLES 400
METHOD   B3LYP
BASIS   6-31G**
PDB_PRINT 2
SCF_CONVERGENCE 6
THRESH 14
SCF_PRINT 1
$end
$molecule
0 3
Br 1.998647 0.209174 0.317443
Br 0.665680 2.542339 -0.695008
C -0.672350 -1.335220 -0.187449
C 0.014702 -1.471004 0.987047
C -1.731350 -0.326166 -0.439875
H -0.393746 -1.979547 -1.020060
H -0.257555 -0.891535 1.863157
H 0.736230 -2.268349 1.126791
H -2.065869 0.162164 0.477997
H -1.339918 0.458242 -1.109589
H -2.589677 -0.779100 -0.949653
$end
$scan
stre 2 4 4.300000 4.301000 0.100000
$end
--------------------------------------------------------------
 ----------------------------------------------------------------
             Standard Nuclear Orientation (Angstroms)
    I     Atom           X                Y                Z
 ----------------------------------------------------------------
    1      Br      1.9986470000     0.2091740000     0.3174430000
    2      Br      0.6656800000     2.5423390000    -0.6950080000
    3      C      -0.6723500000    -1.3352200000    -0.1874490000
    4      C       0.0147020000    -1.4710040000     0.9870470000
    5      C      -1.7313500000    -0.3261660000    -0.4398750000
    6      H      -0.3937460000    -1.9795470000    -1.0200600000
    7      H      -0.2575550000    -0.8915350000     1.8631570000
    8      H       0.7362300000    -2.2683490000     1.1267910000
    9      H      -2.0658690000     0.1621640000     0.4779970000
   10      H      -1.3399180000     0.4582420000    -1.1095890000
   11      H      -2.5896770000    -0.7791000000    -0.9496530000
 ----------------------------------------------------------------
 Nuclear Repulsion Energy =   542.1578459881 hartrees
 There are       48 alpha and       46 beta electrons
 Requested basis set is 6-31G(d,p)
 There are 46 shells and 145 basis functions

 Total QAlloc Memory Limit   2000 MB
 Mega-Array Size       188 MB
 MEM_STATIC part       192 MB
A total of 1 constraints
  
            1
    1   1.0100000
    2   2.0100000
    3   4.0100000
    4   4.3000000
    5   4.3010000
    6   0.1000000
    7   0.0000000
    8   0.0000000
    9   0.0000000
   10   0.0000000

                       Distance Matrix (Angstroms)
             Br(  1)   Br(  2)   C (  3)   C (  4)   C (  5)   H (  6)
   Br(  2)  2.871501
   C (  3)  3.126387  4.133207
   C (  4)  2.684661  4.400000  1.367450
   C (  5)  3.843566  3.746888  1.484382  2.528924
   H (  6)  3.507557  4.655695  1.089045  2.110432  2.204420
   H (  7)  2.948091  4.380418  2.138667  1.085116  2.792073  3.084681
   H (  8)  2.896008  5.144575  2.140573  1.084385  3.509340  2.443199
   H (  9)  4.067957  3.808219  2.151017  2.693538  1.092180  3.102756
   H ( 10)  3.639295  2.921945  2.124263  3.154817  1.103192  2.616500
   H ( 11)  4.861577  4.657698  2.136906  3.318483  1.096243  2.503626
             H (  7)   H (  8)   H (  9)   H ( 10)
   H (  8)  1.850800
   H (  9)  2.509771  3.765645
   H ( 10)  3.439568  4.092198  1.770620
   H ( 11)  3.655590  4.194179  1.788445  1.765925
 
 A cutoff of  1.0D-14 yielded    950 shell pairs
 There are      9485 function pairs
 
 -------------------------------------------------------
 OpenMP Integral Computing Module                       
 Release: version 1.0, May 2013, Q-Chem Inc. Pittsburgh 
 -------------------------------------------------------
 Integral Job Info:
 Integral job number is                      11
 Integral operator is                         1
 short-range coefficients                     0
 long-range coefficients              100000000
 Omega coefficients                           0
 if combine SR and LR in K                    0
 Integral screening is                        0
 Integral computing path is                   2
 max size of driver memory is            800000
 size of driver memory is                593474
 size of scratch memory is             15267112
 max col of scratch BK array               1296
 max len of scratch array in speh3          155
 max len of scratch index in speh4           18
 max int batch size is                      520
 min int batch size is                       52
 fixed nKL is                                52
 max L of basis functions is                  2
 order of int derivative is                   0
 number of shells is                         46
 number of basis is                         145
 number of cartesian basis is               145
 number of contracted shell pairs           950
 number of primitive shell pairs           3998
 maxK2 (contraction) of shell pair           36
 max number of K2 of shell pair               1
 max number of CS2 of shell pair             68
 max number of PS2 of shell pair            408
 mem total for path MDJ                  530316
 -------------------------------------------------------
 Smallest overlap matrix eigenvalue = 7.23E-04

 Scale SEOQF with 1.000000e-01/1.000000e-01/1.000000e-01

 Standard Electronic Orientation quadrupole field applied
 Nucleus-field energy     =     0.0000000217 hartrees
 Guess from superposition of atomic densities
 Warning:  Energy on first SCF cycle will be non-variational
 SAD guess density has 93.945746 electrons

 -----------------------------------------------------------------------
  General SCF calculation program by
  Eric Jon Sundstrom, Paul Horn, Yuezhi Mao, Dmitri Zuev, Alec White,
  David Stuck, Shaama M.S., Shane Yost, Joonho Lee, David Small,
  Daniel Levine, Susi Lehtola, Hugh Burton, Evgeny Epifanovsky
 -----------------------------------------------------------------------
 Exchange:     0.2000 Hartree-Fock + 0.0800 Slater + 0.7200 B88
 Correlation:  0.1900 VWN1RPA + 0.8100 LYP
 Using SG-1 standard quadrature grid
 using 12 threads for integral computing
 -------------------------------------------------------
 OpenMP Integral computing Module                
 Release: version 1.0, May 2013, Q-Chem Inc. Pittsburgh 
 -------------------------------------------------------
 -------------------------------------------------------
 OpenMP BLAS3 based DFT computing Module                
 Release: version 1.0, May 2013, Q-Chem Inc. Pittsburgh 
 -------------------------------------------------------
 A unrestricted SCF calculation will be
 performed using DIIS
 SCF converges when DIIS error is below 1.0e-06
 Alpha HF Exchange    Energy = -19.60237179827141
 Beta HF Exchange     Energy = -19.60237179827141
 DFT Correlation      Energy =  -5.19436673333310
 DFT Exchange         Energy = -155.85841966748333
 One-Electron (alpha) Energy = -4198.50591210710809
 One-Electron (beta)  Energy = -4198.50591210710809
 Total Coulomb        Energy = 2782.27052617062691
 ---------------------------------------
  Cycle       Energy         DIIS error
 ---------------------------------------
    1   -5272.8409820311      1.83e-01  
 Alpha HF Exchange    Energy = -19.84138681923250
 Beta HF Exchange     Energy = -19.61636477965361
 DFT Correlation      Energy =  -5.24237134531293
 DFT Exchange         Energy = -157.04945476233584
 One-Electron (alpha) Energy = -4236.58818104012062
 One-Electron (beta)  Energy = -4183.21408853689991
 Total Coulomb        Energy = 2813.90704476744031
    2   -5265.4869565063      1.04e-02  
 Alpha HF Exchange    Energy = -19.69318807908882
 Beta HF Exchange     Energy = -19.47962690908806
 DFT Correlation      Energy =  -5.20514743989201
 DFT Exchange         Energy = -155.93028776099445
 One-Electron (alpha) Energy = -4220.33170926530784
 One-Electron (beta)  Energy = -4163.81716661535302
 Total Coulomb        Energy = 2776.90409387156888
    3   -5265.3951861883      4.68e-03  
 Alpha HF Exchange    Energy = -19.80637528697834
 Beta HF Exchange     Energy = -19.59432616271937
 DFT Correlation      Energy =  -5.22720781828100
 DFT Exchange         Energy = -156.78406775852204
 One-Electron (alpha) Energy = -4233.60430923944205
 One-Electron (beta)  Energy = -4180.12820946054489
 Total Coulomb        Energy = 2807.61230956602503
    4   -5265.3743401506      4.51e-03  
 Alpha HF Exchange    Energy = -19.78271274119638
 Beta HF Exchange     Energy = -19.54877078780634
 DFT Correlation      Energy =  -5.22714392935421
 DFT Exchange         Energy = -156.56523044115170
 One-Electron (alpha) Energy = -4230.65686418677979
 One-Electron (beta)  Energy = -4174.09216131662288
 Total Coulomb        Energy = 2798.10377192191254
    5   -5265.6112654712      1.35e-03  
 Alpha HF Exchange    Energy = -19.76914853510686
 Beta HF Exchange     Energy = -19.53921541092114
 DFT Correlation      Energy =  -5.22264396734326
 DFT Exchange         Energy = -156.45849572597422
 One-Electron (alpha) Energy = -4229.29258683897933
 One-Electron (beta)  Energy = -4173.31435773692192
 Total Coulomb        Energy = 2795.81021867518712
    6   -5265.6283835302      6.01e-04  
 Alpha HF Exchange    Energy = -19.76944546704421
 Beta HF Exchange     Energy = -19.53885540134126
 DFT Correlation      Energy =  -5.22243015227611
 DFT Exchange         Energy = -156.45828440749776
 One-Electron (alpha) Energy = -4229.34835755516906
 One-Electron (beta)  Energy = -4173.29618562610540
 Total Coulomb        Energy = 2795.84101710852474
    7   -5265.6346954911      2.46e-04  
 Alpha HF Exchange    Energy = -19.77028234300080
 Beta HF Exchange     Energy = -19.53983187884729
 DFT Correlation      Energy =  -5.22276424974918
 DFT Exchange         Energy = -156.46473414528680
 One-Electron (alpha) Energy = -4229.36382867216253
 One-Electron (beta)  Energy = -4173.03553674211435
 Total Coulomb        Energy = 2795.60330664306275
    8   -5265.6358253783      8.89e-05  
 Alpha HF Exchange    Energy = -19.77056618786080
 Beta HF Exchange     Energy = -19.54082403208438
 DFT Correlation      Energy =  -5.22264801864865
 DFT Exchange         Energy = -156.46703496181988
 One-Electron (alpha) Energy = -4229.43646135254494
 One-Electron (beta)  Energy = -4173.17932146987641
 Total Coulomb        Energy = 2795.82289852035592
    9   -5265.6361114927      4.37e-05  
 Alpha HF Exchange    Energy = -19.77040907542185
 Beta HF Exchange     Energy = -19.54141033376759
 DFT Correlation      Energy =  -5.22256500238962
 DFT Exchange         Energy = -156.46693979521228
 One-Electron (alpha) Energy = -4229.41394866926112
 One-Electron (beta)  Energy = -4173.15067982998244
 Total Coulomb        Energy = 2795.77187444758601
   10   -5265.6362322486      2.06e-05  
 Alpha HF Exchange    Energy = -19.77037126788467
 Beta HF Exchange     Energy = -19.54167036144579
 DFT Correlation      Energy =  -5.22249534505701
 DFT Exchange         Energy = -156.46710155543164
 One-Electron (alpha) Energy = -4229.40831976309619
 One-Electron (beta)  Energy = -4173.15869117284365
 Total Coulomb        Energy = 2795.77455569313997
   11   -5265.6362477628      7.94e-06  
 Alpha HF Exchange    Energy = -19.77032265431347
 Beta HF Exchange     Energy = -19.54174133464834
 DFT Correlation      Energy =  -5.22248142225848
 DFT Exchange         Energy = -156.46702266447062
 One-Electron (alpha) Energy = -4229.39969260179896
 One-Electron (beta)  Energy = -4173.15468162606794
 Total Coulomb        Energy = 2795.76184682767371
   12   -5265.6362494661      4.20e-06  
 Alpha HF Exchange    Energy = -19.77031931403877
 Beta HF Exchange     Energy = -19.54177549715340
 DFT Correlation      Energy =  -5.22248214553125
 DFT Exchange         Energy = -156.46709429847061
 One-Electron (alpha) Energy = -4229.39809061342658
 One-Electron (beta)  Energy = -4173.15848848866426
 Total Coulomb        Energy = 2795.76415447384352
   13   -5265.6362498736      1.85e-06  
 Alpha HF Exchange    Energy = -19.77032093263511
 Beta HF Exchange     Energy = -19.54179267600158
 DFT Correlation      Energy =  -5.22248207903618
 DFT Exchange         Energy = -156.46715593967994
 One-Electron (alpha) Energy = -4229.39786331247979
 One-Electron (beta)  Energy = -4173.16146382242277
 Total Coulomb        Energy = 2795.76698275654644
   14   -5265.6362499959      6.46e-07  Convergence criterion met
 ---------------------------------------
 SCF time:   CPU 54.61s  wall 4.00s 
<S^2> =          2.006547061
 Alpha HF Exchange    Energy = -19.77032093263511
 Beta HF Exchange     Energy = -19.54179267600158
 DFT Correlation      Energy =  -5.22248207903618
 DFT Exchange         Energy = -156.46715593967994
 One-Electron (alpha) Energy = -4229.39786331247979
 One-Electron (beta)  Energy = -4173.16146382242277
 Total Coulomb        Energy = 2795.76698275654644
 Nuclear repulsion Energy = 542.15784600981522
 SCF   energy in the final basis set =    -5265.6362499959
 Total energy in the final basis set =    -5265.6362499959
 
 --------------------------------------------------------------
 
                    Orbital Energies (a.u.)
 --------------------------------------------------------------
 
 Alpha MOs
 -- Occupied --
*******-482.835 -62.529 -62.493 -56.350 -56.349 -56.346 -56.315
-56.311 -56.310 -10.260 -10.250 -10.212  -8.716  -8.680  -6.544
 -6.539  -6.531  -6.511  -6.498  -6.496  -2.638  -2.638  -2.632
 -2.629  -2.628  -2.603  -2.601  -2.599  -2.590  -2.590  -0.843
 -0.780  -0.736  -0.725  -0.605  -0.514  -0.468  -0.449  -0.410
 -0.395  -0.366  -0.355  -0.307  -0.286  -0.265  -0.261  -0.249
 -- Virtual --
 -0.043   0.077   0.101   0.118   0.144   0.150   0.154   0.213
  0.245   0.257   0.312   0.320   0.332   0.368   0.372   0.387
  0.397   0.449   0.484   0.497   0.517   0.538   0.545   0.567
  0.574   0.584   0.610   0.626   0.628   0.640   0.656   0.692
  0.721   0.750   0.793   0.820   0.853   0.856   0.877   0.900
  0.933   1.019   1.145   1.188   1.258   1.286   1.347   1.441
  1.585   1.740   1.764   1.782   1.826   1.840   1.886   1.966
  2.023   2.047   2.067   2.082   2.139   2.253   2.326   2.335
  2.432   2.452   2.490   2.592   2.614   2.659   2.782   2.824
  2.833   2.949   3.153   3.231   3.376   3.399   3.438   3.590
  4.163   4.362   4.535   4.653   4.686   4.688   4.721   4.739
  4.748   4.749   4.762   4.819   4.896   6.247   6.324  90.173
 90.409
 
 Beta MOs
 -- Occupied --
*******-482.833 -62.528 -62.492 -56.346 -56.346 -56.345 -56.311
-56.309 -56.309 -10.256 -10.248 -10.212  -8.712  -8.677  -6.537
 -6.534  -6.529  -6.503  -6.496  -6.494  -2.632  -2.632  -2.628
 -2.626  -2.625  -2.597  -2.596  -2.594  -2.588  -2.588  -0.831
 -0.746  -0.723  -0.696  -0.599  -0.511  -0.465  -0.439  -0.407
 -0.393  -0.326  -0.311  -0.294  -0.261  -0.254
 -- Virtual --
 -0.181  -0.153  -0.019   0.079   0.102   0.120   0.149   0.152
  0.156   0.221   0.248   0.268   0.316   0.325   0.345   0.378
  0.386   0.398   0.413   0.455   0.492   0.524   0.542   0.558
  0.561   0.585   0.590   0.600   0.621   0.638   0.642   0.663
  0.682   0.705   0.731   0.760   0.795   0.823   0.859   0.860
  0.898   0.905   0.941   1.025   1.149   1.193   1.267   1.291
  1.360   1.446   1.587   1.753   1.773   1.787   1.836   1.849
  1.896   1.973   2.026   2.050   2.069   2.086   2.146   2.255
  2.328   2.340   2.437   2.458   2.496   2.598   2.617   2.662
  2.784   2.826   2.836   2.951   3.155   3.233   3.378   3.402
  3.438   3.592   4.171   4.366   4.540   4.663   4.694   4.700
  4.731   4.742   4.753   4.758   4.772   4.829   4.908   6.261
  6.338  90.179  90.414
 --------------------------------------------------------------
 
          Ground-State Mulliken Net Atomic Charges

     Atom                 Charge (a.u.)    Spin (a.u.)
  --------------------------------------------------------
      1 Br                   -0.097146       0.854313
      2 Br                   -0.234162       0.745620
      3 C                     0.020608       0.321907
      4 C                    -0.230719       0.081202
      5 C                    -0.360873      -0.017102
      6 H                     0.134986      -0.014205
      7 H                     0.157665      -0.003272
      8 H                     0.156364      -0.002793
      9 H                     0.135567       0.000970
     10 H                     0.183310       0.020229
     11 H                     0.134400       0.013130
  --------------------------------------------------------
  Sum of atomic charges =     0.000000
  Sum of spin   charges =     2.000000

 -----------------------------------------------------------------
                    Cartesian Multipole Moments
 -----------------------------------------------------------------
    Charge (ESU x 10^10)
                 0.0000
    Dipole Moment (Debye)
         X      -2.7712      Y      -4.6030      Z       0.8149
       Tot       5.4343
    Quadrupole Moments (Debye-Ang)
        XX     -56.8636     XY      -2.4079     YY     -59.7525
        XZ       1.5220     YZ       0.9091     ZZ     -55.5437
    Octopole Moments (Debye-Ang^2)
       XXX    -104.9975    XXY     -33.7454    XYY     -36.5360
       YYY    -117.1654    XXZ       4.0393    XYZ      -0.7259
       YYZ       7.0428    XZZ     -36.6670    YZZ     -37.2914
       ZZZ      18.9556
    Hexadecapole Moments (Debye-Ang^3)
      XXXX    -706.3750   XXXY    -136.3372   XXYY    -284.4845
      XYYY    -165.9730   YYYY    -976.8235   XXXZ     -25.4877
      XXYZ      41.7899   XYYZ      -0.4698   YYYZ     114.8265
      XXZZ    -154.9246   XYZZ     -51.0363   YYZZ    -193.0104
      XZZZ     -30.1603   YZZZ     117.1661   ZZZZ    -198.5232
 -----------------------------------------------------------------
 Calculating analytic gradient of the SCF energy
 Gradient of SCF Energy
            1           2           3           4           5           6
    1   0.0000387   0.0000965  -0.0000339  -0.0001085  -0.0000269  -0.0000281
    2   0.0000263   0.0007030  -0.0000506  -0.0006968  -0.0000137  -0.0000476
    3  -0.0001161  -0.0005185   0.0000833   0.0003173   0.0000504   0.0000706
            7           8           9          10          11
    1   0.0000759   0.0000467   0.0000099  -0.0000383  -0.0000320
    2   0.0001070   0.0000850   0.0000132  -0.0000743  -0.0000514
    3   0.0000158   0.0000524   0.0000145  -0.0000462   0.0000765
 Max gradient component =       7.030E-04
 RMS gradient           =       2.101E-04
 Gradient time:  CPU 15.41 s  wall 1.35 s
 Geometry Optimization Parameters
   NAtoms,    NIC,     NZ,  NCons,   NDum,   NFix, NCnnct, MaxDiis
       11      94       0       1       0       0       0       0


** CONSTRAINED OPTIMIZATION IN DELOCALIZED INTERNAL COORDINATES **
   Searching for a Minimum

   Optimization Cycle:   1

                       Coordinates (Angstroms)
     ATOM                X               Y               Z
      1  Br        1.9986470000    0.2091740000    0.3174430000
      2  Br        0.6656800000    2.5423390000   -0.6950080000
      3  C        -0.6723500000   -1.3352200000   -0.1874490000
      4  C         0.0147020000   -1.4710040000    0.9870470000
      5  C        -1.7313500000   -0.3261660000   -0.4398750000
      6  H        -0.3937460000   -1.9795470000   -1.0200600000
      7  H        -0.2575550000   -0.8915350000    1.8631570000
      8  H         0.7362300000   -2.2683490000    1.1267910000
      9  H        -2.0658690000    0.1621640000    0.4779970000
     10  H        -1.3399180000    0.4582420000   -1.1095890000
     11  H        -2.5896770000   -0.7791000000   -0.9496530000
   Point Group: c1    Number of degrees of freedom:    27


   Energy is  -5265.636249996

              Constraints and their Current Values
                                        Value     Constraint
   Distance(Angs):        2   4             4.400000     4.300000

 Attempting to Generate Delocalized Internal Coordinates

   Using Lagrange Multiplier Algorithm


 28 Hessian modes will be used to form the next step
  Hessian Eigenvalues:
    -0.997238    0.023119    0.028622    0.045015    0.046901    0.050513
     0.054601    0.058640    0.060964    0.074324    0.076366    0.087506
     0.090430    0.094311    0.113576    0.126264    0.136855    0.159849
     0.161771    0.300341    0.309508    0.317325    0.333334    0.341011
     0.345619    0.349233    0.499893    1.002770

 Minimum Search - Taking P-RFO Step
 Searching for Lamda that Maximizes Along the Constraint modes Only
 Value Taken    Lamda =   0.01749575
 Searching for Lamda that Minimizes Along All other modes
 Value Taken    Lamda =  -0.01759959
 Step Taken.  Stepsize is  0.185716

                             Maximum     Tolerance    Cnvgd?
         Gradient            0.188973       0.000300      NO
         Displacement        0.185715       0.001200      NO
         Energy change     *********       0.000001      NO


 New Cartesian Coordinates Obtained by Inverse Iteration

 Displacement from previous Coordinates is:  0.188045
 ----------------------------------------------------------------
             Standard Nuclear Orientation (Angstroms)
    I     Atom           X                Y                Z
 ----------------------------------------------------------------
    1      Br      2.0326536237     0.2004578787     0.3295480047
    2      Br      0.6572356629     2.4850341983    -0.6538686790
    3      C      -0.6727556065    -1.3215264339    -0.1940239302
    4      C       0.0215085713    -1.4446359142     0.9765845071
    5      C      -1.7390641742    -0.3273042318    -0.4460999813
    6      H      -0.3982584052    -1.9741261255    -1.0215396748
    7      H      -0.2503803760    -0.8626223284     1.8516916627
    8      H       0.7392480424    -2.2542205904     1.1191951792
    9      H      -2.0680018194     0.1670734815     0.4705570000
   10      H      -1.3573464314     0.4404876707    -1.1165782491
   11      H      -2.6000450875    -0.7876196051    -0.9446648392
 ----------------------------------------------------------------
 Nuclear Repulsion Energy =   545.7940383432 hartrees
 There are       48 alpha and       46 beta electrons

                       Distance Matrix (Angstroms)
             Br(  1)   Br(  2)   C (  3)   C (  4)   C (  5)   H (  6)
   Br(  2)  2.842213
   C (  3)  3.147984  4.058354
   C (  4)  2.677628  4.301725  1.366559
   C (  5)  3.886646  3.700631  1.479538  2.524297
   H (  6)  3.530381  4.597103  1.089044  2.109281  2.200208
   H (  7)  2.942670  4.278832  2.138679  1.085576  2.789730  3.084277
   H (  8)  2.884768  5.060733  2.142012  1.091291  3.507875  2.440311
   H (  9)  4.103215  3.750226  2.145765  2.686955  1.092186  3.098246
   H ( 10)  3.693372  2.907372  2.103441  3.136282  1.088464  2.599854
   H ( 11)  4.905284  4.626522  2.136109  3.315933  1.096241  2.502313
             H (  7)   H (  8)   H (  9)   H ( 10)
   H (  8)  1.858080
   H (  9)  2.504307  3.763515
   H ( 10)  3.425507  4.081157  1.760337
   H ( 11)  3.653240  4.190622  1.788117  1.755592
 
 Applying Cartesian multipole field
    Component          Value
    ---------          -----
     (2,0,0)        1.00000E-11
     (0,2,0)        2.00000E-11
     (0,0,2)       -3.00000E-11
 Nucleus-field energy     =     0.0000000213 hartrees
 Requested basis set is 6-31G(d,p)
 There are 46 shells and 145 basis functions
 A cutoff of  1.0D-14 yielded    952 shell pairs
 There are      9525 function pairs
 Smallest overlap matrix eigenvalue = 7.22E-04
 Guess from superposition of atomic densities
 Warning:  Energy on first SCF cycle will be non-variational
 SAD guess density has 93.945746 electrons

 -----------------------------------------------------------------------
  General SCF calculation program by
  Eric Jon Sundstrom, Paul Horn, Yuezhi Mao, Dmitri Zuev, Alec White,
  David Stuck, Shaama M.S., Shane Yost, Joonho Lee, David Small,
  Daniel Levine, Susi Lehtola, Hugh Burton, Evgeny Epifanovsky
 -----------------------------------------------------------------------
 Exchange:     0.2000 Hartree-Fock + 0.0800 Slater + 0.7200 B88
 Correlation:  0.1900 VWN1RPA + 0.8100 LYP
 Using SG-1 standard quadrature grid
 using 12 threads for integral computing
 -------------------------------------------------------
 OpenMP Integral computing Module                
 Release: version 1.0, May 2013, Q-Chem Inc. Pittsburgh 
 -------------------------------------------------------
 -------------------------------------------------------
 OpenMP BLAS3 based DFT computing Module                
 Release: version 1.0, May 2013, Q-Chem Inc. Pittsburgh 
 -------------------------------------------------------
 A unrestricted SCF calculation will be
 performed using DIIS
 SCF converges when DIIS error is below 1.0e-06
 Alpha HF Exchange    Energy = -19.60425411290693
 Beta HF Exchange     Energy = -19.60425411290693
 DFT Correlation      Energy =  -5.19508078136685
 DFT Exchange         Energy = -155.86222787334503
 One-Electron (alpha) Energy = -4202.13193544954902
 One-Electron (beta)  Energy = -4202.13193544954902
 Total Coulomb        Energy = 2785.86832668768147
 ---------------------------------------
  Cycle       Energy         DIIS error
 ---------------------------------------
    1   -5272.8673227275      1.83e-01  
 Alpha HF Exchange    Energy = -19.84250806992576
 Beta HF Exchange     Energy = -19.61736408019227
 DFT Correlation      Energy =  -5.24320086622188
 DFT Exchange         Energy = -157.05706213786959
 One-Electron (alpha) Energy = -4240.33329739794044
 One-Electron (beta)  Energy = -4186.79189235330978
 Total Coulomb        Energy = 2817.60495727994612
    2   -5265.4863292610      1.04e-02  
 Alpha HF Exchange    Energy = -19.69394141639192
 Beta HF Exchange     Energy = -19.47975468861198
 DFT Correlation      Energy =  -5.20585279092010
 DFT Exchange         Energy = -155.93343130443816
 One-Electron (alpha) Energy = -4224.02023068067319
 One-Electron (beta)  Energy = -4167.33349420364084
 Total Coulomb        Energy = 2780.47120561463680
    3   -5265.4014611056      4.66e-03  
 Alpha HF Exchange    Energy = -19.80776982782254
 Beta HF Exchange     Energy = -19.59452342484323
 DFT Correlation      Energy =  -5.22825217375990
 DFT Exchange         Energy = -156.79137005162443
 One-Electron (alpha) Energy = -4237.37857131235069
 One-Electron (beta)  Energy = -4183.71112529036691
 Total Coulomb        Energy = 2811.32977816258381
    4   -5265.3877955537      4.44e-03  
 Alpha HF Exchange    Energy = -19.78329602620562
 Beta HF Exchange     Energy = -19.54938707691630
 DFT Correlation      Energy =  -5.22785725335845
 DFT Exchange         Energy = -156.56901218849163
 One-Electron (alpha) Energy = -4234.33007829476719
 One-Electron (beta)  Energy = -4177.58859088037752
 Total Coulomb        Energy = 2801.64212090581441
    5   -5265.6120624498      1.32e-03  
 Alpha HF Exchange    Energy = -19.77009233731821
 Beta HF Exchange     Energy = -19.54017788468683
 DFT Correlation      Energy =  -5.22340435006383
 DFT Exchange         Energy = -156.46515353742825
 One-Electron (alpha) Energy = -4233.00791543530704
 One-Electron (beta)  Energy = -4176.92271354443983
 Total Coulomb        Energy = 2799.50634598326815
    6   -5265.6290727415      5.70e-04  
 Alpha HF Exchange    Energy = -19.77033443013827
 Beta HF Exchange     Energy = -19.53978655056377
 DFT Correlation      Energy =  -5.22320621094293
 DFT Exchange         Energy = -156.46474255408657
 One-Electron (alpha) Energy = -4233.05015322445797
 One-Electron (beta)  Energy = -4176.85972062094515
 Total Coulomb        Energy = 2799.47920058570207
    7   -5265.6347046410      2.32e-04  
 Alpha HF Exchange    Energy = -19.77110873811381
 Beta HF Exchange     Energy = -19.54069854754562
 DFT Correlation      Energy =  -5.22351378429548
 DFT Exchange         Energy = -156.47070276109815
 One-Electron (alpha) Energy = -4233.06263379322354
 One-Electron (beta)  Energy = -4176.61962382984893
 Total Coulomb        Energy = 2799.25854257097353
    8   -5265.6357005187      8.76e-05  
 Alpha HF Exchange    Energy = -19.77139555632411
 Beta HF Exchange     Energy = -19.54163438911705
 DFT Correlation      Energy =  -5.22340585109486
 DFT Exchange         Energy = -156.47298405113526
 One-Electron (alpha) Energy = -4233.13376859275013
 One-Electron (beta)  Energy = -4176.76264821578297
 Total Coulomb        Energy = 2799.47583676473550
    9   -5265.6359615270      4.23e-05  
 Alpha HF Exchange    Energy = -19.77124215672232
 Beta HF Exchange     Energy = -19.54215754394397
 DFT Correlation      Energy =  -5.22332876026813
 DFT Exchange         Energy = -156.47282038057318
 One-Electron (alpha) Energy = -4233.11114517532133
 One-Electron (beta)  Energy = -4176.73441701021966
 Total Coulomb        Energy = 2799.42500369682602
   10   -5265.6360689657      1.99e-05  
 Alpha HF Exchange    Energy = -19.77120640183016
 Beta HF Exchange     Energy = -19.54239319755571
 DFT Correlation      Energy =  -5.22326238415869
 DFT Exchange         Energy = -156.47295351737412
 One-Electron (alpha) Energy = -4233.10524048881871
 One-Electron (beta)  Energy = -4176.74204199525502
 Total Coulomb        Energy = 2799.42697662191540
   11   -5265.6360829986      7.55e-06  
 Alpha HF Exchange    Energy = -19.77116087110085
 Beta HF Exchange     Energy = -19.54245761847141
 DFT Correlation      Energy =  -5.22324926480549
 DFT Exchange         Energy = -156.47287754501318
 One-Electron (alpha) Energy = -4233.09690930544275
 One-Electron (beta)  Energy = -4176.73829458451746
 Total Coulomb        Energy = 2799.41482630586825
   12   -5265.6360845190      4.05e-06  
 Alpha HF Exchange    Energy = -19.77115749612328
 Beta HF Exchange     Energy = -19.54248934956366
 DFT Correlation      Energy =  -5.22324966651469
 DFT Exchange         Energy = -156.47294297900564
 One-Electron (alpha) Energy = -4233.09521354658227
 One-Electron (beta)  Energy = -4176.74193982157067
 Total Coulomb        Energy = 2799.41686959407116
   13   -5265.6360849008      1.78e-06  
 Alpha HF Exchange    Energy = -19.77115921399007
 Beta HF Exchange     Energy = -19.54250503477046
 DFT Correlation      Energy =  -5.22324957629914
 DFT Exchange         Energy = -156.47300149024701
 One-Electron (alpha) Energy = -4233.09496739869428
 One-Electron (beta)  Energy = -4176.74477378114989
 Total Coulomb        Energy = 2799.41953311628004
   14   -5265.6360850144      6.19e-07  Convergence criterion met
 ---------------------------------------
 SCF time:   CPU 54.28s  wall 5.00s 
<S^2> =          2.006820643
 Alpha HF Exchange    Energy = -19.77115921399007
 Beta HF Exchange     Energy = -19.54250503477046
 DFT Correlation      Energy =  -5.22324957629914
 DFT Exchange         Energy = -156.47300149024701
 One-Electron (alpha) Energy = -4233.09496739869428
 One-Electron (beta)  Energy = -4176.74477378114989
 Total Coulomb        Energy = 2799.41953311628004
 Nuclear repulsion Energy = 545.79403836447625
 SCF   energy in the final basis set =    -5265.6360850144
 Total energy in the final basis set =    -5265.6360850144
 
 --------------------------------------------------------------
 
                    Orbital Energies (a.u.)
 --------------------------------------------------------------
 
 Alpha MOs
 -- Occupied --
*******-482.834 -62.529 -62.492 -56.351 -56.349 -56.346 -56.314
-56.310 -56.309 -10.259 -10.250 -10.211  -8.717  -8.679  -6.544
 -6.540  -6.532  -6.510  -6.498  -6.495  -2.639  -2.638  -2.632
 -2.629  -2.628  -2.602  -2.600  -2.598  -2.589  -2.589  -0.843
 -0.781  -0.736  -0.724  -0.604  -0.514  -0.468  -0.451  -0.410
 -0.394  -0.366  -0.357  -0.308  -0.286  -0.265  -0.261  -0.246
 -- Virtual --
 -0.042   0.077   0.101   0.119   0.146   0.151   0.155   0.213
  0.245   0.258   0.313   0.321   0.331   0.368   0.372   0.387
  0.394   0.450   0.485   0.498   0.518   0.538   0.546   0.565
  0.573   0.582   0.608   0.627   0.630   0.641   0.660   0.694
  0.728   0.751   0.792   0.820   0.854   0.856   0.884   0.901
  0.936   1.019   1.148   1.191   1.257   1.288   1.348   1.445
  1.586   1.737   1.765   1.787   1.828   1.841   1.888   1.968
  2.025   2.051   2.074   2.083   2.142   2.253   2.327   2.335
  2.435   2.450   2.490   2.589   2.619   2.663   2.784   2.833
  2.842   2.949   3.163   3.228   3.376   3.413   3.441   3.586
  4.163   4.364   4.537   4.650   4.684   4.686   4.719   4.740
  4.750   4.752   4.764   4.821   4.907   6.245   6.328  90.158
 90.428
 
 Beta MOs
 -- Occupied --
*******-482.832 -62.528 -62.491 -56.347 -56.346 -56.345 -56.310
-56.309 -56.308 -10.255 -10.248 -10.211  -8.713  -8.676  -6.537
 -6.534  -6.530  -6.502  -6.495  -6.494  -2.632  -2.632  -2.628
 -2.626  -2.625  -2.597  -2.595  -2.594  -2.588  -2.588  -0.832
 -0.747  -0.724  -0.696  -0.598  -0.510  -0.465  -0.441  -0.407
 -0.393  -0.326  -0.314  -0.295  -0.261  -0.253
 -- Virtual --
 -0.181  -0.150  -0.018   0.079   0.102   0.120   0.150   0.153
  0.157   0.221   0.249   0.269   0.317   0.327   0.344   0.379
  0.386   0.398   0.410   0.455   0.493   0.527   0.542   0.558
  0.562   0.583   0.589   0.598   0.619   0.639   0.643   0.665
  0.686   0.707   0.738   0.760   0.795   0.823   0.858   0.860
  0.898   0.912   0.945   1.025   1.153   1.196   1.266   1.293
  1.361   1.450   1.588   1.750   1.774   1.792   1.836   1.852
  1.897   1.975   2.028   2.053   2.077   2.086   2.149   2.256
  2.328   2.340   2.440   2.456   2.496   2.596   2.623   2.666
  2.786   2.836   2.845   2.950   3.165   3.230   3.378   3.416
  3.443   3.588   4.172   4.368   4.543   4.660   4.692   4.698
  4.729   4.743   4.755   4.762   4.774   4.831   4.919   6.259
  6.342  90.164  90.434
 --------------------------------------------------------------
 
          Ground-State Mulliken Net Atomic Charges

     Atom                 Charge (a.u.)    Spin (a.u.)
  --------------------------------------------------------
      1 Br                   -0.092336       0.857713
      2 Br                   -0.238496       0.741107
      3 C                     0.022686       0.328349
      4 C                    -0.233284       0.073952
      5 C                    -0.360255      -0.016738
      6 H                     0.134268      -0.014487
      7 H                     0.157795      -0.003021
      8 H                     0.155990      -0.002267
      9 H                     0.135500       0.000980
     10 H                     0.184063       0.020298
     11 H                     0.134070       0.014113
  --------------------------------------------------------
  Sum of atomic charges =    -0.000000
  Sum of spin   charges =     2.000000

 -----------------------------------------------------------------
                    Cartesian Multipole Moments
 -----------------------------------------------------------------
    Charge (ESU x 10^10)
                -0.0000
    Dipole Moment (Debye)
         X      -2.7714      Y      -4.5565      Z       0.7645
       Tot       5.3876
    Quadrupole Moments (Debye-Ang)
        XX     -56.7739     XY      -2.3440     YY     -59.7075
        XZ       1.5101     YZ       0.8880     ZZ     -55.5237
    Octopole Moments (Debye-Ang^2)
       XXX    -106.3779    XXY     -32.5624    XYY     -36.9151
       YYY    -113.7437    XXZ       3.0470    XYZ      -0.7969
       YYZ       5.9965    XZZ     -37.1086    YZZ     -36.0946
       ZZZ      16.1389
    Hexadecapole Moments (Debye-Ang^3)
      XXXX    -720.4856   XXXY    -131.6786   XXYY    -280.3028
      XYYY    -161.3135   YYYY    -940.8930   XXXZ     -29.7875
      XXYZ      38.6614   XYYZ      -2.1277   YYYZ     106.3397
      XXZZ    -156.4174   XYZZ     -49.5211   YYZZ    -186.1695
      XZZZ     -34.5758   YZZZ     108.2693   ZZZZ    -192.4949
 -----------------------------------------------------------------
 Calculating analytic gradient of the SCF energy
 Gradient of SCF Energy
            1           2           3           4           5           6
    1  -0.0002287   0.0003491  -0.0005089  -0.0034004   0.0040432  -0.0002734
    2   0.0012155  -0.0013263   0.0027773   0.0036760   0.0040986  -0.0001538
    3  -0.0005862   0.0002269   0.0001104  -0.0013461  -0.0051912   0.0001656
            7           8           9          10          11
    1  -0.0002746   0.0028089   0.0001492  -0.0025190  -0.0001453
    2   0.0002174  -0.0037287  -0.0001392  -0.0069002   0.0002635
    3   0.0003426   0.0003418   0.0001204   0.0057071   0.0001086
 Max gradient component =       6.900E-03
 RMS gradient           =       2.509E-03
 Gradient time:  CPU 15.49 s  wall 1.36 s
 Geometry Optimization Parameters
   NAtoms,    NIC,     NZ,  NCons,   NDum,   NFix, NCnnct, MaxDiis
       11      94       0       1       0       0       0       0

 Cartesian Hessian Update
 Hessian Updated using BFGS Update


** CONSTRAINED OPTIMIZATION IN DELOCALIZED INTERNAL COORDINATES **
   Searching for a Minimum

   Optimization Cycle:   2

                       Coordinates (Angstroms)
     ATOM                X               Y               Z
      1  Br        2.0326536237    0.2004578787    0.3295480047
      2  Br        0.6572356629    2.4850341983   -0.6538686790
      3  C        -0.6727556065   -1.3215264339   -0.1940239302
      4  C         0.0215085713   -1.4446359142    0.9765845071
      5  C        -1.7390641742   -0.3273042318   -0.4460999813
      6  H        -0.3982584052   -1.9741261255   -1.0215396748
      7  H        -0.2503803760   -0.8626223284    1.8516916627
      8  H         0.7392480424   -2.2542205904    1.1191951792
      9  H        -2.0680018194    0.1670734815    0.4705570000
     10  H        -1.3573464314    0.4404876707   -1.1165782491
     11  H        -2.6000450875   -0.7876196051   -0.9446648392
   Point Group: c1    Number of degrees of freedom:    27


   Energy is  -5265.636085014

              Constraints and their Current Values
                                        Value     Constraint
   Distance(Angs):        2   4             4.301725     4.300000
 Hessian Updated using BFGS Update

   Using Lagrange Multiplier Algorithm


 28 Hessian modes will be used to form the next step
  Hessian Eigenvalues:
    -0.991834    0.023235    0.029037    0.045053    0.046945    0.050796
     0.054623    0.058728    0.061205    0.074343    0.076398    0.087596
     0.090488    0.094322    0.114344    0.126341    0.136863    0.159851
     0.161772    0.303297    0.317301    0.333016    0.341009    0.345618
     0.349229    0.457593    0.503086    1.011893

 Minimum Search - Taking P-RFO Step
 Searching for Lamda that Maximizes Along the Constraint modes Only
 Value Taken    Lamda =   0.00001399
 Searching for Lamda that Minimizes Along All other modes
 Value Taken    Lamda =  -0.00023696
 Step Taken.  Stepsize is  0.030347

                             Maximum     Tolerance    Cnvgd?
         Gradient            0.004037       0.000300      NO
         Displacement        0.017596       0.001200      NO
         Energy change      0.000165       0.000001      NO


 New Cartesian Coordinates Obtained by Inverse Iteration

 Displacement from previous Coordinates is:  0.023636
 ----------------------------------------------------------------
             Standard Nuclear Orientation (Angstroms)
    I     Atom           X                Y                Z
 ----------------------------------------------------------------
    1      Br      2.0336041929     0.1960686849     0.3306699446
    2      Br      0.6548419154     2.4845710006    -0.6516814653
    3      C      -0.6722632899    -1.3235384521    -0.1937152673
    4      C       0.0236616349    -1.4447531722     0.9768223806
    5      C      -1.7403914344    -0.3272844744    -0.4460139685
    6      H      -0.3975360587    -1.9763854829    -1.0210571051
    7      H      -0.2475702731    -0.8621996961     1.8512754230
    8      H       0.7385465386    -2.2512551934     1.1198196612
    9      H      -2.0694007604     0.1675974400     0.4703774499
   10      H      -1.3576611610     0.4476229093    -1.1221308647
   11      H      -2.6010373043    -0.7894455637    -0.9435651885
 ----------------------------------------------------------------
 Nuclear Repulsion Energy =   545.4741205464 hartrees
 There are       48 alpha and       46 beta electrons

                       Distance Matrix (Angstroms)
             Br(  1)   Br(  2)   C (  3)   C (  4)   C (  5)   H (  6)
   Br(  2)  2.846619
   C (  3)  3.147365  4.058650
   C (  4)  2.673888  4.300000  1.367173
   C (  5)  3.888467  3.699456  1.482253  2.526872
   H (  6)  3.529471  4.598268  1.089118  2.109873  2.203059
   H (  7)  2.938695  4.275513  2.138968  1.085174  2.791449  3.084509
   H (  8)  2.879119  5.057002  2.139256  1.087177  3.506941  2.439178
   H (  9)  4.105482  3.748184  2.148604  2.690181  1.092213  3.100995
   H ( 10)  3.697917  2.901835  2.113939  3.145591  1.097314  2.609190
   H ( 11)  4.906609  4.626568  2.137218  3.317584  1.096294  2.504047
             H (  7)   H (  8)   H (  9)   H ( 10)
   H (  8)  1.853896
   H (  9)  2.507275  3.762604
   H ( 10)  3.433523  4.087098  1.766655
   H ( 11)  3.654481  4.188946  1.788240  1.763011
 
 Applying Cartesian multipole field
    Component          Value
    ---------          -----
     (2,0,0)        1.00000E-11
     (0,2,0)        2.00000E-11
     (0,0,2)       -3.00000E-11
 Nucleus-field energy     =     0.0000000213 hartrees
 Requested basis set is 6-31G(d,p)
 There are 46 shells and 145 basis functions
 A cutoff of  1.0D-14 yielded    952 shell pairs
 There are      9525 function pairs
 Smallest overlap matrix eigenvalue = 7.22E-04
 Guess from superposition of atomic densities
 Warning:  Energy on first SCF cycle will be non-variational
 SAD guess density has 93.945746 electrons

 -----------------------------------------------------------------------
  General SCF calculation program by
  Eric Jon Sundstrom, Paul Horn, Yuezhi Mao, Dmitri Zuev, Alec White,
  David Stuck, Shaama M.S., Shane Yost, Joonho Lee, David Small,
  Daniel Levine, Susi Lehtola, Hugh Burton, Evgeny Epifanovsky
 -----------------------------------------------------------------------
 Exchange:     0.2000 Hartree-Fock + 0.0800 Slater + 0.7200 B88
 Correlation:  0.1900 VWN1RPA + 0.8100 LYP
 Using SG-1 standard quadrature grid
 using 12 threads for integral computing
 -------------------------------------------------------
 OpenMP Integral computing Module                
 Release: version 1.0, May 2013, Q-Chem Inc. Pittsburgh 
 -------------------------------------------------------
 -------------------------------------------------------
 OpenMP BLAS3 based DFT computing Module                
 Release: version 1.0, May 2013, Q-Chem Inc. Pittsburgh 
 -------------------------------------------------------
 A unrestricted SCF calculation will be
 performed using DIIS
 SCF converges when DIIS error is below 1.0e-06
 Alpha HF Exchange    Energy = -19.60353277513595
 Beta HF Exchange     Energy = -19.60353277513595
 DFT Correlation      Energy =  -5.19493445656687
 DFT Exchange         Energy = -155.86077678799381
 One-Electron (alpha) Energy = -4201.81649439835746
 One-Electron (beta)  Energy = -4201.81649439835746
 Total Coulomb        Energy = 2785.56139162581212
 ---------------------------------------
  Cycle       Energy         DIIS error
 ---------------------------------------
    1   -5272.8602533981      1.83e-01  
 Alpha HF Exchange    Energy = -19.84203689445106
 Beta HF Exchange     Energy = -19.61690146631179
 DFT Correlation      Energy =  -5.24299602825498
 DFT Exchange         Energy = -157.05376301997271
 One-Electron (alpha) Energy = -4239.99564323024788
 One-Electron (beta)  Energy = -4186.46282145588248
 Total Coulomb        Energy = 2817.25287848730977
    2   -5265.4871630402      1.04e-02  
 Alpha HF Exchange    Energy = -19.69373997672011
 Beta HF Exchange     Energy = -19.47949216166627
 DFT Correlation      Energy =  -5.20572448212626
 DFT Exchange         Energy = -155.93192480284057
 One-Electron (alpha) Energy = -4223.70520912991833
 One-Electron (beta)  Energy = -4167.03558600072756
 Total Coulomb        Energy = 2780.17547592100982
    3   -5265.4020800654      4.65e-03  
 Alpha HF Exchange    Energy = -19.80740618077001
 Beta HF Exchange     Energy = -19.59421819118616
 DFT Correlation      Energy =  -5.22806753288176
 DFT Exchange         Energy = -156.78893238121026
 One-Electron (alpha) Energy = -4237.05191880325037
 One-Electron (beta)  Energy = -4183.38921059960830
 Total Coulomb        Energy = 2810.99796496204544
    4   -5265.3876681592      4.44e-03  
 Alpha HF Exchange    Energy = -19.78294664717568
 Beta HF Exchange     Energy = -19.54908222590172
 DFT Correlation      Energy =  -5.22768315169036
 DFT Exchange         Energy = -156.56664711368043
 One-Electron (alpha) Energy = -4234.00331165907028
 One-Electron (beta)  Energy = -4177.30242899464702
 Total Coulomb        Energy = 2801.34564606982167
    5   -5265.6123331547      1.32e-03  
 Alpha HF Exchange    Energy = -19.76972525209434
 Beta HF Exchange     Energy = -19.53987035474099
 DFT Correlation      Energy =  -5.22323705517664
 DFT Exchange         Energy = -156.46273807691529
 One-Electron (alpha) Energy = -4232.67504069581901
 One-Electron (beta)  Energy = -4176.61480454852244
 Total Coulomb        Energy = 2799.18210658407270
    6   -5265.6291888316      5.71e-04  
 Alpha HF Exchange    Energy = -19.76995521091931
 Beta HF Exchange     Energy = -19.53949686385510
 DFT Correlation      Energy =  -5.22303083895090
 DFT Exchange         Energy = -156.46227221738226
 One-Electron (alpha) Energy = -4232.71722665852212
 One-Electron (beta)  Energy = -4176.55931156619499
 Total Coulomb        Energy = 2799.16232686616513
    7   -5265.6348459220      2.34e-04  
 Alpha HF Exchange    Energy = -19.77073891239546
 Beta HF Exchange     Energy = -19.54041427341497
 DFT Correlation      Energy =  -5.22334026681159
 DFT Exchange         Energy = -156.46830625711277
 One-Electron (alpha) Energy = -4232.72967256060292
 One-Electron (beta)  Energy = -4176.32018235099258
 Total Coulomb        Energy = 2798.94267816718138
    8   -5265.6358558865      8.67e-05  
 Alpha HF Exchange    Energy = -19.77102468229890
 Beta HF Exchange     Energy = -19.54136100046013
 DFT Correlation      Energy =  -5.22323151428025
 DFT Exchange         Energy = -156.47060091280096
 One-Electron (alpha) Energy = -4232.80054719869258
 One-Electron (beta)  Energy = -4176.46247980098815
 Total Coulomb        Energy = 2799.15900629634598
    9   -5265.6361182455      4.24e-05  
 Alpha HF Exchange    Energy = -19.77086960822701
 Beta HF Exchange     Energy = -19.54188890413908
 DFT Correlation      Energy =  -5.22315399660680
 DFT Exchange         Energy = -156.47044350283772
 One-Electron (alpha) Energy = -4232.77732210046906
 One-Electron (beta)  Energy = -4176.43350378985087
 Total Coulomb        Energy = 2799.10683492918588
   10   -5265.6362264053      2.02e-05  
 Alpha HF Exchange    Energy = -19.77083390913124
 Beta HF Exchange     Energy = -19.54212904051830
 DFT Correlation      Energy =  -5.22308630956994
 DFT Exchange         Energy = -156.47058162033008
 One-Electron (alpha) Energy = -4232.77142109402303
 One-Electron (beta)  Energy = -4176.44182876832565
 Total Coulomb        Energy = 2799.10951941954954
   11   -5265.6362407547      7.73e-06  
 Alpha HF Exchange    Energy = -19.77078886997784
 Beta HF Exchange     Energy = -19.54219386903780
 DFT Correlation      Energy =  -5.22307300674728
 DFT Exchange         Energy = -156.47050937631477
 One-Electron (alpha) Energy = -4232.76315506545052
 One-Electron (beta)  Energy = -4176.43798842185060
 Total Coulomb        Energy = 2799.09734572350771
   12   -5265.6362423182      4.11e-06  
 Alpha HF Exchange    Energy = -19.77078511556645
 Beta HF Exchange     Energy = -19.54222637089300
 DFT Correlation      Energy =  -5.22307333065950
 DFT Exchange         Energy = -156.47057496918416
 One-Electron (alpha) Energy = -4232.76136009545462
 One-Electron (beta)  Energy = -4176.44169689761657
 Total Coulomb        Energy = 2799.09935349645593
   13   -5265.6362427153      1.78e-06  
 Alpha HF Exchange    Energy = -19.77078702396856
 Beta HF Exchange     Energy = -19.54224217966057
 DFT Correlation      Energy =  -5.22307322460090
 DFT Exchange         Energy = -156.47063484696031
 One-Electron (alpha) Energy = -4232.76113236049241
 One-Electron (beta)  Energy = -4176.44459784853916
 Total Coulomb        Energy = 2799.10210408487092
   14   -5265.6362428317      6.24e-07  Convergence criterion met
 ---------------------------------------
 SCF time:   CPU 54.06s  wall 4.00s 
<S^2> =          2.006906470
 Alpha HF Exchange    Energy = -19.77078702396856
 Beta HF Exchange     Energy = -19.54224217966057
 DFT Correlation      Energy =  -5.22307322460090
 DFT Exchange         Energy = -156.47063484696031
 One-Electron (alpha) Energy = -4232.76113236049241
 One-Electron (beta)  Energy = -4176.44459784853916
 Total Coulomb        Energy = 2799.10210408487092
 Nuclear repulsion Energy = 545.47412056762732
 SCF   energy in the final basis set =    -5265.6362428317
 Total energy in the final basis set =    -5265.6362428317
 
 --------------------------------------------------------------
 
                    Orbital Energies (a.u.)
 --------------------------------------------------------------
 
 Alpha MOs
 -- Occupied --
*******-482.835 -62.529 -62.492 -56.351 -56.349 -56.346 -56.314
-56.310 -56.309 -10.259 -10.250 -10.212  -8.717  -8.679  -6.544
 -6.539  -6.532  -6.510  -6.498  -6.495  -2.639  -2.638  -2.632
 -2.629  -2.628  -2.602  -2.600  -2.598  -2.589  -2.589  -0.843
 -0.781  -0.735  -0.724  -0.604  -0.514  -0.468  -0.450  -0.410
 -0.395  -0.366  -0.357  -0.308  -0.286  -0.265  -0.261  -0.247
 -- Virtual --
 -0.043   0.077   0.101   0.118   0.145   0.150   0.155   0.213
  0.245   0.258   0.312   0.321   0.331   0.368   0.372   0.387
  0.394   0.450   0.485   0.498   0.518   0.538   0.546   0.565
  0.573   0.582   0.608   0.627   0.630   0.641   0.659   0.694
  0.726   0.751   0.794   0.820   0.854   0.856   0.883   0.901
  0.934   1.017   1.148   1.191   1.258   1.287   1.348   1.445
  1.586   1.737   1.764   1.785   1.829   1.841   1.886   1.967
  2.024   2.049   2.069   2.084   2.141   2.253   2.327   2.335
  2.433   2.451   2.490   2.590   2.617   2.661   2.783   2.828
  2.836   2.949   3.157   3.230   3.376   3.405   3.439   3.587
  4.162   4.364   4.537   4.651   4.685   4.686   4.719   4.740
  4.750   4.752   4.764   4.821   4.905   6.245   6.328  90.161
 90.426
 
 Beta MOs
 -- Occupied --
*******-482.832 -62.528 -62.491 -56.347 -56.346 -56.345 -56.310
-56.309 -56.308 -10.255 -10.248 -10.212  -8.712  -8.676  -6.537
 -6.534  -6.530  -6.502  -6.495  -6.494  -2.632  -2.632  -2.628
 -2.626  -2.625  -2.597  -2.595  -2.594  -2.588  -2.588  -0.831
 -0.747  -0.724  -0.696  -0.598  -0.511  -0.465  -0.440  -0.407
 -0.393  -0.326  -0.313  -0.295  -0.261  -0.253
 -- Virtual --
 -0.181  -0.150  -0.018   0.079   0.102   0.120   0.149   0.152
  0.157   0.221   0.248   0.268   0.316   0.326   0.344   0.379
  0.386   0.399   0.410   0.455   0.493   0.527   0.542   0.559
  0.561   0.583   0.590   0.598   0.619   0.638   0.643   0.665
  0.685   0.707   0.737   0.760   0.796   0.823   0.858   0.860
  0.899   0.911   0.942   1.023   1.152   1.196   1.267   1.292
  1.361   1.450   1.588   1.750   1.773   1.790   1.838   1.852
  1.896   1.974   2.027   2.051   2.072   2.087   2.149   2.256
  2.328   2.340   2.439   2.457   2.496   2.596   2.621   2.665
  2.785   2.831   2.839   2.951   3.159   3.232   3.378   3.408
  3.440   3.590   4.171   4.368   4.542   4.661   4.693   4.698
  4.729   4.743   4.755   4.761   4.774   4.831   4.917   6.259
  6.341  90.166  90.432
 --------------------------------------------------------------
 
          Ground-State Mulliken Net Atomic Charges

     Atom                 Charge (a.u.)    Spin (a.u.)
  --------------------------------------------------------
      1 Br                   -0.092810       0.856117
      2 Br                   -0.238438       0.741028
      3 C                     0.022487       0.331069
      4 C                    -0.233173       0.072738
      5 C                    -0.360176      -0.017079
      6 H                     0.134410      -0.014605
      7 H                     0.158088      -0.002962
      8 H                     0.156432      -0.002195
      9 H                     0.135767       0.000992
     10 H                     0.183286       0.020852
     11 H                     0.134125       0.014046
  --------------------------------------------------------
  Sum of atomic charges =     0.000000
  Sum of spin   charges =     2.000000

 -----------------------------------------------------------------
                    Cartesian Multipole Moments
 -----------------------------------------------------------------
    Charge (ESU x 10^10)
                 0.0000
    Dipole Moment (Debye)
         X      -2.7728      Y      -4.5593      Z       0.7661
       Tot       5.3910
    Quadrupole Moments (Debye-Ang)
        XX     -56.7908     XY      -2.3440     YY     -59.6876
        XZ       1.5037     YZ       0.8707     ZZ     -55.5230
    Octopole Moments (Debye-Ang^2)
       XXX    -106.3124    XXY     -32.4650    XYY     -36.9093
       YYY    -113.4744    XXZ       2.9958    XYZ      -0.7930
       YYZ       5.9222    XZZ     -37.0634    YZZ     -35.9996
       ZZZ      15.9892
    Hexadecapole Moments (Debye-Ang^3)
      XXXX    -720.8916   XXXY    -130.7930   XXYY    -280.3179
      XYYY    -160.4639   YYYY    -940.3877   XXXZ     -30.2480
      XXYZ      38.5706   XYYZ      -2.2524   YYYZ     106.0449
      XXZZ    -156.4780   XYZZ     -49.2507   YYZZ    -186.0401
      XZZZ     -34.9755   YZZZ     107.9634   ZZZZ    -192.2991
 -----------------------------------------------------------------
 Calculating analytic gradient of the SCF energy
 Gradient of SCF Energy
            1           2           3           4           5           6
    1  -0.0001332   0.0001374   0.0002627  -0.0015411   0.0012828  -0.0001260
    2   0.0010481  -0.0012992   0.0013030   0.0017194   0.0015342  -0.0001884
    3  -0.0005115   0.0001746   0.0001578  -0.0005259  -0.0020723   0.0001172
            7           8           9          10          11
    1  -0.0001185   0.0010292   0.0000278  -0.0006227  -0.0001985
    2   0.0000338  -0.0016258  -0.0000714  -0.0025436   0.0000898
    3   0.0001739   0.0000402   0.0001197   0.0021462   0.0001800
 Max gradient component =       2.544E-03
 RMS gradient           =       1.018E-03
 Gradient time:  CPU 15.30 s  wall 1.35 s
 Geometry Optimization Parameters
   NAtoms,    NIC,     NZ,  NCons,   NDum,   NFix, NCnnct, MaxDiis
       11      94       0       1       0       0       0       0

 Cartesian Hessian Update
 Hessian Updated using BFGS Update


** CONSTRAINED OPTIMIZATION IN DELOCALIZED INTERNAL COORDINATES **
   Searching for a Minimum

   Optimization Cycle:   3

                       Coordinates (Angstroms)
     ATOM                X               Y               Z
      1  Br        2.0336041929    0.1960686849    0.3306699446
      2  Br        0.6548419154    2.4845710006   -0.6516814653
      3  C        -0.6722632899   -1.3235384521   -0.1937152673
      4  C         0.0236616349   -1.4447531722    0.9768223806
      5  C        -1.7403914344   -0.3272844744   -0.4460139685
      6  H        -0.3975360587   -1.9763854829   -1.0210571051
      7  H        -0.2475702731   -0.8621996961    1.8512754230
      8  H         0.7385465386   -2.2512551934    1.1198196612
      9  H        -2.0694007604    0.1675974400    0.4703774499
     10  H        -1.3576611610    0.4476229093   -1.1221308647
     11  H        -2.6010373043   -0.7894455637   -0.9435651885
   Point Group: c1    Number of degrees of freedom:    27


   Energy is  -5265.636242832

              Constraints and their Current Values
                                        Value     Constraint
   Distance(Angs):        2   4             4.300000     4.300000
 Hessian Updated using BFGS Update

 26 Hessian modes will be used to form the next step
  Hessian Eigenvalues:
     0.023517    0.026642    0.044906    0.046710    0.050013    0.054548
     0.058408    0.060113    0.074336    0.076286    0.087554    0.089907
     0.094282    0.111409    0.126173    0.136892    0.159860    0.161732
     0.300173    0.316897    0.324998    0.337434    0.341671    0.346066
     0.349611    0.499401

 Minimum Search - Taking Simple RFO Step
 Searching for Lamda that Minimizes Along All modes
 Value Taken    Lamda =  -0.00008339
 Step Taken.  Stepsize is  0.036833

                             Maximum     Tolerance    Cnvgd?
         Gradient           0.001559      0.000300      NO
         Displacement       0.023494      0.001200      NO
         Energy change     -0.000158      0.000001      NO


 New Cartesian Coordinates Obtained by Inverse Iteration

 Displacement from previous Coordinates is:  0.026040
 ----------------------------------------------------------------
             Standard Nuclear Orientation (Angstroms)
    I     Atom           X                Y                Z
 ----------------------------------------------------------------
    1      Br      2.0351586557     0.1885486857     0.3327650888
    2      Br      0.6544788172     2.4875596400    -0.6484971015
    3      C      -0.6724334285    -1.3252610032    -0.1938252942
    4      C       0.0260662342    -1.4436787041     0.9764535085
    5      C      -1.7418825202    -0.3280171168    -0.4460592299
    6      H      -0.3980530008    -1.9780640807    -1.0212302385
    7      H      -0.2443567634    -0.8596292614     1.8498041760
    8      H       0.7386418859    -2.2477247837     1.1210213554
    9      H      -2.0707419231     0.1676435828     0.4698260741
   10      H      -1.3606134966     0.4520971679    -1.1263635304
   11      H      -2.6014704603    -0.7924761266    -0.9430938082
 ----------------------------------------------------------------
 Nuclear Repulsion Energy =   544.7612356028 hartrees
 There are       48 alpha and       46 beta electrons

                       Distance Matrix (Angstroms)
             Br(  1)   Br(  2)   C (  3)   C (  4)   C (  5)   H (  6)
   Br(  2)  2.855627
   C (  3)  3.146422  4.062638
   C (  4)  2.667387  4.300000  1.368019
   C (  5)  3.890944  3.702837  1.483859  2.528613
   H (  6)  3.528177  4.603102  1.089053  2.110968  2.204394
   H (  7)  2.931941  4.272363  2.139272  1.084889  2.792165  3.085021
   H (  8)  2.870145  5.055808  2.137965  1.084045  3.506283  2.440089
   H (  9)  4.108241  3.749598  2.150457  2.692515  1.092096  3.102450
   H ( 10)  3.705372  2.903801  2.121844  3.152568  1.103068  2.615962
   H ( 11)  4.908009  4.631050  2.136925  3.318535  1.096201  2.503352
             H (  7)   H (  8)   H (  9)   H ( 10)
   H (  8)  1.850465
   H (  9)  2.509046  3.761741
   H ( 10)  3.438638  4.092267  1.770033
   H ( 11)  3.655239  4.187442  1.788811  1.766996
 
 Applying Cartesian multipole field
    Component          Value
    ---------          -----
     (2,0,0)        1.00000E-11
     (0,2,0)        2.00000E-11
     (0,0,2)       -3.00000E-11
 Nucleus-field energy     =     0.0000000213 hartrees
 Requested basis set is 6-31G(d,p)
 There are 46 shells and 145 basis functions
 A cutoff of  1.0D-14 yielded    952 shell pairs
 There are      9525 function pairs
 Smallest overlap matrix eigenvalue = 7.22E-04
 Guess from superposition of atomic densities
 Warning:  Energy on first SCF cycle will be non-variational
 SAD guess density has 93.945746 electrons

 -----------------------------------------------------------------------
  General SCF calculation program by
  Eric Jon Sundstrom, Paul Horn, Yuezhi Mao, Dmitri Zuev, Alec White,
  David Stuck, Shaama M.S., Shane Yost, Joonho Lee, David Small,
  Daniel Levine, Susi Lehtola, Hugh Burton, Evgeny Epifanovsky
 -----------------------------------------------------------------------
 Exchange:     0.2000 Hartree-Fock + 0.0800 Slater + 0.7200 B88
 Correlation:  0.1900 VWN1RPA + 0.8100 LYP
 Using SG-1 standard quadrature grid
 using 12 threads for integral computing
 -------------------------------------------------------
 OpenMP Integral computing Module                
 Release: version 1.0, May 2013, Q-Chem Inc. Pittsburgh 
 -------------------------------------------------------
 -------------------------------------------------------
 OpenMP BLAS3 based DFT computing Module                
 Release: version 1.0, May 2013, Q-Chem Inc. Pittsburgh 
 -------------------------------------------------------
 A unrestricted SCF calculation will be
 performed using DIIS
 SCF converges when DIIS error is below 1.0e-06
 Alpha HF Exchange    Energy = -19.60301853565276
 Beta HF Exchange     Energy = -19.60301853565276
 DFT Correlation      Energy =  -5.19479394690937
 DFT Exchange         Energy = -155.85973840620568
 One-Electron (alpha) Energy = -4201.10679767522470
 One-Electron (beta)  Energy = -4201.10679767522470
 Total Coulomb        Energy = 2784.85970496019809
 ---------------------------------------
  Cycle       Energy         DIIS error
 ---------------------------------------
    1   -5272.8532241906      1.83e-01  
 Alpha HF Exchange    Energy = -19.84167516072422
 Beta HF Exchange     Energy = -19.61657389530477
 DFT Correlation      Energy =  -5.24281415770178
 DFT Exchange         Energy = -157.05137391823953
 One-Electron (alpha) Energy = -4239.25193572322678
 One-Electron (beta)  Energy = -4185.74408646031497
 Total Coulomb        Energy = 2816.49951328548423
    2   -5265.4877104059      1.04e-02  
 Alpha HF Exchange    Energy = -19.69362172849326
 Beta HF Exchange     Energy = -19.47944967599716
 DFT Correlation      Energy =  -5.20558219023095
 DFT Exchange         Energy = -155.93141308020236
 One-Electron (alpha) Energy = -4222.98923916980948
 One-Electron (beta)  Energy = -4166.35653565874054
 Total Coulomb        Energy = 2779.49376637831301
    3   -5265.4008395011      4.65e-03  
 Alpha HF Exchange    Energy = -19.80702554580847
 Beta HF Exchange     Energy = -19.59409184699764
 DFT Correlation      Energy =  -5.22785647655214
 DFT Exchange         Energy = -156.78687364344793
 One-Electron (alpha) Energy = -4236.30449009494350
 One-Electron (beta)  Energy = -4182.66517547249168
 Total Coulomb        Energy = 2810.23900992283689
    4   -5265.3852675333      4.45e-03  
 Alpha HF Exchange    Energy = -19.78273319670796
 Beta HF Exchange     Energy = -19.54895775749895
 DFT Correlation      Energy =  -5.22752723489462
 DFT Exchange         Energy = -156.56542638736317
 One-Electron (alpha) Energy = -4233.27879037913772
 One-Electron (beta)  Energy = -4176.66370979534531
 Total Coulomb        Energy = 2800.69324903296001
    5   -5265.6126600939      1.31e-03  
 Alpha HF Exchange    Energy = -19.76941996690969
 Beta HF Exchange     Energy = -19.53967613074481
 DFT Correlation      Energy =  -5.22307743165461
 DFT Exchange         Energy = -156.46092272929883
 One-Electron (alpha) Energy = -4231.93093598187079
 One-Electron (beta)  Energy = -4175.92243692255579
 Total Coulomb        Energy = 2798.45611881204059
    6   -5265.6291147269      5.76e-04  
 Alpha HF Exchange    Energy = -19.76965310806817
 Beta HF Exchange     Energy = -19.53936105587971
 DFT Correlation      Energy =  -5.22286050684983
 DFT Exchange         Energy = -156.46054351806595
 One-Electron (alpha) Energy = -4231.97594436154122
 One-Electron (beta)  Energy = -4175.88220352114058
 Total Coulomb        Energy = 2798.45446173527080
    7   -5265.6348687122      2.36e-04  
 Alpha HF Exchange    Energy = -19.77045206764048
 Beta HF Exchange     Energy = -19.54029278254600
 DFT Correlation      Energy =  -5.22317435648934
 DFT Exchange         Energy = -156.46670533227677
 One-Electron (alpha) Energy = -4231.98838242162310
 One-Electron (beta)  Energy = -4175.64386741803901
 Total Coulomb        Energy = 2798.23574151034882
    8   -5265.6358972442      8.62e-05  
 Alpha HF Exchange    Energy = -19.77073165840112
 Beta HF Exchange     Energy = -19.54125818459995
 DFT Correlation      Energy =  -5.22306162915623
 DFT Exchange         Energy = -156.46898986498621
 One-Electron (alpha) Energy = -4232.05852753719228
 One-Electron (beta)  Energy = -4175.78557753080531
 Total Coulomb        Energy = 2798.45074557698672
    9   -5265.6361652041      4.25e-05  
 Alpha HF Exchange    Energy = -19.77057222126336
 Beta HF Exchange     Energy = -19.54179890245050
 DFT Correlation      Energy =  -5.22298153416703
 DFT Exchange         Energy = -156.46883708336514
 One-Electron (alpha) Energy = -4232.03426722851873
 One-Electron (beta)  Energy = -4175.75552603891720
 Total Coulomb        Energy = 2798.39647194770487
   10   -5265.6362754369      2.04e-05  
 Alpha HF Exchange    Energy = -19.77053752378330
 Beta HF Exchange     Energy = -19.54204558819266
 DFT Correlation      Energy =  -5.22291244171769
 DFT Exchange         Energy = -156.46898920260736
 One-Electron (alpha) Energy = -4232.02836418338848
 One-Electron (beta)  Energy = -4175.76475388578820
 Total Coulomb        Energy = 2798.40007714207104
   11   -5265.6362900593      8.00e-06  
 Alpha HF Exchange    Energy = -19.77049335466819
 Beta HF Exchange     Energy = -19.54211157035317
 DFT Correlation      Energy =  -5.22289887113842
 DFT Exchange         Energy = -156.46892398621446
 One-Electron (alpha) Energy = -4232.02025870575926
 One-Electron (beta)  Energy = -4175.76093219127415
 Total Coulomb        Energy = 2798.38809136338841
   12   -5265.6362916919      4.17e-06  
 Alpha HF Exchange    Energy = -19.77048906790355
 Beta HF Exchange     Energy = -19.54214493310005
 DFT Correlation      Energy =  -5.22289909408061
 DFT Exchange         Energy = -156.46898911622446
 One-Electron (alpha) Energy = -4232.01832370832199
 One-Electron (beta)  Energy = -4175.76468384409418
 Total Coulomb        Energy = 2798.39000203340993
   13   -5265.6362921062      1.78e-06  
 Alpha HF Exchange    Energy = -19.77049124734830
 Beta HF Exchange     Energy = -19.54216102299848
 DFT Correlation      Energy =  -5.22289892231603
 DFT Exchange         Energy = -156.46905103790348
 One-Electron (alpha) Energy = -4232.01811430528960
 One-Electron (beta)  Energy = -4175.76768074725533
 Total Coulomb        Energy = 2798.39286943257503
   14   -5265.6362922265      6.28e-07  Convergence criterion met
 ---------------------------------------
 SCF time:   CPU 53.99s  wall 4.00s 
<S^2> =          2.007066964
 Alpha HF Exchange    Energy = -19.77049124734830
 Beta HF Exchange     Energy = -19.54216102299848
 DFT Correlation      Energy =  -5.22289892231603
 DFT Exchange         Energy = -156.46905103790348
 One-Electron (alpha) Energy = -4232.01811430528960
 One-Electron (beta)  Energy = -4175.76768074725533
 Total Coulomb        Energy = 2798.39286943257503
 Nuclear repulsion Energy = 544.76123562408191
 SCF   energy in the final basis set =    -5265.6362922265
 Total energy in the final basis set =    -5265.6362922265
 
 --------------------------------------------------------------
 
                    Orbital Energies (a.u.)
 --------------------------------------------------------------
 
 Alpha MOs
 -- Occupied --
*******-482.834 -62.529 -62.492 -56.350 -56.349 -56.346 -56.314
-56.310 -56.309 -10.260 -10.250 -10.212  -8.716  -8.679  -6.544
 -6.539  -6.532  -6.510  -6.497  -6.495  -2.638  -2.638  -2.632
 -2.629  -2.628  -2.602  -2.600  -2.598  -2.589  -2.589  -0.843
 -0.780  -0.735  -0.724  -0.605  -0.514  -0.468  -0.449  -0.410
 -0.395  -0.366  -0.357  -0.307  -0.286  -0.265  -0.260  -0.247
 -- Virtual --
 -0.043   0.077   0.101   0.118   0.145   0.150   0.155   0.213
  0.244   0.258   0.312   0.321   0.330   0.368   0.372   0.387
  0.394   0.450   0.485   0.498   0.518   0.540   0.546   0.565
  0.574   0.582   0.608   0.627   0.630   0.641   0.658   0.693
  0.725   0.751   0.794   0.820   0.853   0.856   0.882   0.901
  0.931   1.015   1.147   1.191   1.258   1.287   1.348   1.445
  1.586   1.738   1.763   1.783   1.830   1.841   1.885   1.966
  2.023   2.047   2.067   2.084   2.141   2.253   2.326   2.335
  2.432   2.451   2.490   2.590   2.616   2.660   2.782   2.825
  2.833   2.949   3.153   3.233   3.376   3.399   3.438   3.589
  4.161   4.364   4.536   4.652   4.685   4.687   4.720   4.740
  4.750   4.751   4.763   4.823   4.902   6.246   6.327  90.166
 90.421
 
 Beta MOs
 -- Occupied --
*******-482.832 -62.528 -62.491 -56.347 -56.346 -56.345 -56.310
-56.309 -56.308 -10.255 -10.248 -10.212  -8.712  -8.676  -6.537
 -6.534  -6.530  -6.502  -6.495  -6.494  -2.632  -2.632  -2.628
 -2.626  -2.625  -2.597  -2.595  -2.594  -2.588  -2.587  -0.831
 -0.747  -0.723  -0.696  -0.599  -0.511  -0.465  -0.439  -0.407
 -0.393  -0.326  -0.313  -0.294  -0.260  -0.253
 -- Virtual --
 -0.181  -0.151  -0.018   0.080   0.102   0.120   0.149   0.152
  0.157   0.221   0.248   0.268   0.316   0.326   0.343   0.379
  0.386   0.399   0.410   0.455   0.493   0.526   0.543   0.560
  0.561   0.583   0.590   0.598   0.619   0.638   0.643   0.664
  0.684   0.706   0.735   0.759   0.797   0.823   0.858   0.860
  0.899   0.910   0.940   1.021   1.152   1.197   1.267   1.292
  1.361   1.449   1.588   1.751   1.772   1.789   1.839   1.851
  1.895   1.973   2.026   2.050   2.070   2.087   2.149   2.256
  2.327   2.340   2.438   2.458   2.495   2.596   2.620   2.664
  2.784   2.827   2.836   2.951   3.156   3.235   3.378   3.403
  3.439   3.591   4.170   4.368   4.541   4.662   4.693   4.699
  4.729   4.743   4.755   4.761   4.773   4.833   4.914   6.260
  6.341  90.171  90.427
 --------------------------------------------------------------
 
          Ground-State Mulliken Net Atomic Charges

     Atom                 Charge (a.u.)    Spin (a.u.)
  --------------------------------------------------------
      1 Br                   -0.093647       0.853340
      2 Br                   -0.238658       0.740797
      3 C                     0.022586       0.336195
      4 C                    -0.233560       0.070508
      5 C                    -0.360184      -0.017681
      6 H                     0.134645      -0.014825
      7 H                     0.158592      -0.002861
      8 H                     0.157090      -0.002060
      9 H                     0.136035       0.001028
     10 H                     0.182928       0.021498
     11 H                     0.134172       0.014061
  --------------------------------------------------------
  Sum of atomic charges =    -0.000000
  Sum of spin   charges =     2.000000

 -----------------------------------------------------------------
                    Cartesian Multipole Moments
 -----------------------------------------------------------------
    Charge (ESU x 10^10)
                -0.0000
    Dipole Moment (Debye)
         X      -2.7845      Y      -4.5712      Z       0.7658
       Tot       5.4070
    Quadrupole Moments (Debye-Ang)
        XX     -56.8163     XY      -2.3546     YY     -59.6838
        XZ       1.5038     YZ       0.8552     ZZ     -55.5162
    Octopole Moments (Debye-Ang^2)
       XXX    -106.4131    XXY     -32.4015    XYY     -37.0167
       YYY    -113.2868    XXZ       2.8994    XYZ      -0.7908
       YYZ       5.8090    XZZ     -37.0823    YZZ     -35.9209
       ZZZ      15.7260
    Hexadecapole Moments (Debye-Ang^3)
      XXXX    -721.9583   XXXY    -130.0491   XXYY    -280.8097
      XYYY    -159.8852   YYYY    -941.5718   XXXZ     -30.7930
      XXYZ      38.4929   XYYZ      -2.3809   YYYZ     105.6601
      XXZZ    -156.6151   XYZZ     -49.0186   YYZZ    -186.1604
      XZZZ     -35.4575   YZZZ     107.6447   ZZZZ    -191.9692
 -----------------------------------------------------------------
 Calculating analytic gradient of the SCF energy
 Gradient of SCF Energy
            1           2           3           4           5           6
    1   0.0000644  -0.0000166   0.0004993  -0.0001139  -0.0003929  -0.0000661
    2   0.0007359  -0.0009601   0.0002012   0.0000999  -0.0001392  -0.0000956
    3  -0.0003684   0.0000566   0.0000317   0.0001892   0.0000031   0.0000734
            7           8           9          10          11
    1   0.0000419  -0.0002893   0.0000391   0.0003020  -0.0000678
    2  -0.0000669   0.0000525   0.0000121   0.0001851  -0.0000249
    3   0.0000517  -0.0001382   0.0000323  -0.0000970   0.0001656
 Max gradient component =       9.601E-04
 RMS gradient           =       2.716E-04
 Gradient time:  CPU 15.35 s  wall 1.35 s
 Geometry Optimization Parameters
   NAtoms,    NIC,     NZ,  NCons,   NDum,   NFix, NCnnct, MaxDiis
       11      94       0       1       0       0       0       0

 Cartesian Hessian Update
 Hessian Updated using BFGS Update


** CONSTRAINED OPTIMIZATION IN DELOCALIZED INTERNAL COORDINATES **
   Searching for a Minimum

   Optimization Cycle:   4

                       Coordinates (Angstroms)
     ATOM                X               Y               Z
      1  Br        2.0351586557    0.1885486857    0.3327650888
      2  Br        0.6544788172    2.4875596400   -0.6484971015
      3  C        -0.6724334285   -1.3252610032   -0.1938252942
      4  C         0.0260662342   -1.4436787041    0.9764535085
      5  C        -1.7418825202   -0.3280171168   -0.4460592299
      6  H        -0.3980530008   -1.9780640807   -1.0212302385
      7  H        -0.2443567634   -0.8596292614    1.8498041760
      8  H         0.7386418859   -2.2477247837    1.1210213554
      9  H        -2.0707419231    0.1676435828    0.4698260741
     10  H        -1.3606134966    0.4520971679   -1.1263635304
     11  H        -2.6014704603   -0.7924761266   -0.9430938082
   Point Group: c1    Number of degrees of freedom:    27


   Energy is  -5265.636292226

              Constraints and their Current Values
                                        Value     Constraint
   Distance(Angs):        2   4             4.300000     4.300000
 Hessian Updated using BFGS Update

 26 Hessian modes will be used to form the next step
  Hessian Eigenvalues:
     0.018838    0.023757    0.044619    0.046082    0.049532    0.054388
     0.057676    0.059149    0.074326    0.076236    0.087492    0.087964
     0.094226    0.110659    0.126237    0.136855    0.159891    0.161638
     0.303077    0.317199    0.331976    0.341070    0.345603    0.349188
     0.409407    0.498911

 Minimum Search - Taking Simple RFO Step
 Searching for Lamda that Minimizes Along All modes
 Value Taken    Lamda =  -0.00001574
 Step Taken.  Stepsize is  0.027153

                             Maximum     Tolerance    Cnvgd?
         Gradient           0.000371      0.000300      NO
         Displacement       0.016300      0.001200      NO
         Energy change     -0.000049      0.000001      NO


 New Cartesian Coordinates Obtained by Inverse Iteration

 Displacement from previous Coordinates is:  0.017896
 ----------------------------------------------------------------
[...]
   Br(  2)  2.876332
   C (  3)  3.130530  4.084805
   C (  4)  2.629599  4.300000  1.370164
   C (  5)  3.877874  3.720925  1.483820  2.528949
   H (  6)  3.517281  4.634225  1.088982  2.112913  2.205328
   H (  7)  2.897905  4.262415  2.139051  1.084920  2.789023  3.085197
   H (  8)  2.836420  5.061661  2.140782  1.084316  3.507537  2.444292
   H (  9)  4.099187  3.765279  2.150292  2.693330  1.092155  3.102341
   H ( 10)  3.692728  2.919220  2.122032  3.144349  1.102691  2.622100
   H ( 11)  4.893625  4.647283  2.137138  3.325269  1.096103  2.501651
             H (  7)   H (  8)   H (  9)   H ( 10)
   H (  8)  1.850127
   H (  9)  2.506391  3.761502
   H ( 10)  3.425330  4.088397  1.768862
   H ( 11)  3.659242  4.194111  1.788791  1.766923
 
 Applying Cartesian multipole field
    Component          Value
    ---------          -----
     (2,0,0)        1.00000E-11
     (0,2,0)        2.00000E-11
     (0,0,2)       -3.00000E-11
 Nucleus-field energy     =     0.0000000215 hartrees
 Requested basis set is 6-31G(d,p)
 There are 46 shells and 145 basis functions
 A cutoff of  1.0D-14 yielded    952 shell pairs
 There are      9528 function pairs
 Smallest overlap matrix eigenvalue = 7.23E-04
 Guess from superposition of atomic densities
 Warning:  Energy on first SCF cycle will be non-variational
 SAD guess density has 93.945746 electrons

 -----------------------------------------------------------------------
  General SCF calculation program by
  Eric Jon Sundstrom, Paul Horn, Yuezhi Mao, Dmitri Zuev, Alec White,
  David Stuck, Shaama M.S., Shane Yost, Joonho Lee, David Small,
  Daniel Levine, Susi Lehtola, Hugh Burton, Evgeny Epifanovsky
 -----------------------------------------------------------------------
 Exchange:     0.2000 Hartree-Fock + 0.0800 Slater + 0.7200 B88
 Correlation:  0.1900 VWN1RPA + 0.8100 LYP
 Using SG-1 standard quadrature grid
 using 12 threads for integral computing
 -------------------------------------------------------
 OpenMP Integral computing Module                
 Release: version 1.0, May 2013, Q-Chem Inc. Pittsburgh 
 -------------------------------------------------------
 -------------------------------------------------------
 OpenMP BLAS3 based DFT computing Module                
 Release: version 1.0, May 2013, Q-Chem Inc. Pittsburgh 
 -------------------------------------------------------
 A unrestricted SCF calculation will be
 performed using DIIS
 SCF converges when DIIS error is below 1.0e-06
 Alpha HF Exchange    Energy = -19.60306907041860
 Beta HF Exchange     Energy = -19.60306907041860
 DFT Correlation      Energy =  -5.19487791349921
 DFT Exchange         Energy = -155.85971219651100
 One-Electron (alpha) Energy = -4200.14693582832660
 One-Electron (beta)  Energy = -4200.14693582832660
 Total Coulomb        Energy = 2783.90791364042116
 ---------------------------------------
  Cycle       Energy         DIIS error
 ---------------------------------------
    1   -5272.8481508642      1.83e-01  
 Alpha HF Exchange    Energy = -19.84141848196499
 Beta HF Exchange     Energy = -19.61636066080670
 DFT Correlation      Energy =  -5.24283855080236
 DFT Exchange         Energy = -157.04990689112481
 One-Electron (alpha) Energy = -4238.22703077775168
 One-Electron (beta)  Energy = -4184.69805424765946
 Total Coulomb        Energy = 2815.38838256601230
    2   -5265.4886916412      1.04e-02  
 Alpha HF Exchange    Energy = -19.69385788661894
 Beta HF Exchange     Energy = -19.47972737622034
 DFT Correlation      Energy =  -5.20565756966899
 DFT Exchange         Energy = -155.93385867941765
 One-Electron (alpha) Energy = -4222.02829806793306
 One-Electron (beta)  Energy = -4165.52676842210167
 Total Coulomb        Energy = 2778.67223175043500
    3   -5265.3974008486      4.66e-03  
 Alpha HF Exchange    Energy = -19.80654989676241
 Beta HF Exchange     Energy = -19.59409316063991
 DFT Correlation      Energy =  -5.22782135362020
 DFT Exchange         Energy = -156.78489494127126
 One-Electron (alpha) Energy = -4235.23947208341451
 One-Electron (beta)  Energy = -4181.57543709889342
 Total Coulomb        Energy = 2809.04862816618333
    4   -5265.3811049655      4.47e-03  
 Alpha HF Exchange    Energy = -19.78266640142991
 Beta HF Exchange     Energy = -19.54946302672473
 DFT Correlation      Energy =  -5.22753949673796
 DFT Exchange         Energy = -156.56613565109356
 One-Electron (alpha) Energy = -4232.28371829197022
 One-Electron (beta)  Energy = -4175.95465307892664
 Total Coulomb        Energy = 2799.95110220501920
    5   -5265.6145383390      1.27e-03  
 Alpha HF Exchange    Energy = -19.76911992140412
 Beta HF Exchange     Energy = -19.53990019997806
 DFT Correlation      Energy =  -5.22310051785077
 DFT Exchange         Energy = -156.46018477426719
 One-Electron (alpha) Energy = -4230.86834391449884
 One-Electron (beta)  Energy = -4174.99998197035893
 Total Coulomb        Energy = 2797.43275883028809
    6   -5265.6293370652      5.67e-04  
 Alpha HF Exchange    Energy = -19.76939348552547
 Beta HF Exchange     Energy = -19.53993513388127
 DFT Correlation      Energy =  -5.22284328598043
 DFT Exchange         Energy = -156.46052934178886
 One-Electron (alpha) Energy = -4230.92889538940653
 One-Electron (beta)  Energy = -4175.01904237876624
 Total Coulomb        Energy = 2797.50717320685089
    7   -5265.6349304056      2.33e-04  
 Alpha HF Exchange    Energy = -19.77021661058301
 Beta HF Exchange     Energy = -19.54089668554803
 DFT Correlation      Energy =  -5.22316377156868
 DFT Exchange         Energy = -156.46695366399774
 One-Electron (alpha) Energy = -4230.93936033192313
 One-Electron (beta)  Energy = -4174.79581184388735
 Total Coulomb        Energy = 2797.30192594356640
    8   -5265.6359415610      8.31e-05  
 Alpha HF Exchange    Energy = -19.77046567200317
 Beta HF Exchange     Energy = -19.54188742837348
 DFT Correlation      Energy =  -5.22303876441288
 DFT Exchange         Energy = -156.46912416498816
 One-Electron (alpha) Energy = -4231.00483183471715
 One-Electron (beta)  Energy = -4174.93139150462866
 Total Coulomb        Energy = 2797.50599343623071
    9   -5265.6362105300      4.05e-05  
 Alpha HF Exchange    Energy = -19.77029183603918
 Beta HF Exchange     Energy = -19.54242756118046
 DFT Correlation      Energy =  -5.22295166575742
 DFT Exchange         Energy = -156.46893469659287
 One-Electron (alpha) Energy = -4230.97714511926461
 One-Electron (beta)  Energy = -4174.89956021259150
 Total Coulomb        Energy = 2797.44646181009284
   10   -5265.6363138784      1.97e-05  
 Alpha HF Exchange    Energy = -19.77026456544831
 Beta HF Exchange     Energy = -19.54266796071831
 DFT Correlation      Energy =  -5.22288313086820
 DFT Exchange         Energy = -156.46911979174780
 One-Electron (alpha) Energy = -4230.97134686829395
 One-Electron (beta)  Energy = -4174.91071068912242
 Total Coulomb        Energy = 2797.45213082089367
   11   -5265.6363267824      8.27e-06  
 Alpha HF Exchange    Energy = -19.77022668383508
 Beta HF Exchange     Energy = -19.54273307204066
 DFT Correlation      Energy =  -5.22287038396850
 DFT Exchange         Energy = -156.46908976939247
 One-Electron (alpha) Energy = -4230.96413741294509
 One-Electron (beta)  Energy = -4174.90762752501632
 Total Coulomb        Energy = 2797.44182103536286
   12   -5265.6363284089      4.07e-06  
 Alpha HF Exchange    Energy = -19.77022261013576
 Beta HF Exchange     Energy = -19.54276436357865
 DFT Correlation      Energy =  -5.22287039692064
 DFT Exchange         Energy = -156.46915127774932
 One-Electron (alpha) Energy = -4230.96211868599767
 One-Electron (beta)  Energy = -4174.91142751395728
 Total Coulomb        Energy = 2797.44369062935039
   13   -5265.6363288161      1.74e-06  
 Alpha HF Exchange    Energy = -19.77022545686604
 Beta HF Exchange     Energy = -19.54277961742759
 DFT Correlation      Energy =  -5.22286983475232
 DFT Exchange         Energy = -156.46921395551016
 One-Electron (alpha) Energy = -4230.96192937466822
 One-Electron (beta)  Energy = -4174.91449141892190
 Total Coulomb        Energy = 2797.44664531649732
   14   -5265.6363289388      5.99e-07  Convergence criterion met
 ---------------------------------------
 SCF time:   CPU 53.61s  wall 5.00s 
<S^2> =          2.007804337
 Alpha HF Exchange    Energy = -19.77022545686604
 Beta HF Exchange     Energy = -19.54277961742759
 DFT Correlation      Energy =  -5.22286983475232
 DFT Exchange         Energy = -156.46921395551016
 One-Electron (alpha) Energy = -4230.96192937466822
 One-Electron (beta)  Energy = -4174.91449141892190
 Total Coulomb        Energy = 2797.44664531649732
 Nuclear repulsion Energy = 543.79853540289844
 SCF   energy in the final basis set =    -5265.6363289388
 Total energy in the final basis set =    -5265.6363289388
 
 --------------------------------------------------------------
 
                    Orbital Energies (a.u.)
 --------------------------------------------------------------
 
 Alpha MOs
 -- Occupied --
*******-482.834 -62.529 -62.491 -56.350 -56.348 -56.346 -56.314
-56.309 -56.308 -10.261 -10.252 -10.213  -8.716  -8.678  -6.544
 -6.539  -6.531  -6.509  -6.497  -6.495  -2.638  -2.638  -2.632
 -2.628  -2.627  -2.602  -2.599  -2.598  -2.588  -2.588  -0.844
 -0.780  -0.735  -0.724  -0.606  -0.515  -0.469  -0.450  -0.410
 -0.396  -0.367  -0.356  -0.307  -0.284  -0.265  -0.259  -0.249
 -- Virtual --
 -0.044   0.077   0.100   0.118   0.144   0.150   0.154   0.213
  0.243   0.258   0.310   0.320   0.330   0.369   0.373   0.387
  0.395   0.448   0.484   0.499   0.520   0.544   0.545   0.566
  0.574   0.583   0.609   0.627   0.630   0.640   0.656   0.693
  0.723   0.751   0.794   0.820   0.853   0.855   0.879   0.901
  0.931   1.016   1.147   1.197   1.259   1.286   1.348   1.446
  1.587   1.741   1.761   1.783   1.830   1.839   1.883   1.966
  2.023   2.046   2.067   2.083   2.143   2.252   2.325   2.333
  2.431   2.452   2.487   2.587   2.616   2.661   2.782   2.824
  2.832   2.948   3.153   3.232   3.374   3.399   3.437   3.585
  4.161   4.367   4.535   4.654   4.688   4.690   4.722   4.741
  4.749   4.750   4.762   4.829   4.896   6.249   6.326  90.179
 90.411
 
 Beta MOs
 -- Occupied --
*******-482.832 -62.527 -62.490 -56.346 -56.346 -56.345 -56.309
-56.308 -56.308 -10.256 -10.250 -10.213  -8.712  -8.675  -6.537
 -6.533  -6.529  -6.502  -6.494  -6.493  -2.632  -2.632  -2.628
 -2.625  -2.625  -2.596  -2.594  -2.593  -2.587  -2.587  -0.832
 -0.747  -0.723  -0.696  -0.599  -0.512  -0.466  -0.439  -0.408
 -0.394  -0.328  -0.311  -0.294  -0.260  -0.253
 -- Virtual --
 -0.178  -0.152  -0.019   0.079   0.101   0.119   0.148   0.152
  0.156   0.221   0.247   0.268   0.314   0.326   0.343   0.380
  0.387   0.398   0.411   0.454   0.493   0.527   0.544   0.559
  0.564   0.583   0.590   0.600   0.621   0.639   0.643   0.663
  0.682   0.706   0.733   0.761   0.797   0.823   0.858   0.860
  0.898   0.905   0.939   1.022   1.152   1.203   1.268   1.291
  1.362   1.450   1.589   1.753   1.770   1.788   1.840   1.849
  1.893   1.973   2.026   2.049   2.070   2.086   2.151   2.254
  2.327   2.339   2.436   2.459   2.492   2.594   2.620   2.665
  2.784   2.826   2.835   2.950   3.156   3.234   3.377   3.402
  3.438   3.588   4.170   4.370   4.540   4.664   4.695   4.702
  4.732   4.744   4.755   4.759   4.772   4.839   4.908   6.263
  6.339  90.184  90.417
 --------------------------------------------------------------
 
          Ground-State Mulliken Net Atomic Charges

     Atom                 Charge (a.u.)    Spin (a.u.)
  --------------------------------------------------------
      1 Br                   -0.094662       0.841517
      2 Br                   -0.240497       0.738776
      3 C                     0.023076       0.361404
      4 C                    -0.237263       0.059597
      5 C                    -0.360417      -0.020045
      6 H                     0.135232      -0.015941
      7 H                     0.160767      -0.002357
      8 H                     0.159265      -0.001506
      9 H                     0.136205       0.001307
     10 H                     0.184262       0.023199
     11 H                     0.134032       0.014050
  --------------------------------------------------------
  Sum of atomic charges =     0.000000
  Sum of spin   charges =     2.000000

 -----------------------------------------------------------------
                    Cartesian Multipole Moments
 -----------------------------------------------------------------
    Charge (ESU x 10^10)
                 0.0000
    Dipole Moment (Debye)
         X      -2.8180      Y      -4.6356      Z       0.7724
       Tot       5.4796
    Quadrupole Moments (Debye-Ang)
        XX     -56.8853     XY      -2.3977     YY     -59.7428
        XZ       1.5007     YZ       0.8278     ZZ     -55.4983
    Octopole Moments (Debye-Ang^2)
       XXX    -106.1834    XXY     -32.4664    XYY     -37.1524
       YYY    -113.4540    XXZ       2.6622    XYZ      -0.8158
       YYZ       5.5575    XZZ     -36.9440    YZZ     -35.8581
       ZZZ      15.1098
    Hexadecapole Moments (Debye-Ang^3)
      XXXX    -717.6747   XXXY    -128.8817   XXYY    -281.9774
      XYYY    -159.1728   YYYY    -949.5585   XXXZ     -31.4445
      XXYZ      38.2000   XYYZ      -2.4813   YYYZ     104.3137
      XXZZ    -155.5062   XYZZ     -48.5301   YYZZ    -187.1973
      XZZZ     -35.9157   YZZZ     106.6259   ZZZZ    -189.9939
 -----------------------------------------------------------------
 Calculating analytic gradient of the SCF energy
 Gradient of SCF Energy
            1           2           3           4           5           6
    1  -0.0000963  -0.0000132   0.0000207   0.0000266   0.0000012   0.0000185
    2  -0.0000120  -0.0000260   0.0000132   0.0000567   0.0000681  -0.0000093
    3  -0.0000942  -0.0001414  -0.0000106   0.0001243  -0.0000704   0.0000437
            7           8           9          10          11
    1   0.0000114   0.0000898   0.0000262  -0.0000225  -0.0000623
    2   0.0000643   0.0000460   0.0000105  -0.0001591  -0.0000523
    3   0.0000068  -0.0000139   0.0000237   0.0000009   0.0001311
 Max gradient component =       1.591E-04
 RMS gradient           =       6.440E-05
 Gradient time:  CPU 15.40 s  wall 1.36 s
 Geometry Optimization Parameters
   NAtoms,    NIC,     NZ,  NCons,   NDum,   NFix, NCnnct, MaxDiis
       11      94       0       1       0       0       0       0

 Cartesian Hessian Update
 Hessian Updated using BFGS Update


** CONSTRAINED OPTIMIZATION IN DELOCALIZED INTERNAL COORDINATES **
   Searching for a Minimum

   Optimization Cycle:  11

                       Coordinates (Angstroms)
     ATOM                X               Y               Z
      1  Br        2.0224176398    0.1659868077    0.3339805438
      2  Br        0.6582558959    2.5047868191   -0.6367722862
      3  C        -0.6760172604   -1.3305228667   -0.1943431185
      4  C         0.0355213340   -1.4340019178    0.9719995214
      5  C        -1.7431752034   -0.3311738521   -0.4477167157
      6  H        -0.4059502753   -1.9894313659   -1.0182272064
      7  H        -0.2360644412   -0.8454477144    1.8419972084
      8  H         0.7447249882   -2.2400858933    1.1236601781
      9  H        -2.0745591611    0.1622740766    0.4685235420
     10  H        -1.3587185696    0.4511963226   -1.1230067973
     11  H        -2.6016409470   -0.7925824158   -0.9492938694
   Point Group: c1    Number of degrees of freedom:    27


   Energy is  -5265.636328939

              Constraints and their Current Values
                                        Value     Constraint
   Distance(Angs):        2   4             4.300000     4.300000
 Hessian Updated using BFGS Update

 26 Hessian modes will be used to form the next step
  Hessian Eigenvalues:
     0.003222    0.009127    0.024055    0.044677    0.046118    0.051919
     0.054693    0.058027    0.069146    0.075434    0.081645    0.087242
     0.092027    0.108911    0.126298    0.136254    0.159749    0.161128
     0.302765    0.316609    0.331272    0.340959    0.345544    0.349246
     0.414200    0.498107

 Minimum Search - Taking Simple RFO Step
 Searching for Lamda that Minimizes Along All modes
 Value Taken    Lamda =   0.00000000
 Step Taken.  Stepsize is  0.007715

                             Maximum     Tolerance    Cnvgd?
         Gradient           0.000074      0.000300     YES
         Displacement       0.003878      0.001200      NO
         Energy change     -0.000001      0.000001     YES


                       Distance Matrix (Angstroms)
             Br(  1)   Br(  2)   C (  3)   C (  4)   C (  5)   H (  6)
   Br(  2)  2.876332
   C (  3)  3.130530  4.084805
   C (  4)  2.629599  4.300000  1.370164
   C (  5)  3.877874  3.720925  1.483820  2.528949
   H (  6)  3.517281  4.634225  1.088982  2.112913  2.205328
   H (  7)  2.897905  4.262415  2.139051  1.084920  2.789023  3.085197
   H (  8)  2.836420  5.061661  2.140782  1.084316  3.507537  2.444292
   H (  9)  4.099187  3.765279  2.150292  2.693330  1.092155  3.102341
   H ( 10)  3.692728  2.919220  2.122032  3.144349  1.102691  2.622100
   H ( 11)  4.893625  4.647283  2.137138  3.325269  1.096103  2.501651
             H (  7)   H (  8)   H (  9)   H ( 10)
   H (  8)  1.850127
   H (  9)  2.506391  3.761502
   H ( 10)  3.425330  4.088397  1.768862
   H ( 11)  3.659242  4.194111  1.788791  1.766923
 
 Final energy is   -5265.63632893875     


 ******************************
 **  OPTIMIZATION CONVERGED  **
 ******************************

                       Coordinates (Angstroms)
     ATOM                X               Y               Z
      1  Br        2.0224176398    0.1659868077    0.3339805438
      2  Br        0.6582558959    2.5047868191   -0.6367722862
      3  C        -0.6760172604   -1.3305228667   -0.1943431185
      4  C         0.0355213340   -1.4340019178    0.9719995214
      5  C        -1.7431752034   -0.3311738521   -0.4477167157
      6  H        -0.4059502753   -1.9894313659   -1.0182272064
      7  H        -0.2360644412   -0.8454477144    1.8419972084
      8  H         0.7447249882   -2.2400858933    1.1236601781
      9  H        -2.0745591611    0.1622740766    0.4685235420
     10  H        -1.3587185696    0.4511963226   -1.1230067973
     11  H        -2.6016409470   -0.7925824158   -0.9492938694

Z-matrix Print:
$molecule
0 3
Br
C  1 2.629599
H  2 1.084316 1 89.545328
H  2 1.084920 1 93.074378 3 117.071262 0
C  2 1.370164 1 98.041773 3 -121.256544 0
H  5 1.088982 2 118.004078 1 85.507317 0
C  5 1.483820 2 124.729715 1 -90.879792 0
H  7 1.092155 5 112.287869 2 -13.797010 0
H  7 1.096103 5 110.971332 2 -136.924923 0
H  7 1.102691 5 109.370498 2 105.321710 0
Br 1 2.876332 2 102.607892 3 170.914254 0
$end

PES scan, value:    4.3000 energy: -5265.6363289388
------- Summary of potential scan: ------ 
    4.3000     -5265.6363289388
----------------------------------------- 
Archival summary:
1\1\hpc0242\JobtypUnspecified\ProcedureUnspecified\6-31G**\r236(3)\knomura\ThuMar1401:00:282019ThuMar1401:00:282019\0\\#,JobtypUnspecified,ProcedureUnspecified,6-31G**,\\0,3\Br\C,1,2.6296\H,2,1.08432,1,89.5453\H,2,1.08492,1,93.0744,3,117.071,0\C,2,1.37016,1,98.0418,3,-121.257,0\H,5,1.08898,2,118.004,1,85.5073,0\C,5,1.48382,2,124.73,1,-90.8798,0\H,7,1.09215,5,112.288,2,-13.797,0\H,7,1.0961,5,110.971,2,-136.925,0\H,7,1.10269,5,109.37,2,105.322,0\Br,1,2.87633,2,102.608,3,170.914,0\\\@

 Total job time:  70.36s(wall), 821.42s(cpu) 
 Thu Mar 14 01:00:28 2019

        *************************************************************
        *                                                           *
        *  Thank you very much for using Q-Chem.  Have a nice day.  *
        *                                                           *
        *************************************************************


