
Running Job 1 of 1 halogens/Bromine/03/Br_2_4.xyz.data/inputs/bond_triplet_3.0.in
qchem halogens/Bromine/03/Br_2_4.xyz.data/inputs/bond_triplet_3.0.in_12057.0 /staging/scratch/2868759/qchem12057/ 1
/usr/usc/qchem/5.1.1/exe/qcprog.exe_s halogens/Bromine/03/Br_2_4.xyz.data/inputs/bond_triplet_3.0.in_12057.0 /staging/scratch/2868759/qchem12057/
Check license passed

                  Welcome to Q-Chem
     A Quantum Leap Into The Future Of Chemistry


 Q-Chem 5.1, Q-Chem, Inc., Pleasanton, CA (2018)

 Yihan Shao,  Zhengting Gan,  E. Epifanovsky,  A. T. B. Gilbert,  M. Wormit,  
 J. Kussmann,  A. W. Lange,  A. Behn,  Jia Deng,  Xintian Feng,  D. Ghosh,  
 M. Goldey,  P. R. Horn,  L. D. Jacobson,  I. Kaliman,  T. Kus,  A. Landau,  
 Jie Liu,  E. I. Proynov,  R. M. Richard,  R. P. Steele,  E. J. Sundstrom,  
 H. L. Woodcock III,  P. M. Zimmerman,  D. Zuev,  B. Albrecht,  E. Alguire,  
 S. A. Baeppler,  D. Barton,  Z. Benda,  Y. A. Bernard,  E. J. Berquist,  
 K. B. Bravaya,  H. Burton,  D. Casanova,  Chun-Min Chang,  Yunqing Chen,  
 A. Chien,  K. D. Closser,  M. P. Coons,  S. Coriani,  S. Dasgupta,  
 A. L. Dempwolff,  M. Diedenhofen,  Hainam Do,  R. G. Edgar,  Po-Tung Fang,  
 S. Faraji,  S. Fatehi,  Qingguo Feng,  K. D. Fenk,  J. Fosso-Tande,  
 Qinghui Ge,  A. Ghysels,  G. Gidofalvi,  J. Gomes,  J. Gonthier,  A. Gunina,  
 D. Hait,  M. W. D. Hanson-Heine,  P. H. P. Harbach,  A. W. Hauser,  
 J. E. Herr,  E. G. Hohenstein,  Z. C. Holden,  Kerwin Hui,  B. C. Huynh,  
 T.-C. Jagau,  Hyunjun Ji,  B. Kaduk,  K. Khistyaev,  Jaehoon Kim,  
 P. Klunzinger,  K. Koh,  D. Kosenkov,  L. Koulias,  T. Kowalczyk,  
 C. M. Krauter,  A. Kunitsa,  Ka Un Lao,  A. Laurent,  K. V. Lawler,  
 Joonho Lee,  D. Lefrancois,  S. Lehtola,  D. S. Levine,  Yi-Pei Li,  
 You-Sheng Lin,  Fenglai Liu,  E. Livshits,  A. Luenser,  P. Manohar,  
 E. Mansoor,  S. F. Manzer,  Shan-Ping Mao,  Yuezhi Mao,  N. Mardirossian,  
 A. V. Marenich,  T. Markovich,  L. A. Martinez-Martinez,  S. A. Maurer,  
 N. J. Mayhall,  S. C. McKenzie,  J.-M. Mewes,  A. F. Morrison,  
 J. W. Mullinax,  K. Nanda,  T. S. Nguyen-Beck,  R. Olivares-Amaya,  
 J. A. Parkhill,  T. M. Perrine,  F. Plasser,  P. Pokhilko,  S. Prager,  
 A. Prociuk,  E. Ramos,  D. R. Rehn,  F. Rob,  M. Schneider,  N. Sergueev,  
 S. M. Sharada,  S. Sharma,  D. W. Small,  T. Stauch,  T. Stein,  
 Yu-Chuan Su,  A. J. W. Thom,  A. Tkatchenko,  T. Tsuchimochi,  N. M. Tubman,  
 L. Vogt,  M. L. Vidal,  O. Vydrov,  M. A. Watson,  J. Wenzel,  
 M. de Wergifosse,  T. A. Wesolowski,  A. White,  J. Witte,  A. Yamada,  
 Jun Yang,  K. Yao,  S. Yeganeh,  S. R. Yost,  Zhi-Qiang You,  A. Zech,  
 Igor Ying Zhang,  Xing Zhang,  Yan Zhao,  Ying Zhu,  B. R. Brooks,  
 G. K. L. Chan,  C. J. Cramer,  M. S. Gordon,  W. J. Hehre,  A. Klamt,  
 M. W. Schmidt,  C. D. Sherrill,  D. G. Truhlar,  A. Aspuru-Guzik,  R. Baer,  
 A. T. Bell,  N. A. Besley,  Jeng-Da Chai,  A. E. DePrince, III,  
 R. A. DiStasio Jr.,  A. Dreuw,  B. D. Dunietz,  T. R. Furlani,  
 Chao-Ping Hsu,  Yousung Jung,  Jing Kong,  D. S. Lambrecht,  WanZhen Liang,  
 C. Ochsenfeld,  V. A. Rassolov,  L. V. Slipchenko,  J. E. Subotnik,  
 T. Van Voorhis,  J. M. Herbert,  A. I. Krylov,  P. M. W. Gill,  M. Head-Gordon

 Contributors to earlier versions of Q-Chem not listed above: 
 R. D. Adamson,  B. Austin,  J. Baker,  G. J. O. Beran,  K. Brandhorst,  
 S. T. Brown,  E. F. C. Byrd,  A. K. Chakraborty,  C.-L. Cheng,  
 Siu Hung Chien,  D. M. Chipman,  D. L. Crittenden,  H. Dachsel,  
 R. J. Doerksen,  A. D. Dutoi,  L. Fusti-Molnar,  W. A. Goddard III,  
 A. Golubeva-Zadorozhnaya,  S. R. Gwaltney,  G. Hawkins,  A. Heyden,  
 S. Hirata,  G. Kedziora,  F. J. Keil,  C. Kelley,  Jihan Kim,  R. A. King,  
 R. Z. Khaliullin,  P. P. Korambath,  W. Kurlancheek,  A. M. Lee,  M. S. Lee,  
 S. V. Levchenko,  Ching Yeh Lin,  D. Liotard,  R. C. Lochan,  I. Lotan,  
 P. E. Maslen,  N. Nair,  D. P. O'Neill,  D. Neuhauser,  E. Neuscamman,  
 C. M. Oana,  R. Olson,  B. Peters,  R. Peverati,  P. A. Pieniazek,  
 Y. M. Rhee,  J. Ritchie,  M. A. Rohrdanz,  E. Rosta,  N. J. Russ,  
 H. F. Schaefer III,  N. E. Schultz,  N. Shenvi,  A. C. Simmonett,  A. Sodt,  
 D. Stuck,  K. S. Thanthiriwatte,  V. Vanovschi,  Tao Wang,  A. Warshel,  
 C. F. Williams,  Q. Wu,  X. Xu,  W. Zhang

 Please cite Q-Chem as follows:
 Y. Shao et al., Mol. Phys. 113, 184-215 (2015)
 DOI: 10.1080/00268976.2014.952696

 Q-Chem 5.1.1 for Intel X86 EM64T Linux

 Parts of Q-Chem use Armadillo 8.300.2 (Tropical Shenanigans).
 http://arma.sourceforge.net/

 Q-Chem begins on Thu Mar 14 01:19:09 2019  

Host: 
0

     Scratch files written to /staging/scratch/2868759/qchem12057//
 Aug318 |scratch|qcdevops|jenkins|workspace|build_RNUM 6013   
Processing $rem in /usr/usc/qchem/5.1.1/config/preferences.
 MEM_TOTAL  2000 
Input Ideriv = 2
Curr. Ideriv = -1
Max.  Ideriv = 2

Checking the input file for inconsistencies... 	...done.

--------------------------------------------------------------
User input:
--------------------------------------------------------------

$comment
potential surface scanner
$end

$rem
JOBTYPE  PES_SCAN
UNRESTRICTED TRUE
SYM_IGNORE  TRUE
GEOM_OPT_MAX_CYCLES 400
SCF_MAX_CYCLES 400
METHOD   B3LYP
BASIS   6-31G**
PDB_PRINT 2
SCF_CONVERGENCE 6
THRESH 14
SCF_PRINT 1
$end
$molecule
0 3
Br 2.027735 -0.425267 -0.708776
Br 0.849426 2.028909 0.244397
C -0.790739 -1.309625 0.020884
C 0.253779 -0.949196 0.865767
C -1.852905 -0.400882 -0.483221
H -0.802683 -2.332285 -0.354713
H 0.256251 0.000082 1.377980
H 0.834774 -1.747067 1.318708
H -2.841096 -0.845384 -0.305981
H -1.807493 0.589887 -0.031306
H -1.762255 -0.288173 -1.572930
$end
$scan
stre 2 4 3.000000 3.001000 0.100000
$end
--------------------------------------------------------------
 ----------------------------------------------------------------
             Standard Nuclear Orientation (Angstroms)
    I     Atom           X                Y                Z
 ----------------------------------------------------------------
    1      Br      2.0277350000    -0.4252670000    -0.7087760000
    2      Br      0.8494260000     2.0289090000     0.2443970000
    3      C      -0.7907390000    -1.3096250000     0.0208840000
    4      C       0.2537790000    -0.9491960000     0.8657670000
    5      C      -1.8529050000    -0.4008820000    -0.4832210000
    6      H      -0.8026830000    -2.3322850000    -0.3547130000
    7      H       0.2562510000     0.0000820000     1.3779800000
    8      H       0.8347740000    -1.7470670000     1.3187080000
    9      H      -2.8410960000    -0.8453840000    -0.3059810000
   10      H      -1.8074930000     0.5898870000    -0.0313060000
   11      H      -1.7622550000    -0.2881730000    -1.5729300000
 ----------------------------------------------------------------
 Nuclear Repulsion Energy =   564.4319606323 hartrees
 There are       48 alpha and       46 beta electrons
 Requested basis set is 6-31G(d,p)
 There are 46 shells and 145 basis functions

 Total QAlloc Memory Limit   2000 MB
 Mega-Array Size       188 MB
 MEM_STATIC part       192 MB
A total of 1 constraints
  
            1
    1   1.0100000
    2   2.0100000
    3   4.0100000
    4   3.0000000
    5   3.0010000
    6   0.1000000
    7   0.0000000
    8   0.0000000
    9   0.0000000
   10   0.0000000

                       Distance Matrix (Angstroms)
             Br(  1)   Br(  2)   C (  3)   C (  4)   C (  5)   H (  6)
   Br(  2)  2.884429
   C (  3)  3.042744  3.726380
   C (  4)  2.429117  3.100001  1.390954
   C (  5)  3.887266  3.706198  1.485979  2.560964
   H (  6)  3.431231  4.701958  1.089518  2.125704  2.202226
   H (  7)  2.770131  2.398542  2.157135  1.078655  2.841369  3.092491
   H (  8)  2.698333  3.925857  2.125558  1.085960  3.504680  2.413314
   H (  9)  4.903494  4.710035  2.127516  3.310894  1.097961  2.523564
   H ( 10)  4.024733  3.034142  2.155147  2.724401  1.089914  3.106980
   H ( 11)  3.889676  3.936042  2.127781  3.232428  1.099266  2.565780
             H (  7)   H (  8)   H (  9)   H ( 10)
   H (  8)  1.841394
   H (  9)  3.625479  4.118819
   H ( 10)  2.567683  3.776965  1.789912
   H ( 11)  3.586827  4.151446  1.754862  1.774723
 
 A cutoff of  1.0D-14 yielded    966 shell pairs
 There are      9721 function pairs
 
 -------------------------------------------------------
 OpenMP Integral Computing Module                       
 Release: version 1.0, May 2013, Q-Chem Inc. Pittsburgh 
 -------------------------------------------------------
 Integral Job Info:
 Integral job number is                      11
 Integral operator is                         1
 short-range coefficients                     0
 long-range coefficients              100000000
 Omega coefficients                           0
 if combine SR and LR in K                    0
 Integral screening is                        0
 Integral computing path is                   2
 max size of driver memory is            800000
 size of driver memory is                593474
 size of scratch memory is             15267112
 max col of scratch BK array               1296
 max len of scratch array in speh3          155
 max len of scratch index in speh4           18
 max int batch size is                      520
 min int batch size is                       52
 fixed nKL is                                52
 max L of basis functions is                  2
 order of int derivative is                   0
 number of shells is                         46
 number of basis is                         145
 number of cartesian basis is               145
 number of contracted shell pairs           966
 number of primitive shell pairs           4110
 maxK2 (contraction) of shell pair           36
 max number of K2 of shell pair               1
 max number of CS2 of shell pair             67
 max number of PS2 of shell pair            402
 mem total for path MDJ                  532188
 -------------------------------------------------------
 Smallest overlap matrix eigenvalue = 7.22E-04

 Scale SEOQF with 1.000000e-01/1.000000e-01/1.000000e-01

 Standard Electronic Orientation quadrupole field applied
 Nucleus-field energy     =     0.0000000167 hartrees
 Guess from superposition of atomic densities
 Warning:  Energy on first SCF cycle will be non-variational
 SAD guess density has 93.945746 electrons

 -----------------------------------------------------------------------
  General SCF calculation program by
  Eric Jon Sundstrom, Paul Horn, Yuezhi Mao, Dmitri Zuev, Alec White,
  David Stuck, Shaama M.S., Shane Yost, Joonho Lee, David Small,
  Daniel Levine, Susi Lehtola, Hugh Burton, Evgeny Epifanovsky
 -----------------------------------------------------------------------
 Exchange:     0.2000 Hartree-Fock + 0.0800 Slater + 0.7200 B88
 Correlation:  0.1900 VWN1RPA + 0.8100 LYP
 Using SG-1 standard quadrature grid
 using 12 threads for integral computing
 -------------------------------------------------------
 OpenMP Integral computing Module                
 Release: version 1.0, May 2013, Q-Chem Inc. Pittsburgh 
 -------------------------------------------------------
 -------------------------------------------------------
 OpenMP BLAS3 based DFT computing Module                
 Release: version 1.0, May 2013, Q-Chem Inc. Pittsburgh 
 -------------------------------------------------------
 A unrestricted SCF calculation will be
 performed using DIIS
 SCF converges when DIIS error is below 1.0e-06
 Alpha HF Exchange    Energy = -19.60949883060677
 Beta HF Exchange     Energy = -19.60949883060677
 DFT Correlation      Energy =  -5.20005336613119
 DFT Exchange         Energy = -155.87040301759959
 One-Electron (alpha) Energy = -4220.77879029228097
 One-Electron (beta)  Energy = -4220.77879029228097
 Total Coulomb        Energy = 2804.48726851893480
 ---------------------------------------
  Cycle       Energy         DIIS error
 ---------------------------------------
    1   -5272.9278054615      1.83e-01  
 Alpha HF Exchange    Energy = -19.84151630427619
 Beta HF Exchange     Energy = -19.61848833820888
 DFT Correlation      Energy =  -5.24721331324100
 DFT Exchange         Energy = -157.05842573101069
 One-Electron (alpha) Energy = -4258.95251795554941
 One-Electron (beta)  Energy = -4204.43813290341132
 Total Coulomb        Energy = 2835.23697412642650
    2   -5265.4873597702      1.04e-02  
 Alpha HF Exchange    Energy = -19.69759143559427
 Beta HF Exchange     Energy = -19.48347818861748
 DFT Correlation      Energy =  -5.21024690383908
 DFT Exchange         Energy = -155.94934352694509
 One-Electron (alpha) Energy = -4242.64567154222368
 One-Electron (beta)  Energy = -4188.24892550771801
 Total Coulomb        Energy = 2801.29653280762705
    3   -5265.5067636483      3.97e-03  
 Alpha HF Exchange    Energy = -19.81182919834282
 Beta HF Exchange     Energy = -19.58987446147249
 DFT Correlation      Energy =  -5.23661459907754
 DFT Exchange         Energy = -156.81029428931060
 One-Electron (alpha) Energy = -4256.10980563656904
 One-Electron (beta)  Energy = -4200.79273508835922
 Total Coulomb        Energy = 2828.35651346899613
    4   -5265.5626791551      2.90e-03  
 Alpha HF Exchange    Energy = -19.77500782295941
 Beta HF Exchange     Energy = -19.55449694147493
 DFT Correlation      Energy =  -5.22876956472487
 DFT Exchange         Energy = -156.52722369592058
 One-Electron (alpha) Energy = -4251.59116617805466
 One-Electron (beta)  Energy = -4196.65826581663714
 Total Coulomb        Energy = 2819.27936627747386
    5   -5265.6236030933      5.38e-04  
 Alpha HF Exchange    Energy = -19.76978184967414
 Beta HF Exchange     Energy = -19.55003856290768
 DFT Correlation      Energy =  -5.22731931485952
 DFT Exchange         Energy = -156.48851979721479
 One-Electron (alpha) Energy = -4251.14030499230648
 One-Electron (beta)  Energy = -4196.11005734691116
 Total Coulomb        Energy = 2818.22757795217058
    6   -5265.6264832627      1.02e-04  
 Alpha HF Exchange    Energy = -19.76948784693483
 Beta HF Exchange     Energy = -19.55008887462289
 DFT Correlation      Energy =  -5.22695012543760
 DFT Exchange         Energy = -156.48590065132842
 One-Electron (alpha) Energy = -4251.05634861437829
 One-Electron (beta)  Energy = -4196.09806852810834
 Total Coulomb        Energy = 2818.12820864406604
    7   -5265.6266753477      6.25e-05  
 Alpha HF Exchange    Energy = -19.76969260780645
 Beta HF Exchange     Energy = -19.55025653666332
 DFT Correlation      Energy =  -5.22698927982640
 DFT Exchange         Energy = -156.48744814811997
 One-Electron (alpha) Energy = -4251.05534909613652
 One-Electron (beta)  Energy = -4196.06288990512166
 Total Coulomb        Energy = 2818.09392284237720
    8   -5265.6267420823      3.21e-05  
 Alpha HF Exchange    Energy = -19.76988127929917
 Beta HF Exchange     Energy = -19.55054075938774
 DFT Correlation      Energy =  -5.22696383469671
 DFT Exchange         Energy = -156.48881866681535
 One-Electron (alpha) Energy = -4251.08272480588857
 One-Electron (beta)  Energy = -4196.11023889233638
 Total Coulomb        Energy = 2818.17044396515666
    9   -5265.6267636242      1.47e-05  
 Alpha HF Exchange    Energy = -19.76989241011491
 Beta HF Exchange     Energy = -19.55055248452545
 DFT Correlation      Energy =  -5.22695773070135
 DFT Exchange         Energy = -156.48887267891769
 One-Electron (alpha) Energy = -4251.07287730719963
 One-Electron (beta)  Energy = -4196.10268208701928
 Total Coulomb        Energy = 2818.15310542791531
   10   -5265.6267686215      9.01e-06  
 Alpha HF Exchange    Energy = -19.76987744615356
 Beta HF Exchange     Energy = -19.55057740492034
 DFT Correlation      Energy =  -5.22693703393096
 DFT Exchange         Energy = -156.48882718534969
 One-Electron (alpha) Energy = -4251.07058522892021
 One-Electron (beta)  Energy = -4196.10528932760371
 Total Coulomb        Energy = 2818.15336292208440
   11   -5265.6267700558      2.18e-06  
 Alpha HF Exchange    Energy = -19.76987372575273
 Beta HF Exchange     Energy = -19.55057618436896
 DFT Correlation      Energy =  -5.22692921582209
 DFT Exchange         Energy = -156.48879412851676
 One-Electron (alpha) Energy = -4251.06830082701345
 One-Electron (beta)  Energy = -4196.10532227828480
 Total Coulomb        Energy = 2818.15106553975966
   12   -5265.6267701710      1.14e-06  
 Alpha HF Exchange    Energy = -19.76987302769500
 Beta HF Exchange     Energy = -19.55057928006179
 DFT Correlation      Energy =  -5.22692981477669
 DFT Exchange         Energy = -156.48880514073656
 One-Electron (alpha) Energy = -4251.06766778925885
 One-Electron (beta)  Energy = -4196.10600075396360
 Total Coulomb        Energy = 2818.15112494890445
   13   -5265.6267702086      2.79e-07  Convergence criterion met
 ---------------------------------------
 SCF time:   CPU 53.33s  wall 4.00s 
<S^2> =          2.011278424
 Alpha HF Exchange    Energy = -19.76987302769500
 Beta HF Exchange     Energy = -19.55057928006179
 DFT Correlation      Energy =  -5.22692981477669
 DFT Exchange         Energy = -156.48880514073656
 One-Electron (alpha) Energy = -4251.06766778925885
 One-Electron (beta)  Energy = -4196.10600075396360
 Total Coulomb        Energy = 2818.15112494890445
 Nuclear repulsion Energy = 564.43196064902338
 SCF   energy in the final basis set =    -5265.6267702086
 Total energy in the final basis set =    -5265.6267702086
 
 --------------------------------------------------------------
 
                    Orbital Energies (a.u.)
 --------------------------------------------------------------
 
 Alpha MOs
 -- Occupied --
*******-482.830 -62.529 -62.488 -56.350 -56.348 -56.346 -56.311
-56.305 -56.305 -10.262 -10.253 -10.212  -8.716  -8.675  -6.543
 -6.538  -6.531  -6.507  -6.492  -6.492  -2.638  -2.637  -2.632
 -2.628  -2.627  -2.599  -2.596  -2.596  -2.585  -2.585  -0.845
 -0.783  -0.733  -0.726  -0.606  -0.513  -0.470  -0.452  -0.411
 -0.397  -0.378  -0.354  -0.307  -0.267  -0.266  -0.259  -0.250
 -- Virtual --
 -0.046   0.077   0.112   0.128   0.143   0.144   0.158   0.211
  0.237   0.267   0.298   0.322   0.340   0.364   0.372   0.381
  0.413   0.439   0.472   0.498   0.512   0.535   0.559   0.567
  0.573   0.588   0.616   0.640   0.645   0.666   0.683   0.688
  0.727   0.758   0.818   0.829   0.835   0.878   0.884   0.936
  0.942   0.992   1.161   1.250   1.267   1.301   1.360   1.478
  1.602   1.724   1.774   1.786   1.826   1.869   1.877   1.970
  2.011   2.058   2.072   2.088   2.149   2.261   2.323   2.335
  2.418   2.450   2.500   2.578   2.636   2.672   2.780   2.831
  2.835   2.936   3.156   3.245   3.386   3.396   3.438   3.551
  4.156   4.387   4.532   4.663   4.690   4.715   4.733   4.744
  4.753   4.767   4.795   4.869   4.897   6.263   6.333  90.232
 90.429
 
 Beta MOs
 -- Occupied --
*******-482.828 -62.527 -62.487 -56.346 -56.345 -56.345 -56.306
-56.305 -56.305 -10.254 -10.252 -10.213  -8.712  -8.672  -6.537
 -6.533  -6.530  -6.499  -6.491  -6.491  -2.632  -2.632  -2.628
 -2.625  -2.625  -2.594  -2.591  -2.591  -2.584  -2.584  -0.830
 -0.756  -0.718  -0.701  -0.596  -0.508  -0.466  -0.438  -0.407
 -0.394  -0.345  -0.311  -0.296  -0.256  -0.256
 -- Virtual --
 -0.164  -0.154  -0.015   0.080   0.115   0.130   0.147   0.149
  0.161   0.219   0.243   0.276   0.303   0.331   0.353   0.377
  0.382   0.390   0.428   0.447   0.481   0.525   0.532   0.554
  0.572   0.584   0.593   0.606   0.625   0.650   0.664   0.681
  0.695   0.701   0.739   0.772   0.823   0.834   0.840   0.883
  0.906   0.940   0.947   1.001   1.165   1.261   1.277   1.308
  1.377   1.481   1.606   1.735   1.783   1.796   1.838   1.874
  1.894   1.981   2.014   2.062   2.076   2.091   2.161   2.265
  2.324   2.344   2.427   2.461   2.503   2.586   2.640   2.679
  2.783   2.834   2.839   2.939   3.159   3.247   3.390   3.400
  3.439   3.554   4.169   4.390   4.539   4.672   4.698   4.725
  4.742   4.751   4.759   4.773   4.801   4.878   4.909   6.275
  6.345  90.237  90.434
 --------------------------------------------------------------
 
          Ground-State Mulliken Net Atomic Charges

     Atom                 Charge (a.u.)    Spin (a.u.)
  --------------------------------------------------------
      1 Br                   -0.078257       0.756892
      2 Br                   -0.272255       0.687448
      3 C                     0.025147       0.549366
      4 C                    -0.256417       0.015466
      5 C                    -0.358581      -0.038597
      6 H                     0.131490      -0.024514
      7 H                     0.194250      -0.002416
      8 H                     0.162320       0.001674
      9 H                     0.135413       0.021153
     10 H                     0.159778       0.000357
     11 H                     0.157111       0.033171
  --------------------------------------------------------
  Sum of atomic charges =     0.000000
  Sum of spin   charges =     2.000000

 -----------------------------------------------------------------
                    Cartesian Multipole Moments
 -----------------------------------------------------------------
    Charge (ESU x 10^10)
                 0.0000
    Dipole Moment (Debye)
         X      -3.1793      Y      -3.9641      Z       0.5986
       Tot       5.1167
    Quadrupole Moments (Debye-Ang)
        XX     -56.9160     XY      -1.5400     YY     -58.4199
        XZ       1.3197     YZ      -0.7229     ZZ     -55.7725
    Octopole Moments (Debye-Ang^2)
       XXX    -120.5991    XXY     -17.5860    XYY     -44.6501
       YYY     -57.4651    XXZ       2.8234    XYZ      -3.6406
       YYZ       7.8457    XZZ     -37.0990    YZZ     -15.1958
       ZZZ      18.9401
    Hexadecapole Moments (Debye-Ang^3)
      XXXX    -783.3254   XXXY     -73.2971   XXYY    -251.0089
      XYYY     -92.6450   YYYY    -669.6422   XXXZ      32.6703
      XXYZ     -13.4464   XYYZ      14.6925   YYYZ     -28.8258
      XXZZ    -159.7652   XYZZ     -28.4371   YYZZ    -143.0408
      XZZZ      41.7882   YZZZ     -34.8588   ZZZZ    -180.3516
 -----------------------------------------------------------------
 Calculating analytic gradient of the SCF energy
 Gradient of SCF Energy
            1           2           3           4           5           6
    1  -0.0000176  -0.0038525  -0.0000521   0.0038993   0.0000102   0.0000231
    2  -0.0000068  -0.0195239  -0.0000674   0.0195228   0.0000189   0.0000162
    3   0.0000465   0.0040147   0.0000973  -0.0040863  -0.0000017  -0.0000215
            7           8           9          10          11
    1  -0.0000053  -0.0000252  -0.0000019   0.0000095   0.0000124
    2   0.0000250   0.0000283   0.0000129   0.0000066  -0.0000326
    3  -0.0000577   0.0000709  -0.0000138  -0.0000304  -0.0000179
 Max gradient component =       1.952E-02
 RMS gradient           =       5.001E-03
 Gradient time:  CPU 16.38 s  wall 1.44 s
 Geometry Optimization Parameters
   NAtoms,    NIC,     NZ,  NCons,   NDum,   NFix, NCnnct, MaxDiis
       11      63       0       1       0       0       0       0


** CONSTRAINED OPTIMIZATION IN DELOCALIZED INTERNAL COORDINATES **
   Searching for a Minimum

   Optimization Cycle:   1

                       Coordinates (Angstroms)
     ATOM                X               Y               Z
      1  Br        2.0277350000   -0.4252670000   -0.7087760000
      2  Br        0.8494260000    2.0289090000    0.2443970000
      3  C        -0.7907390000   -1.3096250000    0.0208840000
      4  C         0.2537790000   -0.9491960000    0.8657670000
      5  C        -1.8529050000   -0.4008820000   -0.4832210000
      6  H        -0.8026830000   -2.3322850000   -0.3547130000
      7  H         0.2562510000    0.0000820000    1.3779800000
      8  H         0.8347740000   -1.7470670000    1.3187080000
      9  H        -2.8410960000   -0.8453840000   -0.3059810000
     10  H        -1.8074930000    0.5898870000   -0.0313060000
     11  H        -1.7622550000   -0.2881730000   -1.5729300000
   Point Group: c1    Number of degrees of freedom:    27


   Energy is  -5265.626770209

              Constraints and their Current Values
                                        Value     Constraint
   Distance(Angs):        2   4             3.100001     3.000000

 Attempting to Generate Delocalized Internal Coordinates

   Using Lagrange Multiplier Algorithm


 28 Hessian modes will be used to form the next step
  Hessian Eigenvalues:
    -0.989422    0.045000    0.045000    0.045000    0.045045    0.049225
     0.063628    0.075195    0.092118    0.095890    0.097697    0.131221
     0.137187    0.159795    0.160000    0.160000    0.160000    0.220057
     0.221332    0.337634    0.338940    0.339087    0.348226    0.348684
     0.352837    0.361573    0.471531    1.010691

 Minimum Search - Taking P-RFO Step
 Searching for Lamda that Maximizes Along the Constraint modes Only
 Value Taken    Lamda =   0.02183570
 Searching for Lamda that Minimizes Along All other modes
 Value Taken    Lamda =  -0.01370686
 Step Taken.  Stepsize is  0.185585

                             Maximum     Tolerance    Cnvgd?
         Gradient            0.188974       0.000300      NO
         Displacement        0.185578       0.001200      NO
         Energy change     *********       0.000001      NO


 New Cartesian Coordinates Obtained by Inverse Iteration

 Displacement from previous Coordinates is:  0.210067
 ----------------------------------------------------------------
             Standard Nuclear Orientation (Angstroms)
    I     Atom           X                Y                Z
 ----------------------------------------------------------------
    1      Br      2.0307917321    -0.4381953598    -0.7235872424
    2      Br      0.7890237809     1.9598178112     0.2799519325
    3      C      -0.7868779804    -1.3017723808     0.0231278828
    4      C       0.2622115212    -0.9377485917     0.8607820366
    5      C      -1.8466797670    -0.3934286240    -0.4866186598
    6      H      -0.8049092272    -2.3282095337    -0.3417748108
    7      H       0.2708508308     0.0165197653     1.3636429344
    8      H       0.8411716561    -1.7337852606     1.3195068545
    9      H      -2.8362270914    -0.8316052174    -0.3013791720
   10      H      -1.7952205927     0.6017258242    -0.0451101161
   11      H      -1.7593408624    -0.2923194327    -1.5777326396
 ----------------------------------------------------------------
 Nuclear Repulsion Energy =   568.4557187022 hartrees
 There are       48 alpha and       46 beta electrons

                       Distance Matrix (Angstroms)
             Br(  1)   Br(  2)   C (  3)   C (  4)   C (  5)   H (  6)
   Br(  2)  2.880893
   C (  3)  3.040166  3.631445
   C (  4)  2.426449  3.001797  1.390959
   C (  5)  3.884964  3.615568  1.485971  2.561093
   H (  6)  3.429159  4.616746  1.089519  2.125623  2.202190
   H (  7)  2.767795  2.284578  2.157236  1.078690  2.841736  3.092485
   H (  8)  2.695920  3.837460  2.125507  1.085955  3.504738  2.413044
   H (  9)  4.901112  4.612205  2.127485  3.310922  1.097960  2.523432
   H ( 10)  4.022454  2.937414  2.155160  2.724637  1.089913  3.106968
   H ( 11)  3.887924  3.875213  2.127777  3.232585  1.099264  2.565810
             H (  7)   H (  8)   H (  9)   H ( 10)
   H (  8)  1.841407
   H (  9)  3.625679  4.118794
   H ( 10)  2.568210  3.777215  1.789918
   H ( 11)  3.587304  4.151444  1.754876  1.774693
 
 Applying Cartesian multipole field
    Component          Value
    ---------          -----
     (2,0,0)        1.00000E-11
     (0,2,0)        2.00000E-11
     (0,0,2)       -3.00000E-11
 Nucleus-field energy     =     0.0000000157 hartrees
 Requested basis set is 6-31G(d,p)
 There are 46 shells and 145 basis functions
 A cutoff of  1.0D-14 yielded    969 shell pairs
 There are      9747 function pairs
 Smallest overlap matrix eigenvalue = 7.22E-04
 Guess from superposition of atomic densities
 Warning:  Energy on first SCF cycle will be non-variational
 SAD guess density has 93.945746 electrons

 -----------------------------------------------------------------------
  General SCF calculation program by
  Eric Jon Sundstrom, Paul Horn, Yuezhi Mao, Dmitri Zuev, Alec White,
  David Stuck, Shaama M.S., Shane Yost, Joonho Lee, David Small,
  Daniel Levine, Susi Lehtola, Hugh Burton, Evgeny Epifanovsky
 -----------------------------------------------------------------------
 Exchange:     0.2000 Hartree-Fock + 0.0800 Slater + 0.7200 B88
 Correlation:  0.1900 VWN1RPA + 0.8100 LYP
 Using SG-1 standard quadrature grid
 using 12 threads for integral computing
 -------------------------------------------------------
 OpenMP Integral computing Module                
 Release: version 1.0, May 2013, Q-Chem Inc. Pittsburgh 
 -------------------------------------------------------
 -------------------------------------------------------
 OpenMP BLAS3 based DFT computing Module                
 Release: version 1.0, May 2013, Q-Chem Inc. Pittsburgh 
 -------------------------------------------------------
 A unrestricted SCF calculation will be
 performed using DIIS
 SCF converges when DIIS error is below 1.0e-06
 Alpha HF Exchange    Energy = -19.61139641032969
 Beta HF Exchange     Energy = -19.61139641032969
 DFT Correlation      Energy =  -5.20123008453142
 DFT Exchange         Energy = -155.87380305023373
 One-Electron (alpha) Energy = -4224.79947639201237
 One-Electron (beta)  Energy = -4224.79947639201237
 Total Coulomb        Energy = 2808.49098946861204
 ---------------------------------------
  Cycle       Energy         DIIS error
 ---------------------------------------
    1   -5272.9500705529      1.83e-01  
 Alpha HF Exchange    Energy = -19.84202825105501
 Beta HF Exchange     Energy = -19.61899953230287
 DFT Correlation      Energy =  -5.24827969869497
 DFT Exchange         Energy = -157.06269071540231
 One-Electron (alpha) Energy = -4263.02499325865483
 One-Electron (beta)  Energy = -4208.35991231099342
 Total Coulomb        Energy = 2839.21731244458806
    2   -5265.4838726046      1.04e-02  
 Alpha HF Exchange    Energy = -19.69857696844716
 Beta HF Exchange     Energy = -19.48614725949033
 DFT Correlation      Energy =  -5.21116043229494
 DFT Exchange         Energy = -155.95771985665596
 One-Electron (alpha) Energy = -4246.72297573116975
 One-Electron (beta)  Energy = -4192.56000003728786
 Total Coulomb        Energy = 2805.66944618996467
    3   -5265.5114153775      3.90e-03  
 Alpha HF Exchange    Energy = -19.81226574297028
 Beta HF Exchange     Energy = -19.59048975941464
 DFT Correlation      Energy =  -5.23796430118538
 DFT Exchange         Energy = -156.81520938933960
 One-Electron (alpha) Energy = -4260.07735746591061
 One-Electron (beta)  Energy = -4204.65023966599074
 Total Coulomb        Energy = 2832.16058040803227
    4   -5265.5672271989      2.77e-03  
 Alpha HF Exchange    Energy = -19.77476740860230
 Beta HF Exchange     Energy = -19.55475353393131
 DFT Correlation      Energy =  -5.22949770485740
 DFT Exchange         Energy = -156.52617666185898
 One-Electron (alpha) Energy = -4255.53365284979373
 One-Electron (beta)  Energy = -4200.57923024085267
 Total Coulomb        Energy = 2823.12248952537720
    5   -5265.6198701566      4.73e-04  
 Alpha HF Exchange    Energy = -19.77047103734130
 Beta HF Exchange     Energy = -19.55108752855859
 DFT Correlation      Energy =  -5.22842136588307
 DFT Exchange         Energy = -156.49490621147973
 One-Electron (alpha) Energy = -4255.18908051043218
 One-Electron (beta)  Energy = -4200.11857240891823
 Total Coulomb        Energy = 2822.27473784233507
    6   -5265.6220825024      8.70e-05  
 Alpha HF Exchange    Energy = -19.77011415266139
 Beta HF Exchange     Energy = -19.55093853825570
 DFT Correlation      Energy =  -5.22808173480816
 DFT Exchange         Energy = -156.49165669567938
 One-Electron (alpha) Energy = -4255.10760000919890
 One-Electron (beta)  Energy = -4200.08960825419581
 Total Coulomb        Energy = 2822.16007967136147
    7   -5265.6222009955      4.97e-05  
 Alpha HF Exchange    Energy = -19.77026732233994
 Beta HF Exchange     Energy = -19.55101625034806
 DFT Correlation      Energy =  -5.22809491371619
 DFT Exchange         Energy = -156.49265561144213
 One-Electron (alpha) Energy = -4255.10612953471173
 One-Electron (beta)  Energy = -4200.05615577215667
 Total Coulomb        Energy = 2822.12636000707880
    8   -5265.6222406797      2.72e-05  
 Alpha HF Exchange    Energy = -19.77043334162448
 Beta HF Exchange     Energy = -19.55124431738459
 DFT Correlation      Energy =  -5.22807077513835
 DFT Exchange         Energy = -156.49379908964821
 One-Electron (alpha) Energy = -4255.12973496244558
 One-Electron (beta)  Energy = -4200.09140134960762
 Total Coulomb        Energy = 2822.18671028020117
    9   -5265.6222548377      1.25e-05  
 Alpha HF Exchange    Energy = -19.77045698948166
 Beta HF Exchange     Energy = -19.55125219537453
 DFT Correlation      Energy =  -5.22807265145912
 DFT Exchange         Energy = -156.49391712508557
 One-Electron (alpha) Energy = -4255.12417641524189
 One-Electron (beta)  Energy = -4200.08489202129749
 Total Coulomb        Energy = 2822.17479051813643
   10   -5265.6222581619      6.48e-06  
 Alpha HF Exchange    Energy = -19.77045121535663
 Beta HF Exchange     Energy = -19.55127315816923
 DFT Correlation      Energy =  -5.22805839750042
 DFT Exchange         Energy = -156.49391314672965
 One-Electron (alpha) Energy = -4255.12290916859547
 One-Electron (beta)  Energy = -4200.08714956417043
 Total Coulomb        Energy = 2822.17577697701972
   11   -5265.6222589556      1.84e-06  
 Alpha HF Exchange    Energy = -19.77044420358268
 Beta HF Exchange     Energy = -19.55126932718047
 DFT Correlation      Energy =  -5.22805148815033
 DFT Exchange         Energy = -156.49385921820851
 One-Electron (alpha) Energy = -4255.12084098569267
 One-Electron (beta)  Energy = -4200.08680238276065
 Total Coulomb        Energy = 2822.17328986572966
   12   -5265.6222590219      7.49e-07  Convergence criterion met
 ---------------------------------------
 SCF time:   CPU 49.02s  wall 4.00s 
<S^2> =          2.011006983
 Alpha HF Exchange    Energy = -19.77044420358268
 Beta HF Exchange     Energy = -19.55126932718047
 DFT Correlation      Energy =  -5.22805148815033
 DFT Exchange         Energy = -156.49385921820851
 One-Electron (alpha) Energy = -4255.12084098569267
 One-Electron (beta)  Energy = -4200.08680238276065
 Total Coulomb        Energy = 2822.17328986572966
 Nuclear repulsion Energy = 568.45571871792140
 SCF   energy in the final basis set =    -5265.6222590219
 Total energy in the final basis set =    -5265.6222590219
 
 --------------------------------------------------------------
 
                    Orbital Energies (a.u.)
 --------------------------------------------------------------
 
 Alpha MOs
 -- Occupied --
*******-482.831 -62.528 -62.489 -56.349 -56.348 -56.345 -56.311
-56.306 -56.306 -10.261 -10.251 -10.211  -8.715  -8.676  -6.543
 -6.538  -6.531  -6.508  -6.493  -6.493  -2.637  -2.637  -2.632
 -2.628  -2.627  -2.600  -2.597  -2.596  -2.585  -2.585  -0.845
 -0.783  -0.734  -0.725  -0.605  -0.512  -0.470  -0.451  -0.411
 -0.397  -0.378  -0.353  -0.307  -0.268  -0.265  -0.259  -0.250
 -- Virtual --
 -0.045   0.078   0.113   0.131   0.144   0.146   0.160   0.211
  0.238   0.269   0.296   0.323   0.341   0.363   0.370   0.383
  0.412   0.440   0.470   0.498   0.511   0.536   0.558   0.567
  0.572   0.589   0.615   0.642   0.644   0.673   0.687   0.692
  0.733   0.762   0.820   0.830   0.841   0.878   0.886   0.942
  0.946   0.994   1.169   1.252   1.275   1.303   1.362   1.483
  1.603   1.724   1.776   1.792   1.825   1.871   1.877   1.970
  2.013   2.059   2.074   2.089   2.151   2.264   2.324   2.337
  2.419   2.453   2.502   2.581   2.637   2.673   2.781   2.832
  2.836   2.937   3.158   3.247   3.388   3.397   3.439   3.552
  4.156   4.389   4.533   4.664   4.691   4.715   4.733   4.744
  4.754   4.773   4.808   4.874   4.900   6.263   6.334  90.236
 90.434
 
 Beta MOs
 -- Occupied --
*******-482.829 -62.527 -62.488 -56.346 -56.345 -56.344 -56.307
-56.305 -56.305 -10.254 -10.250 -10.212  -8.712  -8.673  -6.537
 -6.533  -6.529  -6.500  -6.492  -6.492  -2.632  -2.631  -2.628
 -2.625  -2.625  -2.594  -2.592  -2.592  -2.585  -2.585  -0.829
 -0.757  -0.717  -0.703  -0.596  -0.507  -0.466  -0.438  -0.407
 -0.394  -0.345  -0.311  -0.296  -0.257  -0.255
 -- Virtual --
 -0.165  -0.154  -0.014   0.081   0.116   0.134   0.148   0.150
  0.163   0.219   0.244   0.278   0.301   0.332   0.353   0.376
  0.381   0.392   0.427   0.448   0.479   0.523   0.531   0.555
  0.571   0.583   0.593   0.607   0.624   0.654   0.665   0.686
  0.698   0.705   0.745   0.777   0.825   0.836   0.845   0.884
  0.905   0.948   0.951   1.003   1.174   1.264   1.285   1.311
  1.379   1.486   1.607   1.736   1.784   1.804   1.837   1.876
  1.894   1.982   2.016   2.063   2.077   2.091   2.162   2.268
  2.325   2.346   2.428   2.464   2.505   2.589   2.641   2.679
  2.783   2.835   2.840   2.939   3.161   3.249   3.391   3.401
  3.440   3.555   4.169   4.392   4.540   4.674   4.698   4.726
  4.741   4.750   4.761   4.778   4.814   4.883   4.912   6.275
  6.346  90.241  90.439
 --------------------------------------------------------------
 
          Ground-State Mulliken Net Atomic Charges

     Atom                 Charge (a.u.)    Spin (a.u.)
  --------------------------------------------------------
      1 Br                   -0.079758       0.753028
      2 Br                   -0.269497       0.683429
      3 C                     0.027473       0.553779
      4 C                    -0.259157       0.020085
      5 C                    -0.358308      -0.038869
      6 H                     0.131099      -0.024694
      7 H                     0.196133      -0.003387
      8 H                     0.160953       0.001610
      9 H                     0.134684       0.021135
     10 H                     0.160000       0.000343
     11 H                     0.156379       0.033542
  --------------------------------------------------------
  Sum of atomic charges =    -0.000000
  Sum of spin   charges =     2.000000

 -----------------------------------------------------------------
                    Cartesian Multipole Moments
 -----------------------------------------------------------------
    Charge (ESU x 10^10)
                -0.0000
    Dipole Moment (Debye)
         X      -3.1056      Y      -3.8421      Z       0.5738
       Tot       4.9735
    Quadrupole Moments (Debye-Ang)
        XX     -56.8524     XY      -1.3390     YY     -58.2185
        XZ       1.3113     YZ      -0.7806     ZZ     -55.8002
    Octopole Moments (Debye-Ang^2)
       XXX    -117.4740    XXY     -15.7629    XYY     -43.1615
       YYY     -52.5936    XXZ       2.6055    XYZ      -3.6323
       YYZ       7.3365    XZZ     -36.1134    YZZ     -13.6917
       ZZZ      17.8251
    Hexadecapole Moments (Debye-Ang^3)
      XXXX    -772.9424   XXXY     -60.6841   XXYY    -242.7851
      XYYY     -79.0937   YYYY    -637.8397   XXXZ      33.6182
      XXYZ     -14.6911   XYYZ      14.6280   YYYZ     -33.3683
      XXZZ    -158.5507   XYZZ     -24.3424   YYZZ    -138.2307
      XZZZ      42.5704   YZZZ     -38.7799   ZZZZ    -184.5620
 -----------------------------------------------------------------
 Calculating analytic gradient of the SCF energy
 Gradient of SCF Energy
            1           2           3           4           5           6
    1  -0.0002152  -0.0054980   0.0004380   0.0038516   0.0004443   0.0000836
    2   0.0000529  -0.0261485   0.0003241   0.0225105   0.0000015   0.0000457
    3   0.0001617   0.0054195   0.0005100  -0.0061062  -0.0001289   0.0000424
            7           8           9          10          11
    1   0.0007252   0.0000629  -0.0000049   0.0000952   0.0000173
    2   0.0021779   0.0005459   0.0001763   0.0003336  -0.0000199
    3  -0.0004566   0.0003566   0.0000553   0.0001308   0.0000156
 Max gradient component =       2.615E-02
 RMS gradient           =       6.298E-03
 Gradient time:  CPU 16.61 s  wall 1.45 s
 Geometry Optimization Parameters
   NAtoms,    NIC,     NZ,  NCons,   NDum,   NFix, NCnnct, MaxDiis
       11      63       0       1       0       0       0       0

 Cartesian Hessian Update
 Hessian Updated using BFGS Update


** CONSTRAINED OPTIMIZATION IN DELOCALIZED INTERNAL COORDINATES **
   Searching for a Minimum

   Optimization Cycle:   2

                       Coordinates (Angstroms)
     ATOM                X               Y               Z
      1  Br        2.0307917321   -0.4381953598   -0.7235872424
      2  Br        0.7890237809    1.9598178112    0.2799519325
      3  C        -0.7868779804   -1.3017723808    0.0231278828
      4  C         0.2622115212   -0.9377485917    0.8607820366
      5  C        -1.8466797670   -0.3934286240   -0.4866186598
      6  H        -0.8049092272   -2.3282095337   -0.3417748108
      7  H         0.2708508308    0.0165197653    1.3636429344
      8  H         0.8411716561   -1.7337852606    1.3195068545
      9  H        -2.8362270914   -0.8316052174   -0.3013791720
     10  H        -1.7952205927    0.6017258242   -0.0451101161
     11  H        -1.7593408624   -0.2923194327   -1.5777326396
   Point Group: c1    Number of degrees of freedom:    27


   Energy is  -5265.622259022

              Constraints and their Current Values
                                        Value     Constraint
   Distance(Angs):        2   4             3.001797     3.000000
 Hessian Updated using BFGS Update

   Using Lagrange Multiplier Algorithm


 26 Hessian modes will be used to form the next step
  Hessian Eigenvalues:
    -0.980018    0.044999    0.045039    0.045568    0.050028    0.063683
     0.076211    0.092119    0.095898    0.103034    0.131465    0.137373
     0.159797    0.160000    0.160061    0.221318    0.222864    0.337634
     0.338944    0.339090    0.348316    0.348686    0.352862    0.363721
     0.472960    1.021052

 Minimum Search - Taking P-RFO Step
 Searching for Lamda that Maximizes Along the Constraint modes Only
 Value Taken    Lamda =   0.00003314
 Searching for Lamda that Minimizes Along All other modes
 Value Taken    Lamda =  -0.00016686
 Step Taken.  Stepsize is  0.042494

                             Maximum     Tolerance    Cnvgd?
         Gradient            0.004775       0.000300      NO
         Displacement        0.023552       0.001200      NO
         Energy change      0.004511       0.000001      NO


 New Cartesian Coordinates Obtained by Inverse Iteration

 Displacement from previous Coordinates is:  0.126846
 ----------------------------------------------------------------
             Standard Nuclear Orientation (Angstroms)
    I     Atom           X                Y                Z
 ----------------------------------------------------------------
    1      Br      2.0424859056    -0.4396825346    -0.7229122177
    2      Br      0.8370503103     1.9621807553     0.2897765071
    3      C      -0.7874789207    -1.2945455226     0.0207665174
    4      C       0.2613893790    -0.9264652800     0.8592842566
    5      C      -1.8586467110    -0.3991149398    -0.4883387979
    6      H      -0.7979893649    -2.3211982622    -0.3440345117
    7      H       0.2670815881     0.0200120572     1.3720487471
    8      H       0.8368460753    -1.7279327786     1.3135830815
    9      H      -2.8419672218    -0.8508573843    -0.3019593309
   10      H      -1.8201063949     0.5964571888    -0.0477480338
   11      H      -1.7738706448    -0.2978542993    -1.5796572178
 ----------------------------------------------------------------
 Nuclear Repulsion Energy =   567.7900031650 hartrees
 There are       48 alpha and       46 beta electrons

                       Distance Matrix (Angstroms)
             Br(  1)   Br(  2)   C (  3)   C (  4)   C (  5)   H (  6)
   Br(  2)  2.871857
   C (  3)  3.048368  3.649346
   C (  4)  2.431585  3.000000  1.392379
   C (  5)  3.908389  3.667146  1.486063  2.566854
   H (  6)  3.428112  4.628435  1.089590  2.124980  2.200050
   H (  7)  2.784285  2.295255  2.160121  1.076466  2.855771  3.092019
   H (  8)  2.694526  3.829506  2.120762  1.086226  3.504049  2.402571
   H (  9)  4.919771  4.668887  2.126484  3.314367  1.098056  2.518237
   H ( 10)  4.055743  3.006594  2.155668  2.733976  1.089389  3.105676
   H ( 11)  3.913912  3.926761  2.127844  3.238189  1.099280  2.563792
             H (  7)   H (  8)   H (  9)   H ( 10)
   H (  8)  1.839391
   H (  9)  3.636881  4.112530
   H ( 10)  2.589298  3.783571  1.789844
   H ( 11)  3.602651  4.151121  1.754752  1.774451
 
 Applying Cartesian multipole field
    Component          Value
    ---------          -----
     (2,0,0)        1.00000E-11
     (0,2,0)        2.00000E-11
     (0,0,2)       -3.00000E-11
 Nucleus-field energy     =     0.0000000159 hartrees
 Requested basis set is 6-31G(d,p)
 There are 46 shells and 145 basis functions
 A cutoff of  1.0D-14 yielded    966 shell pairs
 There are      9721 function pairs
 Smallest overlap matrix eigenvalue = 7.22E-04
 Guess from superposition of atomic densities
 Warning:  Energy on first SCF cycle will be non-variational
 SAD guess density has 93.945746 electrons

 -----------------------------------------------------------------------
  General SCF calculation program by
  Eric Jon Sundstrom, Paul Horn, Yuezhi Mao, Dmitri Zuev, Alec White,
  David Stuck, Shaama M.S., Shane Yost, Joonho Lee, David Small,
  Daniel Levine, Susi Lehtola, Hugh Burton, Evgeny Epifanovsky
 -----------------------------------------------------------------------
 Exchange:     0.2000 Hartree-Fock + 0.0800 Slater + 0.7200 B88
 Correlation:  0.1900 VWN1RPA + 0.8100 LYP
 Using SG-1 standard quadrature grid
 using 12 threads for integral computing
 -------------------------------------------------------
 OpenMP Integral computing Module                
 Release: version 1.0, May 2013, Q-Chem Inc. Pittsburgh 
 -------------------------------------------------------
 -------------------------------------------------------
 OpenMP BLAS3 based DFT computing Module                
 Release: version 1.0, May 2013, Q-Chem Inc. Pittsburgh 
 -------------------------------------------------------
 A unrestricted SCF calculation will be
 performed using DIIS
 SCF converges when DIIS error is below 1.0e-06
 Alpha HF Exchange    Energy = -19.61102214250762
 Beta HF Exchange     Energy = -19.61102214250762
 DFT Correlation      Energy =  -5.20095120351818
 DFT Exchange         Energy = -155.87321926801371
 One-Electron (alpha) Energy = -4224.13352565202695
 One-Electron (beta)  Energy = -4224.13352565202695
 Total Coulomb        Energy = 2807.82621682522267
 ---------------------------------------
  Cycle       Energy         DIIS error
 ---------------------------------------
    1   -5272.9470460545      1.83e-01  
 Alpha HF Exchange    Energy = -19.84203608611710
 Beta HF Exchange     Energy = -19.61905109504663
 DFT Correlation      Energy =  -5.24807312796710
 DFT Exchange         Energy = -157.06273025433990
 One-Electron (alpha) Energy = -4262.38510578014302
 One-Electron (beta)  Energy = -4207.74264580602721
 Total Coulomb        Energy = 2838.62625790608990
    2   -5265.4833810626      1.04e-02  
 Alpha HF Exchange    Energy = -19.69825075917666
 Beta HF Exchange     Energy = -19.48555312192903
 DFT Correlation      Energy =  -5.21091201809466
 DFT Exchange         Energy = -155.95515299872901
 One-Electron (alpha) Energy = -4246.01782652800921
 One-Electron (beta)  Energy = -4191.80176268322793
 Total Coulomb        Energy = 2804.86989732115580
    3   -5265.5095576071      3.92e-03  
 Alpha HF Exchange    Energy = -19.81237032441181
 Beta HF Exchange     Energy = -19.59063287817468
 DFT Correlation      Energy =  -5.23769460284015
 DFT Exchange         Energy = -156.81565510422527
 One-Electron (alpha) Energy = -4259.48340148466013
 One-Electron (beta)  Energy = -4204.07436425675860
 Total Coulomb        Energy = 2831.65838002819237
    4   -5265.5657354420      2.80e-03  
 Alpha HF Exchange    Energy = -19.77477804192488
 Beta HF Exchange     Energy = -19.55455894063629
 DFT Correlation      Energy =  -5.22935319156393
 DFT Exchange         Energy = -156.52606231548708
 One-Electron (alpha) Energy = -4254.87218263368413
 One-Electron (beta)  Energy = -4199.89068888392103
 Total Coulomb        Energy = 2822.43787143972986
    5   -5265.6197493866      4.84e-04  
 Alpha HF Exchange    Energy = -19.77038454039533
 Beta HF Exchange     Energy = -19.55101489677709
 DFT Correlation      Energy =  -5.22817155665375
 DFT Exchange         Energy = -156.49422338181870
 One-Electron (alpha) Energy = -4254.54487499589322
 One-Electron (beta)  Energy = -4199.47990829796709
 Total Coulomb        Energy = 2821.65650624237560
    6   -5265.6220682462      8.63e-05  
 Alpha HF Exchange    Energy = -19.76998874571922
 Beta HF Exchange     Energy = -19.55074200715625
 DFT Correlation      Energy =  -5.22785222514246
 DFT Exchange         Energy = -156.49062000549830
 One-Electron (alpha) Energy = -4254.43946218952351
 One-Electron (beta)  Energy = -4199.41414811138748
 Total Coulomb        Energy = 2821.48061101423946
    7   -5265.6221990893      4.66e-05  
 Alpha HF Exchange    Energy = -19.77020414802865
 Beta HF Exchange     Energy = -19.55096502567296
 DFT Correlation      Energy =  -5.22784877050681
 DFT Exchange         Energy = -156.49217211714625
 One-Electron (alpha) Energy = -4254.45671383986701
 One-Electron (beta)  Energy = -4199.41251443179681
 Total Coulomb        Energy = 2821.49817576308033
    8   -5265.6222393890      2.20e-05  
 Alpha HF Exchange    Energy = -19.77035984263191
 Beta HF Exchange     Energy = -19.55114723148809
 DFT Correlation      Energy =  -5.22783121885871
 DFT Exchange         Energy = -156.49317290658942
 One-Electron (alpha) Energy = -4254.47052318860642
 One-Electron (beta)  Energy = -4199.43737589192824
 Total Coulomb        Energy = 2821.53815557614598
    9   -5265.6222515230      9.44e-06  
 Alpha HF Exchange    Energy = -19.77036012210749
 Beta HF Exchange     Energy = -19.55114766859369
 DFT Correlation      Energy =  -5.22783282011973
 DFT Exchange         Energy = -156.49319562184263
 One-Electron (alpha) Energy = -4254.46410591082440
 One-Electron (beta)  Energy = -4199.42914092808769
 Total Coulomb        Energy = 2821.52352648733950
   10   -5265.6222534033      7.38e-06  
 Alpha HF Exchange    Energy = -19.77035956905656
 Beta HF Exchange     Energy = -19.55117566509599
 DFT Correlation      Energy =  -5.22781483617745
 DFT Exchange         Energy = -156.49321136523113
 One-Electron (alpha) Energy = -4254.46446755352281
 One-Electron (beta)  Energy = -4199.43538615329726
 Total Coulomb        Energy = 2821.53015771740320
   11   -5265.6222542441      2.16e-06  
 Alpha HF Exchange    Energy = -19.77035110645535
 Beta HF Exchange     Energy = -19.55116735880045
 DFT Correlation      Energy =  -5.22780989279621
 DFT Exchange         Energy = -156.49314850686810
 One-Electron (alpha) Energy = -4254.46183815591849
 One-Electron (beta)  Energy = -4199.43372900401573
 Total Coulomb        Energy = 2821.52578651786325
   12   -5265.6222543261      8.45e-07  Convergence criterion met
 ---------------------------------------
 SCF time:   CPU 49.46s  wall 4.00s 
<S^2> =          2.011099985
 Alpha HF Exchange    Energy = -19.77035110645535
 Beta HF Exchange     Energy = -19.55116735880045
 DFT Correlation      Energy =  -5.22780989279621
 DFT Exchange         Energy = -156.49314850686810
 One-Electron (alpha) Energy = -4254.46183815591849
 One-Electron (beta)  Energy = -4199.43372900401573
 Total Coulomb        Energy = 2821.52578651786325
 Nuclear repulsion Energy = 567.79000318091073
 SCF   energy in the final basis set =    -5265.6222543261
 Total energy in the final basis set =    -5265.6222543261
 
 --------------------------------------------------------------
 
                    Orbital Energies (a.u.)
 --------------------------------------------------------------
 
 Alpha MOs
 -- Occupied --
*******-482.830 -62.528 -62.488 -56.349 -56.347 -56.345 -56.310
-56.305 -56.305 -10.262 -10.252 -10.212  -8.715  -8.675  -6.543
 -6.538  -6.531  -6.507  -6.492  -6.492  -2.637  -2.637  -2.632
 -2.628  -2.627  -2.599  -2.596  -2.596  -2.585  -2.585  -0.845
 -0.783  -0.733  -0.726  -0.605  -0.512  -0.471  -0.452  -0.411
 -0.397  -0.379  -0.353  -0.307  -0.267  -0.265  -0.259  -0.250
 -- Virtual --
 -0.046   0.077   0.113   0.131   0.143   0.145   0.160   0.211
  0.237   0.268   0.296   0.323   0.341   0.363   0.370   0.382
  0.412   0.441   0.470   0.498   0.510   0.536   0.558   0.567
  0.572   0.588   0.615   0.643   0.645   0.671   0.686   0.689
  0.731   0.761   0.821   0.830   0.839   0.878   0.887   0.937
  0.943   0.992   1.167   1.251   1.273   1.304   1.361   1.484
  1.605   1.723   1.775   1.790   1.825   1.871   1.875   1.969
  2.011   2.058   2.072   2.088   2.151   2.263   2.324   2.336
  2.416   2.453   2.501   2.580   2.638   2.675   2.781   2.832
  2.836   2.937   3.157   3.248   3.388   3.397   3.438   3.551
  4.154   4.387   4.533   4.663   4.690   4.715   4.733   4.745
  4.754   4.772   4.807   4.874   4.903   6.262   6.335  90.229
 90.437
 
 Beta MOs
 -- Occupied --
*******-482.828 -62.527 -62.487 -56.346 -56.345 -56.344 -56.306
-56.305 -56.304 -10.254 -10.251 -10.213  -8.712  -8.672  -6.537
 -6.533  -6.529  -6.499  -6.491  -6.491  -2.632  -2.631  -2.628
 -2.625  -2.624  -2.594  -2.591  -2.591  -2.584  -2.584  -0.829
 -0.757  -0.718  -0.702  -0.596  -0.507  -0.467  -0.438  -0.407
 -0.394  -0.345  -0.311  -0.296  -0.256  -0.254
 -- Virtual --
 -0.165  -0.153  -0.015   0.080   0.115   0.133   0.147   0.150
  0.163   0.219   0.243   0.277   0.301   0.331   0.354   0.376
  0.380   0.391   0.427   0.449   0.479   0.523   0.531   0.555
  0.571   0.584   0.593   0.607   0.624   0.655   0.664   0.684
  0.695   0.705   0.742   0.776   0.826   0.835   0.844   0.883
  0.906   0.942   0.949   1.001   1.172   1.263   1.283   1.312
  1.378   1.487   1.609   1.735   1.783   1.801   1.837   1.876
  1.891   1.981   2.014   2.062   2.075   2.091   2.162   2.267
  2.325   2.345   2.425   2.464   2.504   2.587   2.642   2.682
  2.783   2.835   2.840   2.939   3.160   3.251   3.391   3.400
  3.439   3.554   4.167   4.390   4.540   4.672   4.698   4.725
  4.741   4.751   4.761   4.777   4.814   4.882   4.915   6.274
  6.347  90.234  90.442
 --------------------------------------------------------------
 
          Ground-State Mulliken Net Atomic Charges

     Atom                 Charge (a.u.)    Spin (a.u.)
  --------------------------------------------------------
      1 Br                   -0.079707       0.754706
      2 Br                   -0.271611       0.683130
      3 C                     0.026976       0.552312
      4 C                    -0.257676       0.020132
      5 C                    -0.358527      -0.038722
      6 H                     0.131312      -0.024637
      7 H                     0.196230      -0.003567
      8 H                     0.161142       0.001711
      9 H                     0.135376       0.021005
     10 H                     0.159758       0.000412
     11 H                     0.156727       0.033518
  --------------------------------------------------------
  Sum of atomic charges =     0.000000
  Sum of spin   charges =     2.000000

 -----------------------------------------------------------------
                    Cartesian Multipole Moments
 -----------------------------------------------------------------
    Charge (ESU x 10^10)
                -0.0000
    Dipole Moment (Debye)
         X      -3.1913      Y      -3.8650      Z       0.5572
       Tot       5.0431
    Quadrupole Moments (Debye-Ang)
        XX     -56.9186     XY      -1.4254     YY     -58.2855
        XZ       1.2874     YZ      -0.7828     ZZ     -55.7881
    Octopole Moments (Debye-Ang^2)
       XXX    -120.8876    XXY     -16.1171    XYY     -44.4589
       YYY     -52.8547    XXZ       2.2845    XYZ      -3.6430
       YYZ       7.1071    XZZ     -37.2203    YZZ     -13.7744
       ZZZ      17.3324
    Hexadecapole Moments (Debye-Ang^3)
      XXXX    -788.8703   XXXY     -66.2049   XXYY    -246.1071
      XYYY     -84.7040   YYYY    -638.2111   XXXZ      32.3589
      XXYZ     -15.2528   XYYZ      14.2438   YYYZ     -34.8679
      XXZZ    -161.3593   XYZZ     -26.1567   YYZZ    -138.3700
      XZZZ      41.5300   YZZZ     -40.2574   ZZZZ    -185.0297
 -----------------------------------------------------------------
 Calculating analytic gradient of the SCF energy
 Gradient of SCF Energy
            1           2           3           4           5           6
    1   0.0000848  -0.0051963  -0.0003481   0.0053184  -0.0001196  -0.0000513
    2   0.0005462  -0.0264550   0.0000216   0.0253004   0.0000685   0.0000073
    3   0.0000139   0.0052451   0.0000847  -0.0048381  -0.0001596   0.0001074
            7           8           9          10          11
    1   0.0006867  -0.0002291  -0.0000425  -0.0000640  -0.0000390
    2   0.0006768   0.0000885  -0.0000179  -0.0002178  -0.0000186
    3  -0.0005262   0.0002205   0.0000157  -0.0001688   0.0000054
 Max gradient component =       2.646E-02
 RMS gradient           =       6.624E-03
 Gradient time:  CPU 16.55 s  wall 1.45 s
 Geometry Optimization Parameters
   NAtoms,    NIC,     NZ,  NCons,   NDum,   NFix, NCnnct, MaxDiis
       11      63       0       1       0       0       0       0

 Cartesian Hessian Update
 Hessian Updated using BFGS Update


** CONSTRAINED OPTIMIZATION IN DELOCALIZED INTERNAL COORDINATES **
   Searching for a Minimum

   Optimization Cycle:   3

                       Coordinates (Angstroms)
     ATOM                X               Y               Z
      1  Br        2.0424859056   -0.4396825346   -0.7229122177
      2  Br        0.8370503103    1.9621807553    0.2897765071
      3  C        -0.7874789207   -1.2945455226    0.0207665174
      4  C         0.2613893790   -0.9264652800    0.8592842566
      5  C        -1.8586467110   -0.3991149398   -0.4883387979
      6  H        -0.7979893649   -2.3211982622   -0.3440345117
      7  H         0.2670815881    0.0200120572    1.3720487471
      8  H         0.8368460753   -1.7279327786    1.3135830815
      9  H        -2.8419672218   -0.8508573843   -0.3019593309
     10  H        -1.8201063949    0.5964571888   -0.0477480338
     11  H        -1.7738706448   -0.2978542993   -1.5796572178
   Point Group: c1    Number of degrees of freedom:    27


   Energy is  -5265.622254326

              Constraints and their Current Values
                                        Value     Constraint
   Distance(Angs):        2   4             3.000000     3.000000
 Hessian Updated using BFGS Update

 26 Hessian modes will be used to form the next step
  Hessian Eigenvalues:
     0.043309    0.045000    0.045033    0.046827    0.052104    0.063075
     0.064598    0.083029    0.092124    0.095952    0.130840    0.146121
     0.159805    0.159927    0.160000    0.160465    0.218082    0.262123
     0.337633    0.339049    0.339466    0.348665    0.349923    0.352755
     0.361774    0.494624

 Minimum Search - Taking Simple RFO Step
 Searching for Lamda that Minimizes Along All modes
 Value Taken    Lamda =  -0.00004070
 Step Taken.  Stepsize is  0.023962

                             Maximum     Tolerance    Cnvgd?
         Gradient           0.001170      0.000300      NO
         Displacement       0.017244      0.001200      NO
         Energy change      0.000005      0.000001      NO


 New Cartesian Coordinates Obtained by Inverse Iteration

 Displacement from previous Coordinates is:  0.048559
 ----------------------------------------------------------------
             Standard Nuclear Orientation (Angstroms)
    I     Atom           X                Y                Z
 ----------------------------------------------------------------
    1      Br      2.0441880530    -0.4458135092    -0.7206488216
    2      Br      0.8402975661     1.9608612385     0.2763849113
    3      C      -0.7855049888    -1.2928632707     0.0188731789
    4      C       0.2600612082    -0.9239711500     0.8603954958
    5      C      -1.8589596815    -0.3986032433    -0.4863316112
    6      H      -0.7917486962    -2.3180354268    -0.3503802653
    7      H       0.2577090563     0.0173246188     1.3805508571
    8      H       0.8367161156    -1.7261837494     1.3123121655
    9      H      -2.8406892789    -0.8549605133    -0.3030764860
   10      H      -1.8239087803     0.5949646318    -0.0402066106
   11      H      -1.7733665733    -0.2917206264    -1.5770638139
 ----------------------------------------------------------------
 Nuclear Repulsion Energy =   567.9930972799 hartrees
 There are       48 alpha and       46 beta electrons

                       Distance Matrix (Angstroms)
             Br(  1)   Br(  2)   C (  3)   C (  4)   C (  5)   H (  6)
   Br(  2)  2.869758
   C (  3)  3.044922  3.646405
   C (  4)  2.431346  3.000000  1.391923
   C (  5)  3.910460  3.665351  1.485678  2.565138
   H (  6)  3.418311  4.622269  1.089663  2.125017  2.200373
   H (  7)  2.796613  2.309962  2.158484  1.075456  2.852811  3.090532
   H (  8)  2.688916  3.829812  2.119517  1.086418  3.502036  2.401402
   H (  9)  4.919735  4.670577  2.125839  3.312564  1.098015  2.518131
   H ( 10)  4.063052  3.010631  2.155381  2.731516  1.089694  3.105983
   H ( 11)  3.915471  3.916713  2.127245  3.236631  1.099294  2.564035
             H (  7)   H (  8)   H (  9)   H ( 10)
   H (  8)  1.838403
   H (  9)  3.632569  4.109966
   H ( 10)  2.585605  3.781000  1.790315
   H ( 11)  3.601147  4.149543  1.754839  1.775020
 
 Applying Cartesian multipole field
    Component          Value
    ---------          -----
     (2,0,0)        1.00000E-11
     (0,2,0)        2.00000E-11
     (0,0,2)       -3.00000E-11
 Nucleus-field energy     =     0.0000000160 hartrees
 Requested basis set is 6-31G(d,p)
 There are 46 shells and 145 basis functions
 A cutoff of  1.0D-14 yielded    967 shell pairs
 There are      9730 function pairs
 Smallest overlap matrix eigenvalue = 7.22E-04
 Guess from superposition of atomic densities
 Warning:  Energy on first SCF cycle will be non-variational
 SAD guess density has 93.945746 electrons

 -----------------------------------------------------------------------
  General SCF calculation program by
  Eric Jon Sundstrom, Paul Horn, Yuezhi Mao, Dmitri Zuev, Alec White,
  David Stuck, Shaama M.S., Shane Yost, Joonho Lee, David Small,
  Daniel Levine, Susi Lehtola, Hugh Burton, Evgeny Epifanovsky
 -----------------------------------------------------------------------
 Exchange:     0.2000 Hartree-Fock + 0.0800 Slater + 0.7200 B88
 Correlation:  0.1900 VWN1RPA + 0.8100 LYP
 Using SG-1 standard quadrature grid
 using 12 threads for integral computing
 -------------------------------------------------------
 OpenMP Integral computing Module                
 Release: version 1.0, May 2013, Q-Chem Inc. Pittsburgh 
 -------------------------------------------------------
 -------------------------------------------------------
 OpenMP BLAS3 based DFT computing Module                
 Release: version 1.0, May 2013, Q-Chem Inc. Pittsburgh 
 -------------------------------------------------------
 A unrestricted SCF calculation will be
 performed using DIIS
 SCF converges when DIIS error is below 1.0e-06
 Alpha HF Exchange    Energy = -19.61108175112069
 Beta HF Exchange     Energy = -19.61108175112069
 DFT Correlation      Energy =  -5.20095517378701
 DFT Exchange         Energy = -155.87332490757132
 One-Electron (alpha) Energy = -4224.33577168795091
 One-Electron (beta)  Energy = -4224.33577168795091
 Total Coulomb        Energy = 2808.02666840043730
 ---------------------------------------
  Cycle       Energy         DIIS error
 ---------------------------------------
    1   -5272.9482212632      1.83e-01  
 Alpha HF Exchange    Energy = -19.84215510360602
 Beta HF Exchange     Energy = -19.61911873062409
 DFT Correlation      Energy =  -5.24810582967896
 DFT Exchange         Energy = -157.06335165673184
 One-Electron (alpha) Energy = -4262.60927037953934
 One-Electron (beta)  Energy = -4207.94150715687010
 Total Coulomb        Energy = 2838.84716045705318
    2   -5265.4832511041      1.04e-02  
 Alpha HF Exchange    Energy = -19.69823193531599
 Beta HF Exchange     Energy = -19.48555262542995
 DFT Correlation      Energy =  -5.21089500773303
 DFT Exchange         Energy = -155.95490597093612
 One-Electron (alpha) Energy = -4246.22820809343011
 One-Electron (beta)  Energy = -4191.99371497295942
 Total Coulomb        Energy = 2805.06900782938419
    3   -5265.5094034806      3.93e-03  
 Alpha HF Exchange    Energy = -19.81246669239622
 Beta HF Exchange     Energy = -19.59067485960497
 DFT Correlation      Energy =  -5.23773319820520
 DFT Exchange         Energy = -156.81617049770676
 One-Electron (alpha) Energy = -4259.70437618032793
 One-Electron (beta)  Energy = -4204.26251879207939
 Total Coulomb        Energy = 2831.86516920077793
    4   -5265.5656737237      2.80e-03  
 Alpha HF Exchange    Energy = -19.77485225433620
 Beta HF Exchange     Energy = -19.55462972393248
 DFT Correlation      Energy =  -5.22936249220680
 DFT Exchange         Energy = -156.52645380312211
 One-Electron (alpha) Energy = -4255.09349500256030
 One-Electron (beta)  Energy = -4200.09151244930490
 Total Coulomb        Energy = 2822.65745708371196
    5   -5265.6197513459      4.87e-04  
 Alpha HF Exchange    Energy = -19.77044723707502
 Beta HF Exchange     Energy = -19.55105862785012
 DFT Correlation      Energy =  -5.22819162509254
 DFT Exchange         Energy = -156.49454574943374
 One-Electron (alpha) Energy = -4254.76363649868927
 One-Electron (beta)  Energy = -4199.67269583271263
 Total Coulomb        Energy = 2821.86538031528380
    6   -5265.6220979597      8.69e-05  
 Alpha HF Exchange    Energy = -19.77004593068043
 Beta HF Exchange     Energy = -19.55079286390095
 DFT Correlation      Energy =  -5.22786626815547
 DFT Exchange         Energy = -156.49091341504140
 One-Electron (alpha) Energy = -4254.65910393670310
 One-Electron (beta)  Energy = -4199.61020671305778
 Total Coulomb        Energy = 2821.69360236710281
    7   -5265.6222294646      4.67e-05  
 Alpha HF Exchange    Energy = -19.77025777939826
 Beta HF Exchange     Energy = -19.55100519243466
 DFT Correlation      Energy =  -5.22786559463065
 DFT Exchange         Energy = -156.49243727289581
 One-Electron (alpha) Energy = -4254.67456805738402
 One-Electron (beta)  Energy = -4199.60554293982659
 Total Coulomb        Energy = 2821.70630969621971
    8   -5265.6222698445      2.23e-05  
 Alpha HF Exchange    Energy = -19.77041473846906
 Beta HF Exchange     Energy = -19.55119615993263
 DFT Correlation      Energy =  -5.22784631216773
 DFT Exchange         Energy = -156.49345885082582
 One-Electron (alpha) Energy = -4254.68962536273921
 One-Electron (beta)  Energy = -4199.63279522084849
 Total Coulomb        Energy = 2821.74995734438062
    9   -5265.6222820048      1.02e-05  
 Alpha HF Exchange    Energy = -19.77041566766687
 Beta HF Exchange     Energy = -19.55119191582574
 DFT Correlation      Energy =  -5.22784912090846
 DFT Exchange         Energy = -156.49347603781945
 One-Electron (alpha) Energy = -4254.68260753557206
 One-Electron (beta)  Energy = -4199.62350486651485
 Total Coulomb        Energy = 2821.73366376535250
   10   -5265.6222840831      7.79e-06  
 Alpha HF Exchange    Energy = -19.77041475583606
 Beta HF Exchange     Energy = -19.55122162830866
 DFT Correlation      Energy =  -5.22783128012548
 DFT Exchange         Energy = -156.49349616950292
 One-Electron (alpha) Energy = -4254.68288619442956
 One-Electron (beta)  Energy = -4199.62970498162304
 Total Coulomb        Energy = 2821.74017266978126
   11   -5265.6222850442      2.05e-06  
 Alpha HF Exchange    Energy = -19.77040637486862
 Beta HF Exchange     Energy = -19.55121437882534
 DFT Correlation      Energy =  -5.22782556026842
 DFT Exchange         Energy = -156.49343377671644
 One-Electron (alpha) Energy = -4254.68030091827131
 One-Electron (beta)  Energy = -4199.62837439018131
 Total Coulomb        Energy = 2821.73617298111367
   12   -5265.6222851222      8.29e-07  Convergence criterion met
 ---------------------------------------
 SCF time:   CPU 49.02s  wall 4.00s 
<S^2> =          2.011091374
 Alpha HF Exchange    Energy = -19.77040637486862
 Beta HF Exchange     Energy = -19.55121437882534
 DFT Correlation      Energy =  -5.22782556026842
 DFT Exchange         Energy = -156.49343377671644
 One-Electron (alpha) Energy = -4254.68030091827131
 One-Electron (beta)  Energy = -4199.62837439018131
 Total Coulomb        Energy = 2821.73617298111367
 Nuclear repulsion Energy = 567.99309729585207
 SCF   energy in the final basis set =    -5265.6222851222
 Total energy in the final basis set =    -5265.6222851222
 
 --------------------------------------------------------------
 
                    Orbital Energies (a.u.)
 --------------------------------------------------------------
 
 Alpha MOs
 -- Occupied --
*******-482.830 -62.528 -62.488 -56.349 -56.347 -56.345 -56.310
-56.305 -56.305 -10.262 -10.252 -10.212  -8.715  -8.675  -6.543
 -6.538  -6.531  -6.507  -6.492  -6.492  -2.637  -2.637  -2.632
 -2.628  -2.627  -2.599  -2.596  -2.595  -2.584  -2.584  -0.845
 -0.783  -0.733  -0.726  -0.605  -0.512  -0.471  -0.452  -0.411
 -0.397  -0.379  -0.353  -0.307  -0.267  -0.265  -0.259  -0.249
 -- Virtual --
 -0.046   0.077   0.112   0.131   0.143   0.144   0.159   0.211
  0.237   0.268   0.296   0.323   0.341   0.363   0.371   0.382
  0.412   0.440   0.470   0.497   0.511   0.536   0.558   0.567
  0.572   0.589   0.615   0.643   0.645   0.671   0.686   0.689
  0.730   0.761   0.821   0.830   0.839   0.878   0.887   0.936
  0.942   0.992   1.167   1.251   1.272   1.305   1.360   1.485
  1.605   1.723   1.776   1.790   1.826   1.871   1.874   1.970
  2.011   2.058   2.072   2.088   2.152   2.263   2.324   2.336
  2.416   2.453   2.501   2.580   2.638   2.676   2.781   2.832
  2.836   2.937   3.157   3.249   3.388   3.397   3.438   3.551
  4.154   4.387   4.533   4.663   4.690   4.715   4.733   4.746
  4.754   4.772   4.806   4.874   4.904   6.262   6.335  90.228
 90.439
 
 Beta MOs
 -- Occupied --
*******-482.828 -62.527 -62.487 -56.346 -56.345 -56.344 -56.306
-56.304 -56.304 -10.254 -10.251 -10.213  -8.712  -8.672  -6.537
 -6.533  -6.529  -6.499  -6.491  -6.491  -2.632  -2.631  -2.628
 -2.625  -2.624  -2.593  -2.591  -2.591  -2.584  -2.584  -0.829
 -0.757  -0.718  -0.702  -0.596  -0.507  -0.467  -0.438  -0.407
 -0.394  -0.345  -0.311  -0.296  -0.256  -0.254
 -- Virtual --
 -0.165  -0.153  -0.015   0.080   0.115   0.133   0.147   0.150
  0.162   0.219   0.243   0.277   0.301   0.331   0.354   0.377
  0.381   0.391   0.427   0.448   0.479   0.523   0.531   0.555
  0.571   0.584   0.592   0.607   0.624   0.654   0.665   0.685
  0.696   0.705   0.741   0.776   0.826   0.835   0.843   0.883
  0.907   0.941   0.948   1.001   1.172   1.263   1.282   1.313
  1.377   1.488   1.609   1.735   1.784   1.801   1.838   1.877
  1.891   1.982   2.014   2.062   2.075   2.091   2.164   2.267
  2.324   2.345   2.425   2.463   2.504   2.587   2.642   2.683
  2.784   2.835   2.840   2.940   3.160   3.251   3.391   3.401
  3.439   3.554   4.167   4.390   4.540   4.672   4.698   4.726
  4.742   4.752   4.761   4.777   4.813   4.883   4.915   6.274
  6.347  90.233  90.444
 --------------------------------------------------------------
 
          Ground-State Mulliken Net Atomic Charges

     Atom                 Charge (a.u.)    Spin (a.u.)
  --------------------------------------------------------
      1 Br                   -0.079523       0.755257
      2 Br                   -0.272321       0.683600
      3 C                     0.027105       0.550785
      4 C                    -0.257592       0.020466
      5 C                    -0.358201      -0.038662
      6 H                     0.131503      -0.024561
      7 H                     0.196004      -0.003646
      8 H                     0.161384       0.001793
      9 H                     0.135316       0.020998
     10 H                     0.159415       0.000427
     11 H                     0.156911       0.033544
  --------------------------------------------------------
  Sum of atomic charges =    -0.000000
  Sum of spin   charges =     2.000000

 -----------------------------------------------------------------
                    Cartesian Multipole Moments
 -----------------------------------------------------------------
    Charge (ESU x 10^10)
                -0.0000
    Dipole Moment (Debye)
         X      -3.1999      Y      -3.8676      Z       0.5747
       Tot       5.0526
    Quadrupole Moments (Debye-Ang)
        XX     -56.9341     XY      -1.4433     YY     -58.3003
        XZ       1.2912     YZ      -0.7448     ZZ     -55.7666
    Octopole Moments (Debye-Ang^2)
       XXX    -121.1404    XXY     -16.0275    XYY     -44.5798
       YYY     -52.4862    XXZ       2.4865    XYZ      -3.6055
       YYZ       7.3277    XZZ     -37.3139    YZZ     -13.6708
       ZZZ      17.9754
    Hexadecapole Moments (Debye-Ang^3)
      XXXX    -790.1549   XXXY     -65.7598   XXYY    -246.3524
      XYYY     -84.2452   YYYY    -637.7852   XXXZ      32.8311
      XXYZ     -14.7543   XYYZ      14.5094   YYYZ     -33.5070
      XXZZ    -161.3701   XYZZ     -25.9896   YYZZ    -138.2239
      XZZZ      42.0231   YZZZ     -38.9878   ZZZZ    -183.7959
 -----------------------------------------------------------------
 Calculating analytic gradient of the SCF energy
 Gradient of SCF Energy
            1           2           3           4           5           6
    1  -0.0000447  -0.0051106  -0.0001765   0.0052713   0.0000127  -0.0000987
    2   0.0005074  -0.0263501  -0.0000014   0.0264488  -0.0000258  -0.0000937
    3   0.0000422   0.0052424   0.0001075  -0.0049886  -0.0001130   0.0001547
            7           8           9          10          11
    1   0.0003095  -0.0001583   0.0000236  -0.0000308   0.0000024
    2  -0.0001806  -0.0001094  -0.0000647  -0.0000454  -0.0000850
    3  -0.0005590   0.0001296   0.0000312  -0.0000410  -0.0000058
 Max gradient component =       2.645E-02
 RMS gradient           =       6.744E-03
 Gradient time:  CPU 16.54 s  wall 1.45 s
 Geometry Optimization Parameters
   NAtoms,    NIC,     NZ,  NCons,   NDum,   NFix, NCnnct, MaxDiis
       11      63       0       1       0       0       0       0

 Cartesian Hessian Update
 Hessian Updated using BFGS Update


** CONSTRAINED OPTIMIZATION IN DELOCALIZED INTERNAL COORDINATES **
   Searching for a Minimum

   Optimization Cycle:   4

                       Coordinates (Angstroms)
     ATOM                X               Y               Z
      1  Br        2.0441880530   -0.4458135092   -0.7206488216
      2  Br        0.8402975661    1.9608612385    0.2763849113
      3  C        -0.7855049888   -1.2928632707    0.0188731789
      4  C         0.2600612082   -0.9239711500    0.8603954958
      5  C        -1.8589596815   -0.3986032433   -0.4863316112
      6  H        -0.7917486962   -2.3180354268   -0.3503802653
      7  H         0.2577090563    0.0173246188    1.3805508571
      8  H         0.8367161156   -1.7261837494    1.3123121655
      9  H        -2.8406892789   -0.8549605133   -0.3030764860
     10  H        -1.8239087803    0.5949646318   -0.0402066106
     11  H        -1.7733665733   -0.2917206264   -1.5770638139
   Point Group: c1    Number of degrees of freedom:    27


   Energy is  -5265.622285122

              Constraints and their Current Values
                                        Value     Constraint
   Distance(Angs):        2   4             3.000000     3.000000
 Hessian Updated using BFGS Update

 26 Hessian modes will be used to form the next step
  Hessian Eigenvalues:
     0.024793    0.045001    0.045117    0.047007    0.051230    0.058155
     0.064557    0.079522    0.092141    0.096014    0.132065    0.140645
     0.159795    0.159995    0.160280    0.160987    0.214130    0.244728
     0.337635    0.339084    0.340657    0.348704    0.351063    0.353242
     0.390296    0.490799

 Minimum Search - Taking Simple RFO Step
 Searching for Lamda that Minimizes Along All modes
 Value Taken    Lamda =  -0.00003847
 Step Taken.  Stepsize is  0.036588

                             Maximum     Tolerance    Cnvgd?
         Gradient           0.000770      0.000300      NO
         Displacement       0.028189      0.001200      NO
         Energy change     -0.000031      0.000001      NO


 New Cartesian Coordinates Obtained by Inverse Iteration

 Displacement from previous Coordinates is:  0.080713
 ----------------------------------------------------------------
             Standard Nuclear Orientation (Angstroms)
    I     Atom           X                Y                Z
 ----------------------------------------------------------------
    1      Br      2.0476680991    -0.4587208292    -0.7159781927
    2      Br      0.8378997436     1.9576945663     0.2529609519
    3      C      -0.7820114442    -1.2903201901     0.0159321728
    4      C       0.2588817785    -0.9219807959     0.8630498981
    5      C      -1.8591904762    -0.3969968385    -0.4830182500
    6      H      -0.7814262743    -2.3123124579    -0.3618136163
    7      H       0.2458103507     0.0138882427     1.3935870341
    8      H       0.8381609430    -1.7238290813     1.3120949279
    9      H      -2.8391329934    -0.8596401477    -0.3059288025
   10      H      -1.8295695056     0.5925815023    -0.0275401217
   11      H      -1.7722962212    -0.2793649706    -1.5725370017
 ----------------------------------------------------------------
 Nuclear Repulsion Energy =   568.1109272493 hartrees
 There are       48 alpha and       46 beta electrons

                       Distance Matrix (Angstroms)
             Br(  1)   Br(  2)   C (  3)   C (  4)   C (  5)   H (  6)
   Br(  2)  2.870792
   C (  3)  3.038805  3.637292
   C (  4)  2.430575  3.000000  1.391668
   C (  5)  3.914285  3.655206  1.485696  2.563930
   H (  6)  3.400737  4.607941  1.089569  2.124983  2.201068
   H (  7)  2.814306  2.330232  2.157617  1.075868  2.849825  3.089961
   H (  8)  2.678897  3.830846  2.119652  1.086355  3.501231  2.402362
   H (  9)  4.920336  4.665866  2.126224  3.311811  1.098038  2.519432
   H ( 10)  4.075801  3.009586  2.155130  2.729227  1.089772  3.106244
   H ( 11)  3.918927  3.892300  2.127423  3.235850  1.099290  2.565258
             H (  7)   H (  8)   H (  9)   H ( 10)
   H (  8)  1.837711
   H (  9)  3.628813  4.109418
   H ( 10)  2.581025  3.778514  1.790437
   H ( 11)  3.599534  4.149948  1.754752  1.774989
 
 Applying Cartesian multipole field
    Component          Value
    ---------          -----
     (2,0,0)        1.00000E-11
     (0,2,0)        2.00000E-11
     (0,0,2)       -3.00000E-11
 Nucleus-field energy     =     0.0000000160 hartrees
 Requested basis set is 6-31G(d,p)
 There are 46 shells and 145 basis functions
 A cutoff of  1.0D-14 yielded    968 shell pairs
 There are      9731 function pairs
 Smallest overlap matrix eigenvalue = 7.22E-04
 Guess from superposition of atomic densities
 Warning:  Energy on first SCF cycle will be non-variational
 SAD guess density has 93.945746 electrons

 -----------------------------------------------------------------------
  General SCF calculation program by
  Eric Jon Sundstrom, Paul Horn, Yuezhi Mao, Dmitri Zuev, Alec White,
  David Stuck, Shaama M.S., Shane Yost, Joonho Lee, David Small,
[...]
    4      C       0.2550240889    -0.9225716439     0.8708761839
    5      C      -1.8630586812    -0.3920618970    -0.4749465251
    6      H      -0.7624649984    -2.2951542762    -0.3884434522
    7      H       0.2440438212     0.0105440178     1.4075930790
    8      H       0.8314412129    -1.7281092402     1.3165883971
    9      H      -2.8366795450    -0.8727644291    -0.3114962954
   10      H      -1.8496255674     0.5881317523     0.0007108288
   11      H      -1.7731256271    -0.2502021861    -1.5612914045
 ----------------------------------------------------------------
 Nuclear Repulsion Energy =   567.6924975425 hartrees
 There are       48 alpha and       46 beta electrons

                       Distance Matrix (Angstroms)
             Br(  1)   Br(  2)   C (  3)   C (  4)   C (  5)   H (  6)
   Br(  2)  2.875707
   C (  3)  3.045500  3.605189
   C (  4)  2.442878  3.000000  1.390386
   C (  5)  3.946166  3.621627  1.485564  2.564947
   H (  6)  3.382417  4.564371  1.089561  2.122535  2.200125
   H (  7)  2.833029  2.353860  2.159310  1.076518  2.854107  3.091125
   H (  8)  2.675171  3.840575  2.119282  1.086189  3.500707  2.401918
   H (  9)  4.943134  4.644768  2.124878  3.310456  1.098057  2.516243
   H ( 10)  4.127936  3.001350  2.155574  2.732940  1.089592  3.105913
   H ( 11)  3.951636  3.826260  2.127508  3.237424  1.099253  2.564924
             H (  7)   H (  8)   H (  9)   H ( 10)
   H (  8)  1.837453
   H (  9)  3.636806  4.103338
   H ( 10)  2.587736  3.779501  1.790521
   H ( 11)  3.598783  4.153332  1.755198  1.774403
 
 Applying Cartesian multipole field
    Component          Value
    ---------          -----
     (2,0,0)        1.00000E-11
     (0,2,0)        2.00000E-11
     (0,0,2)       -3.00000E-11
 Nucleus-field energy     =     0.0000000162 hartrees
 Requested basis set is 6-31G(d,p)
 There are 46 shells and 145 basis functions
 A cutoff of  1.0D-14 yielded    968 shell pairs
 There are      9749 function pairs
 Smallest overlap matrix eigenvalue = 7.22E-04
 Guess from superposition of atomic densities
 Warning:  Energy on first SCF cycle will be non-variational
 SAD guess density has 93.945746 electrons

 -----------------------------------------------------------------------
  General SCF calculation program by
  Eric Jon Sundstrom, Paul Horn, Yuezhi Mao, Dmitri Zuev, Alec White,
  David Stuck, Shaama M.S., Shane Yost, Joonho Lee, David Small,
  Daniel Levine, Susi Lehtola, Hugh Burton, Evgeny Epifanovsky
 -----------------------------------------------------------------------
 Exchange:     0.2000 Hartree-Fock + 0.0800 Slater + 0.7200 B88
 Correlation:  0.1900 VWN1RPA + 0.8100 LYP
 Using SG-1 standard quadrature grid
 using 12 threads for integral computing
 -------------------------------------------------------
 OpenMP Integral computing Module                
 Release: version 1.0, May 2013, Q-Chem Inc. Pittsburgh 
 -------------------------------------------------------
 -------------------------------------------------------
 OpenMP BLAS3 based DFT computing Module                
 Release: version 1.0, May 2013, Q-Chem Inc. Pittsburgh 
 -------------------------------------------------------
 A unrestricted SCF calculation will be
 performed using DIIS
 SCF converges when DIIS error is below 1.0e-06
 Alpha HF Exchange    Energy = -19.61050938330240
 Beta HF Exchange     Energy = -19.61050938330240
 DFT Correlation      Energy =  -5.20072675503196
 DFT Exchange         Energy = -155.87213991844305
 One-Electron (alpha) Energy = -4224.03566067562224
 One-Electron (beta)  Energy = -4224.03566067562224
 Total Coulomb        Energy = 2807.73054040164243
 ---------------------------------------
  Cycle       Energy         DIIS error
 ---------------------------------------
    1   -5272.9421688310      1.83e-01  
 Alpha HF Exchange    Energy = -19.84213928132505
 Beta HF Exchange     Energy = -19.61893392071321
 DFT Correlation      Energy =  -5.24791614800316
 DFT Exchange         Energy = -157.06252320323168
 One-Electron (alpha) Energy = -4262.34790378272282
 One-Electron (beta)  Energy = -4207.66776508489602
 Total Coulomb        Energy = 2838.61159592946888
    2   -5265.4830879327      1.04e-02  
 Alpha HF Exchange    Energy = -19.69786766415721
 Beta HF Exchange     Energy = -19.48521760139887
 DFT Correlation      Energy =  -5.21066141048940
 DFT Exchange         Energy = -155.95201243029391
 One-Electron (alpha) Energy = -4245.96454154715593
 One-Electron (beta)  Energy = -4191.66285986171260
 Total Coulomb        Energy = 2804.77077434421653
    3   -5265.5098886123      3.93e-03  
 Alpha HF Exchange    Energy = -19.81246461700233
 Beta HF Exchange     Energy = -19.59039773173810
 DFT Correlation      Energy =  -5.23754302700609
 DFT Exchange         Energy = -156.81512428296816
 One-Electron (alpha) Energy = -4259.43971560324098
 One-Electron (beta)  Energy = -4203.94787352914682
 Total Coulomb        Energy = 2831.58403377889090
    4   -5265.5665874535      2.79e-03  
 Alpha HF Exchange    Energy = -19.77467890052288
 Beta HF Exchange     Energy = -19.55425495034572
 DFT Correlation      Energy =  -5.22916443890104
 DFT Exchange         Energy = -156.52441571425496
 One-Electron (alpha) Energy = -4254.84615392220076
 One-Electron (beta)  Energy = -4199.76164938493821
 Total Coulomb        Energy = 2822.37797198161479
    5   -5265.6198477708      4.81e-04  
 Alpha HF Exchange    Energy = -19.77035252387348
 Beta HF Exchange     Energy = -19.55074097620287
 DFT Correlation      Energy =  -5.22800799580078
 DFT Exchange         Energy = -156.49301205019768
 One-Electron (alpha) Energy = -4254.51986822462732
 One-Electron (beta)  Energy = -4199.34629913120534
 Total Coulomb        Energy = 2821.59364205635575
    6   -5265.6221412868      8.74e-05  
 Alpha HF Exchange    Energy = -19.76993792383191
 Beta HF Exchange     Energy = -19.55045267216789
 DFT Correlation      Energy =  -5.22768546580894
 DFT Exchange         Energy = -156.48928355616090
 One-Electron (alpha) Energy = -4254.41589112034580
 One-Electron (beta)  Energy = -4199.27923140663188
 Total Coulomb        Energy = 2821.41771300878827
    7   -5265.6222715774      4.61e-05  
 Alpha HF Exchange    Energy = -19.77015241525447
 Beta HF Exchange     Energy = -19.55066706475167
 DFT Correlation      Energy =  -5.22768443978335
 DFT Exchange         Energy = -156.49081420259023
 One-Electron (alpha) Energy = -4254.43341895565118
 One-Electron (beta)  Energy = -4199.27506301061931
 Total Coulomb        Energy = 2821.43299162854782
    8   -5265.6223109014      2.20e-05  
 Alpha HF Exchange    Energy = -19.77030709964990
 Beta HF Exchange     Energy = -19.55085020734735
 DFT Correlation      Energy =  -5.22766679872185
 DFT Exchange         Energy = -156.49181178738331
 One-Electron (alpha) Energy = -4254.44787860214001
 One-Electron (beta)  Energy = -4199.29994232712397
 Total Coulomb        Energy = 2821.47363633034456
    9   -5265.6223229333      9.72e-06  
 Alpha HF Exchange    Energy = -19.77030849092644
 Beta HF Exchange     Energy = -19.55084827044199
 DFT Correlation      Energy =  -5.22766948026694
 DFT Exchange         Energy = -156.49183643634160
 One-Electron (alpha) Energy = -4254.44155247960134
 One-Electron (beta)  Energy = -4199.29106422360564
 Total Coulomb        Energy = 2821.45845695272283
   10   -5265.6223248697      7.69e-06  
 Alpha HF Exchange    Energy = -19.77030814381613
 Beta HF Exchange     Energy = -19.55087836080756
 DFT Correlation      Energy =  -5.22765171818605
 DFT Exchange         Energy = -156.49185928006057
 One-Electron (alpha) Energy = -4254.44188435033630
 One-Electron (beta)  Energy = -4199.29745083811576
 Total Coulomb        Energy = 2821.46520932270823
   11   -5265.6223258099      2.12e-06  
 Alpha HF Exchange    Energy = -19.77029934055382
 Beta HF Exchange     Energy = -19.55087077371176
 DFT Correlation      Energy =  -5.22764619260561
 DFT Exchange         Energy = -156.49179550318019
 One-Electron (alpha) Energy = -4254.43920190083645
 One-Electron (beta)  Energy = -4199.29599347350359
 Total Coulomb        Energy = 2821.46098373223822
   12   -5265.6223258934      8.45e-07  Convergence criterion met
 ---------------------------------------
 SCF time:   CPU 48.32s  wall 4.00s 
<S^2> =          2.010991692
 Alpha HF Exchange    Energy = -19.77029934055382
 Beta HF Exchange     Energy = -19.55087077371176
 DFT Correlation      Energy =  -5.22764619260561
 DFT Exchange         Energy = -156.49179550318019
 One-Electron (alpha) Energy = -4254.43920190083645
 One-Electron (beta)  Energy = -4199.29599347350359
 Total Coulomb        Energy = 2821.46098373223822
 Nuclear repulsion Energy = 567.69249755872829
 SCF   energy in the final basis set =    -5265.6223258934
 Total energy in the final basis set =    -5265.6223258934
 
 --------------------------------------------------------------
 
                    Orbital Energies (a.u.)
 --------------------------------------------------------------
 
 Alpha MOs
 -- Occupied --
*******-482.829 -62.527 -62.487 -56.349 -56.347 -56.345 -56.310
-56.305 -56.305 -10.262 -10.252 -10.213  -8.715  -8.675  -6.542
 -6.537  -6.530  -6.507  -6.492  -6.492  -2.637  -2.636  -2.631
 -2.627  -2.626  -2.599  -2.595  -2.595  -2.584  -2.584  -0.845
 -0.782  -0.732  -0.726  -0.605  -0.512  -0.471  -0.452  -0.411
 -0.397  -0.379  -0.352  -0.307  -0.266  -0.264  -0.259  -0.249
 -- Virtual --
 -0.047   0.077   0.112   0.129   0.144   0.145   0.158   0.211
  0.238   0.265   0.297   0.324   0.343   0.363   0.373   0.382
  0.412   0.440   0.469   0.497   0.512   0.535   0.558   0.568
  0.572   0.589   0.614   0.640   0.645   0.670   0.687   0.692
  0.730   0.761   0.820   0.830   0.839   0.876   0.888   0.934
  0.940   0.988   1.165   1.251   1.268   1.311   1.361   1.483
  1.603   1.724   1.777   1.791   1.830   1.870   1.872   1.972
  2.010   2.059   2.073   2.091   2.152   2.261   2.323   2.336
  2.416   2.453   2.500   2.580   2.638   2.675   2.782   2.832
  2.837   2.938   3.156   3.249   3.387   3.396   3.437   3.551
  4.153   4.385   4.534   4.663   4.691   4.715   4.733   4.746
  4.755   4.771   4.801   4.875   4.903   6.263   6.336  90.233
 90.439
 
 Beta MOs
 -- Occupied --
*******-482.827 -62.526 -62.486 -56.345 -56.344 -56.344 -56.306
-56.304 -56.304 -10.255 -10.251 -10.213  -8.711  -8.672  -6.536
 -6.532  -6.529  -6.499  -6.490  -6.490  -2.631  -2.631  -2.627
 -2.624  -2.624  -2.593  -2.591  -2.591  -2.583  -2.583  -0.830
 -0.756  -0.718  -0.701  -0.596  -0.507  -0.467  -0.438  -0.408
 -0.394  -0.345  -0.310  -0.295  -0.256  -0.254
 -- Virtual --
 -0.165  -0.153  -0.016   0.080   0.115   0.131   0.148   0.150
  0.161   0.219   0.244   0.274   0.302   0.332   0.356   0.377
  0.382   0.392   0.428   0.447   0.478   0.523   0.533   0.554
  0.571   0.584   0.593   0.608   0.622   0.651   0.666   0.684
  0.699   0.704   0.741   0.776   0.825   0.835   0.844   0.882
  0.907   0.939   0.945   0.997   1.169   1.263   1.278   1.319
  1.378   1.486   1.607   1.736   1.785   1.803   1.841   1.876
  1.887   1.984   2.013   2.063   2.076   2.094   2.163   2.265
  2.324   2.345   2.424   2.464   2.504   2.587   2.641   2.682
  2.784   2.835   2.840   2.940   3.160   3.251   3.390   3.400
  3.438   3.554   4.165   4.388   4.541   4.672   4.698   4.725
  4.742   4.752   4.761   4.776   4.809   4.884   4.914   6.276
  6.348  90.239  90.444
 --------------------------------------------------------------
 
          Ground-State Mulliken Net Atomic Charges

     Atom                 Charge (a.u.)    Spin (a.u.)
  --------------------------------------------------------
      1 Br                   -0.083104       0.759916
      2 Br                   -0.273165       0.685339
      3 C                     0.029278       0.539117
      4 C                    -0.256727       0.024471
      5 C                    -0.356776      -0.037858
      6 H                     0.132487      -0.023989
      7 H                     0.194436      -0.003881
      8 H                     0.162478       0.002390
      9 H                     0.134950       0.020572
     10 H                     0.158050       0.000451
     11 H                     0.158095       0.033473
  --------------------------------------------------------
  Sum of atomic charges =     0.000000
  Sum of spin   charges =     2.000000

 -----------------------------------------------------------------
                    Cartesian Multipole Moments
 -----------------------------------------------------------------
    Charge (ESU x 10^10)
                -0.0000
    Dipole Moment (Debye)
         X      -3.2286      Y      -3.8382      Z       0.6709
       Tot       5.0602
    Quadrupole Moments (Debye-Ang)
        XX     -56.9624     XY      -1.4263     YY     -58.2893
        XZ       1.3987     YZ      -0.5593     ZZ     -55.7006
    Octopole Moments (Debye-Ang^2)
       XXX    -121.7314    XXY     -15.0035    XYY     -44.7450
       YYY     -49.6270    XXZ       3.5370    XYZ      -3.4029
       YYZ       8.4533    XZZ     -37.5319    YZZ     -12.9204
       ZZZ      21.0747
    Hexadecapole Moments (Debye-Ang^3)
      XXXX    -800.4869   XXXY     -57.1505   XXYY    -247.2787
      XYYY     -75.9022   YYYY    -632.7562   XXXZ      35.7954
      XXYZ     -11.5574   XYYZ      16.0174   YYYZ     -25.1800
      XXZZ    -161.9715   XYZZ     -23.1545   YYZZ    -136.6302
      XZZZ      45.2335   YZZZ     -30.8803   ZZZZ    -176.2538
 -----------------------------------------------------------------
 Calculating analytic gradient of the SCF energy
 Gradient of SCF Energy
            1           2           3           4           5           6
    1   0.0000029  -0.0050377  -0.0000405   0.0050231  -0.0000093   0.0000524
    2   0.0000037  -0.0253860  -0.0000421   0.0254545  -0.0000370   0.0000046
    3  -0.0000471   0.0059013   0.0001109  -0.0059913   0.0000010  -0.0000024
            7           8           9          10          11
    1   0.0000168   0.0000224   0.0000027  -0.0000196  -0.0000131
    2   0.0000544   0.0000575  -0.0000390  -0.0000200  -0.0000506
    3  -0.0000470   0.0000463   0.0000305  -0.0000096   0.0000075
 Max gradient component =       2.545E-02
 RMS gradient           =       6.545E-03
 Gradient time:  CPU 16.52 s  wall 1.45 s
 Geometry Optimization Parameters
   NAtoms,    NIC,     NZ,  NCons,   NDum,   NFix, NCnnct, MaxDiis
       11      63       0       1       0       0       0       0

 Cartesian Hessian Update
 Hessian Updated using BFGS Update


** CONSTRAINED OPTIMIZATION IN DELOCALIZED INTERNAL COORDINATES **
   Searching for a Minimum

   Optimization Cycle:  10

                       Coordinates (Angstroms)
     ATOM                X               Y               Z
      1  Br        2.0758517326   -0.4814245744   -0.6968068828
      2  Br        0.8197974571    1.9458694599    0.1977660807
      3  C        -0.7764098936   -1.2812579830    0.0102589905
      4  C         0.2550240889   -0.9225716439    0.8708761839
      5  C        -1.8630586812   -0.3920618970   -0.4749465251
      6  H        -0.7624649984   -2.2951542762   -0.3884434522
      7  H         0.2440438212    0.0105440178    1.4075930790
      8  H         0.8314412129   -1.7281092402    1.3165883971
      9  H        -2.8366795450   -0.8727644291   -0.3114962954
     10  H        -1.8496255674    0.5881317523    0.0007108288
     11  H        -1.7731256271   -0.2502021861   -1.5612914045
   Point Group: c1    Number of degrees of freedom:    27


   Energy is  -5265.622325893

              Constraints and their Current Values
                                        Value     Constraint
   Distance(Angs):        2   4             3.000000     3.000000
 Hessian Updated using BFGS Update

 26 Hessian modes will be used to form the next step
  Hessian Eigenvalues:
     0.004739    0.019788    0.044842    0.045509    0.046465    0.055572
     0.064520    0.078022    0.092089    0.095769    0.130961    0.141857
     0.159843    0.159906    0.160289    0.161002    0.212113    0.244881
     0.337640    0.339040    0.340807    0.348717    0.351086    0.353411
     0.391735    0.490880

 Minimum Search - Taking Simple RFO Step
 Searching for Lamda that Minimizes Along All modes
 Value Taken    Lamda =   0.00000000
 Step Taken.  Stepsize is  0.003255

                             Maximum     Tolerance    Cnvgd?
         Gradient           0.000034      0.000300     YES
         Displacement       0.001925      0.001200      NO
         Energy change     -0.000000      0.000001     YES


                       Distance Matrix (Angstroms)
             Br(  1)   Br(  2)   C (  3)   C (  4)   C (  5)   H (  6)
   Br(  2)  2.875707
   C (  3)  3.045500  3.605189
   C (  4)  2.442878  3.000000  1.390386
   C (  5)  3.946166  3.621627  1.485564  2.564947
   H (  6)  3.382417  4.564371  1.089561  2.122535  2.200125
   H (  7)  2.833029  2.353860  2.159310  1.076518  2.854107  3.091125
   H (  8)  2.675171  3.840575  2.119282  1.086189  3.500707  2.401918
   H (  9)  4.943134  4.644768  2.124878  3.310456  1.098057  2.516243
   H ( 10)  4.127936  3.001350  2.155574  2.732940  1.089592  3.105913
   H ( 11)  3.951636  3.826260  2.127508  3.237424  1.099253  2.564924
             H (  7)   H (  8)   H (  9)   H ( 10)
   H (  8)  1.837453
   H (  9)  3.636806  4.103338
   H ( 10)  2.587736  3.779501  1.790521
   H ( 11)  3.598783  4.153332  1.755198  1.774403
 
 Final energy is   -5265.62232589343     


 ******************************
 **  OPTIMIZATION CONVERGED  **
 ******************************

                       Coordinates (Angstroms)
     ATOM                X               Y               Z
      1  Br        2.0758517326   -0.4814245744   -0.6968068828
      2  Br        0.8197974571    1.9458694599    0.1977660807
      3  C        -0.7764098936   -1.2812579830    0.0102589905
      4  C         0.2550240889   -0.9225716439    0.8708761839
      5  C        -1.8630586812   -0.3920618970   -0.4749465251
      6  H        -0.7624649984   -2.2951542762   -0.3884434522
      7  H         0.2440438212    0.0105440178    1.4075930790
      8  H         0.8314412129   -1.7281092402    1.3165883971
      9  H        -2.8366795450   -0.8727644291   -0.3114962954
     10  H        -1.8496255674    0.5881317523    0.0007108288
     11  H        -1.7731256271   -0.2502021861   -1.5612914045

Z-matrix Print:
$molecule
0 3
Br
C  1 2.442878
H  2 1.076518 1 99.847245
H  2 1.086189 1 90.098029 3 -116.781388 0
C  2 1.390386 1 101.671507 3 125.421764 0
H  5 1.089561 2 117.198087 1 78.826527 0
C  5 1.485564 2 126.184183 1 -97.859417 0
H  7 1.089592 5 112.759326 2 -6.268844 0
H  7 1.098057 5 109.750642 2 -129.097039 0
H  7 1.099253 5 109.887784 2 114.677857 0
Br 3 2.353860 2 116.995600 1 32.762257 0
$end

PES scan, value:    3.0000 energy: -5265.6223258934
------- Summary of potential scan: ------ 
    3.0000     -5265.6223258934
----------------------------------------- 
Archival summary:
1\1\hpc0242\JobtypUnspecified\ProcedureUnspecified\6-31G**\r236(3)\knomura\ThuMar1401:20:102019ThuMar1401:20:102019\0\\#,JobtypUnspecified,ProcedureUnspecified,6-31G**,\\0,3\Br\C,1,2.44288\H,2,1.07652,1,99.8472\H,2,1.08619,1,90.098,3,-116.781,0\C,2,1.39039,1,101.672,3,125.422,0\H,5,1.08956,2,117.198,1,78.8265,0\C,5,1.48556,2,126.184,1,-97.8594,0\H,7,1.08959,5,112.759,2,-6.26884,0\H,7,1.09806,5,109.751,2,-129.097,0\H,7,1.09925,5,109.888,2,114.678,0\Br,3,2.35386,2,116.996,1,32.7623,0\\\@

 Total job time:  61.69s(wall), 715.41s(cpu) 
 Thu Mar 14 01:20:10 2019

        *************************************************************
        *                                                           *
        *  Thank you very much for using Q-Chem.  Have a nice day.  *
        *                                                           *
        *************************************************************


