
Running Job 1 of 1 selenium/02/C-Se.xyz.data/inputs/bond_singlet_1.5.in
qchem selenium/02/C-Se.xyz.data/inputs/bond_singlet_1.5.in_26805.0 /staging/scratch/2868765/qchem26805/ 1
/usr/usc/qchem/5.1.1/exe/qcprog.exe_s selenium/02/C-Se.xyz.data/inputs/bond_singlet_1.5.in_26805.0 /staging/scratch/2868765/qchem26805/
Check license passed

                  Welcome to Q-Chem
     A Quantum Leap Into The Future Of Chemistry


 Q-Chem 5.1, Q-Chem, Inc., Pleasanton, CA (2018)

 Yihan Shao,  Zhengting Gan,  E. Epifanovsky,  A. T. B. Gilbert,  M. Wormit,  
 J. Kussmann,  A. W. Lange,  A. Behn,  Jia Deng,  Xintian Feng,  D. Ghosh,  
 M. Goldey,  P. R. Horn,  L. D. Jacobson,  I. Kaliman,  T. Kus,  A. Landau,  
 Jie Liu,  E. I. Proynov,  R. M. Richard,  R. P. Steele,  E. J. Sundstrom,  
 H. L. Woodcock III,  P. M. Zimmerman,  D. Zuev,  B. Albrecht,  E. Alguire,  
 S. A. Baeppler,  D. Barton,  Z. Benda,  Y. A. Bernard,  E. J. Berquist,  
 K. B. Bravaya,  H. Burton,  D. Casanova,  Chun-Min Chang,  Yunqing Chen,  
 A. Chien,  K. D. Closser,  M. P. Coons,  S. Coriani,  S. Dasgupta,  
 A. L. Dempwolff,  M. Diedenhofen,  Hainam Do,  R. G. Edgar,  Po-Tung Fang,  
 S. Faraji,  S. Fatehi,  Qingguo Feng,  K. D. Fenk,  J. Fosso-Tande,  
 Qinghui Ge,  A. Ghysels,  G. Gidofalvi,  J. Gomes,  J. Gonthier,  A. Gunina,  
 D. Hait,  M. W. D. Hanson-Heine,  P. H. P. Harbach,  A. W. Hauser,  
 J. E. Herr,  E. G. Hohenstein,  Z. C. Holden,  Kerwin Hui,  B. C. Huynh,  
 T.-C. Jagau,  Hyunjun Ji,  B. Kaduk,  K. Khistyaev,  Jaehoon Kim,  
 P. Klunzinger,  K. Koh,  D. Kosenkov,  L. Koulias,  T. Kowalczyk,  
 C. M. Krauter,  A. Kunitsa,  Ka Un Lao,  A. Laurent,  K. V. Lawler,  
 Joonho Lee,  D. Lefrancois,  S. Lehtola,  D. S. Levine,  Yi-Pei Li,  
 You-Sheng Lin,  Fenglai Liu,  E. Livshits,  A. Luenser,  P. Manohar,  
 E. Mansoor,  S. F. Manzer,  Shan-Ping Mao,  Yuezhi Mao,  N. Mardirossian,  
 A. V. Marenich,  T. Markovich,  L. A. Martinez-Martinez,  S. A. Maurer,  
 N. J. Mayhall,  S. C. McKenzie,  J.-M. Mewes,  A. F. Morrison,  
 J. W. Mullinax,  K. Nanda,  T. S. Nguyen-Beck,  R. Olivares-Amaya,  
 J. A. Parkhill,  T. M. Perrine,  F. Plasser,  P. Pokhilko,  S. Prager,  
 A. Prociuk,  E. Ramos,  D. R. Rehn,  F. Rob,  M. Schneider,  N. Sergueev,  
 S. M. Sharada,  S. Sharma,  D. W. Small,  T. Stauch,  T. Stein,  
 Yu-Chuan Su,  A. J. W. Thom,  A. Tkatchenko,  T. Tsuchimochi,  N. M. Tubman,  
 L. Vogt,  M. L. Vidal,  O. Vydrov,  M. A. Watson,  J. Wenzel,  
 M. de Wergifosse,  T. A. Wesolowski,  A. White,  J. Witte,  A. Yamada,  
 Jun Yang,  K. Yao,  S. Yeganeh,  S. R. Yost,  Zhi-Qiang You,  A. Zech,  
 Igor Ying Zhang,  Xing Zhang,  Yan Zhao,  Ying Zhu,  B. R. Brooks,  
 G. K. L. Chan,  C. J. Cramer,  M. S. Gordon,  W. J. Hehre,  A. Klamt,  
 M. W. Schmidt,  C. D. Sherrill,  D. G. Truhlar,  A. Aspuru-Guzik,  R. Baer,  
 A. T. Bell,  N. A. Besley,  Jeng-Da Chai,  A. E. DePrince, III,  
 R. A. DiStasio Jr.,  A. Dreuw,  B. D. Dunietz,  T. R. Furlani,  
 Chao-Ping Hsu,  Yousung Jung,  Jing Kong,  D. S. Lambrecht,  WanZhen Liang,  
 C. Ochsenfeld,  V. A. Rassolov,  L. V. Slipchenko,  J. E. Subotnik,  
 T. Van Voorhis,  J. M. Herbert,  A. I. Krylov,  P. M. W. Gill,  M. Head-Gordon

 Contributors to earlier versions of Q-Chem not listed above: 
 R. D. Adamson,  B. Austin,  J. Baker,  G. J. O. Beran,  K. Brandhorst,  
 S. T. Brown,  E. F. C. Byrd,  A. K. Chakraborty,  C.-L. Cheng,  
 Siu Hung Chien,  D. M. Chipman,  D. L. Crittenden,  H. Dachsel,  
 R. J. Doerksen,  A. D. Dutoi,  L. Fusti-Molnar,  W. A. Goddard III,  
 A. Golubeva-Zadorozhnaya,  S. R. Gwaltney,  G. Hawkins,  A. Heyden,  
 S. Hirata,  G. Kedziora,  F. J. Keil,  C. Kelley,  Jihan Kim,  R. A. King,  
 R. Z. Khaliullin,  P. P. Korambath,  W. Kurlancheek,  A. M. Lee,  M. S. Lee,  
 S. V. Levchenko,  Ching Yeh Lin,  D. Liotard,  R. C. Lochan,  I. Lotan,  
 P. E. Maslen,  N. Nair,  D. P. O'Neill,  D. Neuhauser,  E. Neuscamman,  
 C. M. Oana,  R. Olson,  B. Peters,  R. Peverati,  P. A. Pieniazek,  
 Y. M. Rhee,  J. Ritchie,  M. A. Rohrdanz,  E. Rosta,  N. J. Russ,  
 H. F. Schaefer III,  N. E. Schultz,  N. Shenvi,  A. C. Simmonett,  A. Sodt,  
 D. Stuck,  K. S. Thanthiriwatte,  V. Vanovschi,  Tao Wang,  A. Warshel,  
 C. F. Williams,  Q. Wu,  X. Xu,  W. Zhang

 Please cite Q-Chem as follows:
 Y. Shao et al., Mol. Phys. 113, 184-215 (2015)
 DOI: 10.1080/00268976.2014.952696

 Q-Chem 5.1.1 for Intel X86 EM64T Linux

 Parts of Q-Chem use Armadillo 8.300.2 (Tropical Shenanigans).
 http://arma.sourceforge.net/

 Q-Chem begins on Wed Mar 13 19:37:02 2019  

Host: 
0

     Scratch files written to /staging/scratch/2868765/qchem26805//
 Aug318 |scratch|qcdevops|jenkins|workspace|build_RNUM 6013   
Processing $rem in /usr/usc/qchem/5.1.1/config/preferences.
 MEM_TOTAL  2000 
Input Ideriv = 2
Curr. Ideriv = -1
Max.  Ideriv = 2

Checking the input file for inconsistencies... 	...done.

--------------------------------------------------------------
User input:
--------------------------------------------------------------

$comment
potential surface scanner
$end

$rem
JOBTYPE  PES_SCAN
UNRESTRICTED TRUE
SYM_IGNORE  TRUE
GEOM_OPT_MAX_CYCLES 400
SCF_MAX_CYCLES 400
METHOD   B3LYP
BASIS   6-31G**
PDB_PRINT 2
SCF_CONVERGENCE 6
THRESH 14
SCF_PRINT 1
$end
$molecule
0 1
C 0.034100 0.572900 -0.443500
H 0.076700 0.782000 -1.512400
C 0.317600 1.856700 0.339100
H -0.478400 2.578000 0.154400
H 0.362900 1.630300 1.404300
C 1.654900 2.445600 -0.114500
H 1.856900 3.360200 0.443000
H 2.450900 1.724300 0.070100
H 1.609600 2.672000 -1.179800
Se -1.749100 -0.095100 0.021000
H -1.828300 -1.374900 -0.867600
Se 1.377500 -0.779800 0.011600
H 1.146900 -0.923300 1.547800
$end
$scan
stre 1 10 1.500000 1.501000 0.100000
$end
--------------------------------------------------------------
 ----------------------------------------------------------------
             Standard Nuclear Orientation (Angstroms)
    I     Atom           X                Y                Z
 ----------------------------------------------------------------
    1      C       0.0341000000     0.5729000000    -0.4435000000
    2      H       0.0767000000     0.7820000000    -1.5124000000
    3      C       0.3176000000     1.8567000000     0.3391000000
    4      H      -0.4784000000     2.5780000000     0.1544000000
    5      H       0.3629000000     1.6303000000     1.4043000000
    6      C       1.6549000000     2.4456000000    -0.1145000000
    7      H       1.8569000000     3.3602000000     0.4430000000
    8      H       2.4509000000     1.7243000000     0.0701000000
    9      H       1.6096000000     2.6720000000    -1.1798000000
   10      Se     -1.7491000000    -0.0951000000     0.0210000000
   11      H      -1.8283000000    -1.3749000000    -0.8676000000
   12      Se      1.3775000000    -0.7798000000     0.0116000000
   13      H       1.1469000000    -0.9233000000     1.5478000000
 ----------------------------------------------------------------
 Nuclear Repulsion Energy =   610.2149414962 hartrees
 There are       47 alpha and       47 beta electrons
 Requested basis set is 6-31G(d,p)
 There are 52 shells and 155 basis functions

 Total QAlloc Memory Limit   2000 MB
 Mega-Array Size       188 MB
 MEM_STATIC part       192 MB
A total of 1 constraints
  
            1
    1   1.0100000
    2   1.0100000
    3  10.0100000
    4   1.5000000
    5   1.5010000
    6   0.1000000
    7   0.0000000
    8   0.0000000
    9   0.0000000
   10   0.0000000

                       Distance Matrix (Angstroms)
             C (  1)   H (  2)   C (  3)   H (  4)   H (  5)   C (  6)
   H (  2)  1.089993
   C (  3)  1.530025  2.154313
   H (  4)  2.154197  2.512364  1.089956
   H (  5)  2.154198  3.051010  1.089936  1.779936
   C (  6)  2.498447  2.685592  1.530009  2.154253  2.154236
   H (  7)  3.446378  3.693212  2.154240  2.479668  2.479655  1.090002
   H (  8)  2.725881  3.004840  2.154265  3.052328  2.479651  1.089939
   H (  9)  2.725905  2.456116  2.154306  2.479651  3.052372  1.090034
   Se( 10)  1.960048  2.540505  2.860413  2.962758  3.057952  4.249792
   H ( 11)  2.728061  2.949069  4.062542  4.300248  4.358224  5.224563
   Se( 12)  1.960009  2.540448  2.860380  3.839216  2.962703  3.239762
   H ( 13)  2.728042  3.663086  3.142784  4.103933  2.675093  3.790883
             H (  7)   H (  8)   H (  9)   Se( 10)   H ( 11)   Se( 12)
   H (  8)  1.779904
   H (  9)  1.779960  1.779936
   Se( 10)  5.012027  4.577404  4.514380
   H ( 11)  6.141624  5.366179  5.319213  1.560055
   Se( 12)  4.189932  2.725092  3.658993  3.200708  3.377024
   H ( 13)  4.480296  3.300576  4.536527  3.376959  3.858745  1.560025

 
 A cutoff of  1.0D-14 yielded   1254 shell pairs
 There are     11192 function pairs
 
 -------------------------------------------------------
 OpenMP Integral Computing Module                       
 Release: version 1.0, May 2013, Q-Chem Inc. Pittsburgh 
 -------------------------------------------------------
 Integral Job Info:
 Integral job number is                      11
 Integral operator is                         1
 short-range coefficients                     0
 long-range coefficients              100000000
 Omega coefficients                           0
 if combine SR and LR in K                    0
 Integral screening is                        0
 Integral computing path is                   2
 max size of driver memory is            800000
 size of driver memory is                593474
 size of scratch memory is             15267112
 max col of scratch BK array               1296
 max len of scratch array in speh3          155
 max len of scratch index in speh4           18
 max int batch size is                      520
 min int batch size is                       52
 fixed nKL is                                52
 max L of basis functions is                  2
 order of int derivative is                   0
 number of shells is                         52
 number of basis is                         155
 number of cartesian basis is               155
 number of contracted shell pairs          1254
 number of primitive shell pairs           5102
 maxK2 (contraction) of shell pair           36
 max number of K2 of shell pair               1
 max number of CS2 of shell pair             82
 max number of PS2 of shell pair            486
 mem total for path MDJ                  537180
 -------------------------------------------------------
 Smallest overlap matrix eigenvalue = 6.73E-04

 Scale SEOQF with 1.000000e-01/1.000000e-01/1.000000e-01

 Standard Electronic Orientation quadrupole field applied
 Nucleus-field energy     =     0.0000000142 hartrees
 Guess from superposition of atomic densities
 Warning:  Energy on first SCF cycle will be non-variational
 SAD guess density has 93.936381 electrons

 -----------------------------------------------------------------------
  General SCF calculation program by
  Eric Jon Sundstrom, Paul Horn, Yuezhi Mao, Dmitri Zuev, Alec White,
  David Stuck, Shaama M.S., Shane Yost, Joonho Lee, David Small,
  Daniel Levine, Susi Lehtola, Hugh Burton, Evgeny Epifanovsky
 -----------------------------------------------------------------------
 Exchange:     0.2000 Hartree-Fock + 0.0800 Slater + 0.7200 B88
 Correlation:  0.1900 VWN1RPA + 0.8100 LYP
 Using SG-1 standard quadrature grid
 using 12 threads for integral computing
 -------------------------------------------------------
 OpenMP Integral computing Module                
 Release: version 1.0, May 2013, Q-Chem Inc. Pittsburgh 
 -------------------------------------------------------
 -------------------------------------------------------
 OpenMP BLAS3 based DFT computing Module                
 Release: version 1.0, May 2013, Q-Chem Inc. Pittsburgh 
 -------------------------------------------------------
 A unrestricted SCF calculation will be
 performed using DIIS
 SCF converges when DIIS error is below 1.0e-06
 Alpha HF Exchange    Energy = -18.88088981603169
 Beta HF Exchange     Energy = -18.88088981603169
 DFT Correlation      Energy =  -5.14675623099071
 DFT Exchange         Energy = -149.91783501154578
 One-Electron (alpha) Energy = -4027.77226392166403
 One-Electron (beta)  Energy = -4027.77226392166403
 Total Coulomb        Energy = 2710.12536221476739
 ---------------------------------------
  Cycle       Energy         DIIS error
 ---------------------------------------
    1   -4928.0305949928      1.51e-01  
 Alpha HF Exchange    Energy = -18.97631791032203
 Beta HF Exchange     Energy = -18.97631791032201
 DFT Correlation      Energy =  -5.20098027640877
 DFT Exchange         Energy = -151.07399137078224
 One-Electron (alpha) Energy = -4038.62911529100347
 One-Electron (beta)  Energy = -4038.62911529099938
 Total Coulomb        Energy = 2739.69811555823117
    2   -4921.5727809812      9.36e-03  
 Alpha HF Exchange    Energy = -18.83771322383403
 Beta HF Exchange     Energy = -18.83771322383400
 DFT Correlation      Energy =  -5.15602290845031
 DFT Exchange         Energy = -149.96023387035299
 One-Electron (alpha) Energy = -4022.55343867430975
 One-Electron (beta)  Energy = -4022.55343867430747
 Total Coulomb        Energy = 2706.12093351881549
    3   -4921.5626855459      3.92e-03  
 Alpha HF Exchange    Energy = -18.95737727360580
 Beta HF Exchange     Energy = -18.95737727360582
 DFT Correlation      Energy =  -5.19510633503697
 DFT Exchange         Energy = -150.91481652244011
 One-Electron (alpha) Energy = -4036.28042149740077
 One-Electron (beta)  Energy = -4036.28042149740395
 Total Coulomb        Energy = 2734.75194401732779
    4   -4921.6186348718      3.03e-03  
 Alpha HF Exchange    Energy = -18.91272033010709
 Beta HF Exchange     Energy = -18.91272033010712
 DFT Correlation      Energy =  -5.17924607506018
 DFT Exchange         Energy = -150.55372884452709
 One-Electron (alpha) Energy = -4031.37034473199492
 One-Electron (beta)  Energy = -4031.37034473199810
 Total Coulomb        Energy = 2724.37553457119884
    5   -4921.7086289622      7.96e-04  
 Alpha HF Exchange    Energy = -18.90956306901651
 Beta HF Exchange     Energy = -18.90956306901649
 DFT Correlation      Energy =  -5.17954333311257
 DFT Exchange         Energy = -150.53238894285312
 One-Electron (alpha) Energy = -4031.04287574755108
 One-Electron (beta)  Energy = -4031.04287574754972
 Total Coulomb        Energy = 2723.68565718711352
    6   -4921.7162112116      9.08e-05  
 Alpha HF Exchange    Energy = -18.90863755120243
 Beta HF Exchange     Energy = -18.90863755120242
 DFT Correlation      Energy =  -5.17907677905223
 DFT Exchange         Energy = -150.52456697312124
 One-Electron (alpha) Energy = -4030.87775429454314
 One-Electron (beta)  Energy = -4030.87775429454223
 Total Coulomb        Energy = 2723.34517647612438
    7   -4921.7163094572      3.02e-05  
 Alpha HF Exchange    Energy = -18.90885283871467
 Beta HF Exchange     Energy = -18.90885283871465
 DFT Correlation      Energy =  -5.17910067692377
 DFT Exchange         Energy = -150.52619483042898
 One-Electron (alpha) Energy = -4030.92124572443663
 One-Electron (beta)  Energy = -4030.92124572443572
 Total Coulomb        Energy = 2723.43423121583510
    8   -4921.7163199074      1.02e-05  
 Alpha HF Exchange    Energy = -18.90886838031053
 Beta HF Exchange     Energy = -18.90886838031052
 DFT Correlation      Energy =  -5.17912556307716
 DFT Exchange         Energy = -150.52634504096801
 One-Electron (alpha) Energy = -4030.92167488121913
 One-Electron (beta)  Energy = -4030.92167488121868
 Total Coulomb        Energy = 2723.43529454476811
    9   -4921.7163210720      6.91e-07  Convergence criterion met
 ---------------------------------------
 SCF time:   CPU 46.43s  wall 4.00s 
<S^2> =          0.000000000
 Alpha HF Exchange    Energy = -18.90886838031053
 Beta HF Exchange     Energy = -18.90886838031052
 DFT Correlation      Energy =  -5.17912556307716
 DFT Exchange         Energy = -150.52634504096801
 One-Electron (alpha) Energy = -4030.92167488121913
 One-Electron (beta)  Energy = -4030.92167488121868
 Total Coulomb        Energy = 2723.43529454476811
 Nuclear repulsion Energy = 610.21494151037882
 SCF   energy in the final basis set =    -4921.7163210720
 Total energy in the final basis set =    -4921.7163210720
 
 --------------------------------------------------------------
 
                    Orbital Energies (a.u.)
 --------------------------------------------------------------
 
 Alpha MOs
 -- Occupied --
*******-453.900 -58.096 -58.096 -52.153 -52.153 -52.152 -52.152
-52.149 -52.149 -10.257 -10.204 -10.181  -7.829  -7.829  -5.775
 -5.775  -5.770  -5.770  -5.761  -5.761  -2.108  -2.108  -2.108
 -2.108  -2.100  -2.100  -2.096  -2.096  -2.095  -2.095  -0.828
 -0.739  -0.688  -0.642  -0.584  -0.475  -0.441  -0.438  -0.396
 -0.374  -0.362  -0.352  -0.341  -0.305  -0.243  -0.214
 -- Virtual --
 -0.017   0.013   0.020   0.033   0.094   0.119   0.149   0.154
  0.169   0.174   0.194   0.218   0.224   0.258   0.273   0.288
  0.302   0.319   0.327   0.359   0.446   0.460   0.474   0.509
  0.514   0.560   0.588   0.617   0.624   0.631   0.663   0.680
  0.693   0.760   0.775   0.809   0.843   0.860   0.860   0.888
  0.917   0.928   0.935   0.953   0.996   1.007   1.050   1.118
  1.330   1.410   1.463   1.549   1.569   1.626   1.658   1.712
  1.786   1.830   1.882   1.970   2.035   2.048   2.058   2.061
  2.071   2.079   2.093   2.109   2.123   2.164   2.267   2.308
  2.370   2.436   2.478   2.525   2.539   2.562   2.588   2.678
  2.721   2.743   2.829   2.898   2.916   3.209   3.281   3.312
  3.408   3.472   3.538   4.192   4.267   4.275   4.323   4.346
  4.352   4.366   4.390   4.414   4.430   4.527   4.548   4.645
  5.463   5.479  89.757  89.815
 
 Beta MOs
 -- Occupied --
*******-453.900 -58.096 -58.096 -52.153 -52.153 -52.152 -52.152
-52.149 -52.149 -10.257 -10.204 -10.181  -7.829  -7.829  -5.775
 -5.775  -5.770  -5.770  -5.761  -5.761  -2.108  -2.108  -2.108
 -2.108  -2.100  -2.100  -2.096  -2.096  -2.095  -2.095  -0.828
 -0.739  -0.688  -0.642  -0.584  -0.475  -0.441  -0.438  -0.396
 -0.374  -0.362  -0.352  -0.341  -0.305  -0.243  -0.214
 -- Virtual --
 -0.017   0.013   0.020   0.033   0.094   0.119   0.149   0.154
  0.169   0.174   0.194   0.218   0.224   0.258   0.273   0.288
  0.302   0.319   0.327   0.359   0.446   0.460   0.474   0.509
  0.514   0.560   0.588   0.617   0.624   0.631   0.663   0.680
  0.693   0.760   0.775   0.809   0.843   0.860   0.860   0.888
  0.917   0.928   0.935   0.953   0.996   1.007   1.050   1.118
  1.330   1.410   1.463   1.549   1.569   1.626   1.658   1.712
  1.786   1.830   1.882   1.970   2.035   2.048   2.058   2.061
  2.071   2.079   2.093   2.109   2.123   2.164   2.267   2.308
  2.370   2.436   2.478   2.525   2.539   2.562   2.588   2.678
  2.721   2.743   2.829   2.898   2.916   3.209   3.281   3.312
  3.408   3.472   3.538   4.192   4.267   4.275   4.323   4.346
  4.352   4.366   4.390   4.414   4.430   4.527   4.548   4.645
  5.463   5.479  89.757  89.815
 --------------------------------------------------------------
 
          Ground-State Mulliken Net Atomic Charges

     Atom                 Charge (a.u.)    Spin (a.u.)
  --------------------------------------------------------
      1 C                    -0.220328      -0.000000
      2 H                     0.159612       0.000000
      3 C                    -0.193281       0.000000
      4 H                     0.121386      -0.000000
      5 H                     0.119824      -0.000000
      6 C                    -0.327363       0.000000
      7 H                     0.108411      -0.000000
      8 H                     0.146157      -0.000000
      9 H                     0.104844       0.000000
     10 Se                   -0.070353      -0.000000
     11 H                     0.057498       0.000000
     12 Se                   -0.066420      -0.000000
     13 H                     0.060012       0.000000
  --------------------------------------------------------
  Sum of atomic charges =     0.000000
  Sum of spin   charges =    -0.000000

 -----------------------------------------------------------------
                    Cartesian Multipole Moments
 -----------------------------------------------------------------
    Charge (ESU x 10^10)
                -0.0000
    Dipole Moment (Debye)
         X       0.4245      Y       1.0314      Z      -0.1580
       Tot       1.1265
    Quadrupole Moments (Debye-Ang)
        XX     -62.2292     XY       2.1919     YY     -56.1097
        XZ       1.3970     YZ       0.1145     ZZ     -55.0847
    Octopole Moments (Debye-Ang^2)
       XXX     -23.8544    XXY     -23.2589    XYY      -8.6946
       YYY     -43.5653    XXZ       2.6429    XYZ      -4.2942
       YYZ       1.7599    XZZ      -2.9403    YZZ     -16.6180
       ZZZ       0.3869
    Hexadecapole Moments (Debye-Ang^3)
      XXXX    -804.8391   XXXY     -46.2211   XXYY    -222.2935
      XYYY     -53.6060   YYYY    -582.5032   XXXZ      -6.3927
      XXYZ       4.1424   XYYZ       5.3532   YYYZ       3.2617
      XXZZ    -151.1909   XYZZ     -19.8092   YYZZ    -113.9473
      XZZZ      -2.4041   YZZZ      -2.7634   ZZZZ    -111.3483
 -----------------------------------------------------------------
 Calculating analytic gradient of the SCF energy
 Gradient of SCF Energy
            1           2           3           4           5           6
    1   0.0031738  -0.0044481  -0.0045263   0.0043888   0.0037936   0.0048157
    2   0.0025744   0.0063499   0.0006914  -0.0026889  -0.0013767  -0.0027679
    3  -0.0145295   0.0017621   0.0069615  -0.0016440  -0.0037336  -0.0053018
            7           8           9          10          11          12
    1  -0.0026847  -0.0029830  -0.0033400   0.0219872  -0.0076247  -0.0154924
    2  -0.0032246  -0.0025889  -0.0026569   0.0166527  -0.0236207   0.0205377
    3   0.0008600   0.0012628   0.0029615   0.0116447  -0.0146884  -0.0132841
           13
    1   0.0029403
    2  -0.0078816
    3   0.0277287
 Max gradient component =       2.773E-02
 RMS gradient           =       1.006E-02
 Gradient time:  CPU 20.37 s  wall 1.73 s
 Geometry Optimization Parameters
   NAtoms,    NIC,     NZ,  NCons,   NDum,   NFix, NCnnct, MaxDiis
       13      82       0       1       0       0       0       0


** CONSTRAINED OPTIMIZATION IN DELOCALIZED INTERNAL COORDINATES **
   Searching for a Minimum

   Optimization Cycle:   1

                       Coordinates (Angstroms)
     ATOM                X               Y               Z
      1  C         0.0341000000    0.5729000000   -0.4435000000
      2  H         0.0767000000    0.7820000000   -1.5124000000
      3  C         0.3176000000    1.8567000000    0.3391000000
      4  H        -0.4784000000    2.5780000000    0.1544000000
      5  H         0.3629000000    1.6303000000    1.4043000000
      6  C         1.6549000000    2.4456000000   -0.1145000000
      7  H         1.8569000000    3.3602000000    0.4430000000
      8  H         2.4509000000    1.7243000000    0.0701000000
      9  H         1.6096000000    2.6720000000   -1.1798000000
     10  Se       -1.7491000000   -0.0951000000    0.0210000000
     11  H        -1.8283000000   -1.3749000000   -0.8676000000
     12  Se        1.3775000000   -0.7798000000    0.0116000000
     13  H         1.1469000000   -0.9233000000    1.5478000000
   Point Group: c1    Number of degrees of freedom:    33


   Energy is  -4921.716321072

              Constraints and their Current Values
                                        Value     Constraint
   Distance(Angs):        1  10             1.960048     1.500000

 Attempting to Generate Delocalized Internal Coordinates
**WARNING** Constraint Gradient Reduced for constraint   1

   Using Lagrange Multiplier Algorithm


 34 Hessian modes will be used to form the next step
  Hessian Eigenvalues:
    -0.920016    0.045000    0.045000    0.045000    0.045000    0.071290
     0.079478    0.083853    0.084996    0.085000    0.089581    0.099112
     0.108032    0.128632    0.144756    0.144767    0.160000    0.160000
     0.160000    0.160000    0.160000    0.166938    0.193769    0.208843
     0.219836    0.294211    0.294226    0.348088    0.348125    0.348134
     0.348177    0.348197    0.348201    1.086938

 Minimum Search - Taking P-RFO Step
 Searching for Lamda that Maximizes Along the Constraint modes Only
 Value Taken    Lamda =   0.05364252


 ********************************************
 ** ERROR IN DETERMINING Lamda IN CONFormD **
 ********************************************


 ** Scaling Hessian by  2.384112 **


 34 Hessian modes will be used to form the next step
  Hessian Eigenvalues:
    -0.820624    0.107285    0.107285    0.107285    0.107285    0.169964
     0.189484    0.199916    0.202639    0.202651    0.213571    0.236293
     0.257560    0.306672    0.345115    0.345141    0.381458    0.381458
     0.381458    0.381458    0.381458    0.398000    0.461968    0.497905
     0.524113    0.701432    0.701468    0.829880    0.829968    0.829992
     0.830094    0.830141    0.830149    1.218584

 Minimum Search - Taking P-RFO Step
 Searching for Lamda that Maximizes Along the Constraint modes Only
 Value Taken    Lamda =   0.06462281
 Searching for Lamda that Minimizes Along All other modes
 Value Taken    Lamda =  -0.03734567
 Calculated Step too Large.  Step scaled by  0.909351
 Step Taken.  Stepsize is  0.300000

                             Maximum     Tolerance    Cnvgd?
         Gradient            0.300000       0.000300      NO
         Displacement        0.257419       0.001200      NO
         Energy change     *********       0.000001      NO


 New Cartesian Coordinates Obtained by Inverse Iteration

 Displacement from previous Coordinates is:  0.467316
 ----------------------------------------------------------------
             Standard Nuclear Orientation (Angstroms)
    I     Atom           X                Y                Z
 ----------------------------------------------------------------
    1      C       0.0161922604     0.5357767411    -0.4203922202
    2      H       0.0554498940     0.7204015407    -1.4943065780
    3      C       0.3128372920     1.8401244300     0.3379872130
    4      H      -0.4916258349     2.5532853871     0.1433316011
    5      H       0.3530731167     1.6308769981     1.4087419068
    6      C       1.6431332464     2.4577131108    -0.1154369476
    7      H       1.8258400205     3.3839898974     0.4323674907
    8      H       2.4624002130     1.7643057483     0.0749568703
    9      H       1.6060077365     2.6800411595    -1.1837805799
   10      Se     -1.6608253640    -0.0226285793     0.0292085911
   11      H      -1.7258413860    -1.2774924352    -0.8342292222
   12      Se      1.3453764123    -0.8648556252    -0.0029835614
   13      H       1.0901823931    -0.9526383734     1.4980354363
 ----------------------------------------------------------------
 Nuclear Repulsion Energy =   620.8000971081 hartrees
 There are       47 alpha and       47 beta electrons

                       Distance Matrix (Angstroms)
             C (  1)   H (  2)   C (  3)   H (  4)   H (  5)   C (  6)
   H (  2)  1.090376
   C (  3)  1.537680  2.162713
   H (  4)  2.155459  2.518058  1.092543
   H (  5)  2.158348  3.056998  1.091750  1.779218
   C (  6)  2.536489  2.727686  1.535154  2.152508  2.161258
   H (  7)  3.480566  3.733773  2.163702  2.478762  2.489127  1.091540
   H (  8)  2.781832  3.057079  2.166923  3.058338  2.499209  1.090074
   H (  9)  2.776355  2.518103  2.166455  2.485430  3.064598  1.091864
   Se( 10)  1.823827  2.412217  2.731398  2.831145  2.948386  4.133904
   H ( 11)  2.548311  2.756861  3.905104  4.141711  4.220358  5.081182
   Se( 12)  1.975533  2.530019  2.915359  3.883256  3.034191  3.337779
   H ( 13)  2.655033  3.581040  3.122419  4.077848  2.688095  3.813076
             H (  7)   H (  8)   H (  9)   Se( 10)   H ( 11)   Se( 12)
   H (  8)  1.776606
   H (  9)  1.776458  1.776626
   Se( 10)  4.891260  4.494020  4.409985
   H ( 11)  5.995676  5.255523  5.185121  1.524610
   Se( 12)  4.298030  2.857675  3.745464  3.122120  3.208367
   H ( 13)  4.525835  3.360048  4.544730  3.254292  3.670828  1.525086

 
 Applying Cartesian multipole field
    Component          Value
    ---------          -----
     (2,0,0)        1.00000E-11
     (0,2,0)        2.00000E-11
     (0,0,2)       -3.00000E-11
 Nucleus-field energy     =     0.0000000140 hartrees
 Requested basis set is 6-31G(d,p)
 There are 52 shells and 155 basis functions
 A cutoff of  1.0D-14 yielded   1262 shell pairs
 There are     11283 function pairs
 Smallest overlap matrix eigenvalue = 6.74E-04
 Guess from superposition of atomic densities
 Warning:  Energy on first SCF cycle will be non-variational
 SAD guess density has 93.936381 electrons

 -----------------------------------------------------------------------
  General SCF calculation program by
  Eric Jon Sundstrom, Paul Horn, Yuezhi Mao, Dmitri Zuev, Alec White,
  David Stuck, Shaama M.S., Shane Yost, Joonho Lee, David Small,
  Daniel Levine, Susi Lehtola, Hugh Burton, Evgeny Epifanovsky
 -----------------------------------------------------------------------
 Exchange:     0.2000 Hartree-Fock + 0.0800 Slater + 0.7200 B88
 Correlation:  0.1900 VWN1RPA + 0.8100 LYP
 Using SG-1 standard quadrature grid
 using 12 threads for integral computing
 -------------------------------------------------------
 OpenMP Integral computing Module                
 Release: version 1.0, May 2013, Q-Chem Inc. Pittsburgh 
 -------------------------------------------------------
 -------------------------------------------------------
 OpenMP BLAS3 based DFT computing Module                
 Release: version 1.0, May 2013, Q-Chem Inc. Pittsburgh 
 -------------------------------------------------------
 A unrestricted SCF calculation will be
 performed using DIIS
 SCF converges when DIIS error is below 1.0e-06
 Alpha HF Exchange    Energy = -18.89342396084937
 Beta HF Exchange     Energy = -18.89342396084937
 DFT Correlation      Energy =  -5.15013385374682
 DFT Exchange         Energy = -149.94474857113022
 One-Electron (alpha) Energy = -4038.28018746659927
 One-Electron (beta)  Energy = -4038.28018746659927
 Total Coulomb        Energy = 2720.44813775642069
 ---------------------------------------
  Cycle       Energy         DIIS error
 ---------------------------------------
    1   -4928.1938704013      1.51e-01  
 Alpha HF Exchange    Energy = -18.98221125256340
 Beta HF Exchange     Energy = -18.98221125256340
 DFT Correlation      Energy =  -5.20465613930106
 DFT Exchange         Energy = -151.11487632907975
 One-Electron (alpha) Energy = -4049.20748203111589
 One-Electron (beta)  Energy = -4049.20748203111634
 Total Coulomb        Energy = 2750.32795663162278
    2   -4921.5708652820      9.36e-03  
 Alpha HF Exchange    Energy = -18.84280288981309
 Beta HF Exchange     Energy = -18.84280288981313
 DFT Correlation      Energy =  -5.15935127318966
 DFT Exchange         Energy = -149.99269854986429
 One-Electron (alpha) Energy = -4033.10776587662122
 One-Electron (beta)  Energy = -4033.10776587662440
 Total Coulomb        Energy = 2716.69668663924176
    3   -4921.5564035946      3.96e-03  
 Alpha HF Exchange    Energy = -18.96269037241981
 Beta HF Exchange     Energy = -18.96269037241981
 DFT Correlation      Energy =  -5.19885031813964
 DFT Exchange         Energy = -150.95157167564722
 One-Electron (alpha) Energy = -4046.84323601261394
 One-Electron (beta)  Energy = -4046.84323601261440
 Total Coulomb        Energy = 2745.35494336162810
    4   -4921.6072342802      3.14e-03  
 Alpha HF Exchange    Energy = -18.91906764885720
 Beta HF Exchange     Energy = -18.91906764885720
 DFT Correlation      Energy =  -5.18302146751700
 DFT Exchange         Energy = -150.59742662535467
 One-Electron (alpha) Energy = -4041.98266519651497
 One-Electron (beta)  Energy = -4041.98266519651543
 Total Coulomb        Energy = 2735.07726516496223
    5   -4921.7065514966      8.12e-04  
 Alpha HF Exchange    Energy = -18.91495875039014
 Beta HF Exchange     Energy = -18.91495875039013
 DFT Correlation      Energy =  -5.18307585561021
 DFT Exchange         Energy = -150.56832845590264
 One-Electron (alpha) Energy = -4041.60439369563483
 One-Electron (beta)  Energy = -4041.60439369563392
 Total Coulomb        Energy = 2734.27595131948556
    6   -4921.7140607620      9.08e-05  
 Alpha HF Exchange    Energy = -18.91406173277241
 Beta HF Exchange     Energy = -18.91406173277239
 DFT Correlation      Energy =  -5.18262752704702
 DFT Exchange         Energy = -150.56079011492312
 One-Electron (alpha) Energy = -4041.43741121002904
 One-Electron (beta)  Energy = -4041.43741121002677
 Total Coulomb        Energy = 2733.93211110961647
    7   -4921.7141552959      3.24e-05  
 Alpha HF Exchange    Energy = -18.91428230671188
 Beta HF Exchange     Energy = -18.91428230671190
 DFT Correlation      Energy =  -5.18264621802671
 DFT Exchange         Energy = -150.56243670179663
 One-Electron (alpha) Energy = -4041.48102234774024
 One-Electron (beta)  Energy = -4041.48102234774069
 Total Coulomb        Energy = 2734.02142832191748
    8   -4921.7141667847      1.02e-05  
 Alpha HF Exchange    Energy = -18.91430716905811
 Beta HF Exchange     Energy = -18.91430716905808
 DFT Correlation      Energy =  -5.18267533395730
 DFT Exchange         Energy = -150.56266429237036
 One-Electron (alpha) Energy = -4041.48305250989233
 One-Electron (beta)  Energy = -4041.48305250988960
 Total Coulomb        Energy = 2734.02579393740962
    9   -4921.7141679247      7.40e-07  Convergence criterion met
 ---------------------------------------
 SCF time:   CPU 45.35s  wall 4.00s 
<S^2> =         -0.000000000
 Alpha HF Exchange    Energy = -18.91430716905811
 Beta HF Exchange     Energy = -18.91430716905808
 DFT Correlation      Energy =  -5.18267533395730
 DFT Exchange         Energy = -150.56266429237036
 One-Electron (alpha) Energy = -4041.48305250989233
 One-Electron (beta)  Energy = -4041.48305250988960
 Total Coulomb        Energy = 2734.02579393740962
 Nuclear repulsion Energy = 620.80009712207300
 SCF   energy in the final basis set =    -4921.7141679247
 Total energy in the final basis set =    -4921.7141679247
 
 --------------------------------------------------------------
 
                    Orbital Energies (a.u.)
 --------------------------------------------------------------
 
 Alpha MOs
 -- Occupied --
*******-453.898 -58.095 -58.094 -52.152 -52.152 -52.151 -52.150
-52.149 -52.148 -10.250 -10.206 -10.182  -7.829  -7.827  -5.775
 -5.773  -5.770  -5.769  -5.761  -5.759  -2.109  -2.108  -2.107
 -2.106  -2.100  -2.098  -2.096  -2.095  -2.094  -2.093  -0.836
 -0.748  -0.693  -0.641  -0.582  -0.475  -0.449  -0.439  -0.396
 -0.374  -0.362  -0.352  -0.345  -0.311  -0.244  -0.213
 -- Virtual --
 -0.015   0.025   0.030   0.057   0.094   0.116   0.147   0.154
  0.168   0.172   0.188   0.217   0.225   0.257   0.274   0.287
  0.302   0.315   0.337   0.357   0.447   0.463   0.478   0.502
  0.511   0.558   0.593   0.617   0.625   0.638   0.666   0.686
  0.708   0.756   0.784   0.816   0.842   0.863   0.870   0.890
  0.921   0.923   0.945   0.955   1.011   1.039   1.066   1.118
  1.339   1.409   1.476   1.547   1.589   1.631   1.661   1.721
  1.775   1.826   1.876   1.964   2.035   2.051   2.061   2.064
  2.079   2.080   2.101   2.111   2.133   2.208   2.261   2.305
  2.365   2.447   2.490   2.529   2.570   2.588   2.594   2.682
  2.720   2.743   2.825   2.893   2.911   3.202   3.279   3.315
  3.408   3.469   3.533   4.189   4.269   4.277   4.330   4.345
  4.366   4.384   4.396   4.425   4.434   4.513   4.532   4.638
  5.466   5.480  89.774  89.811
 
 Beta MOs
 -- Occupied --
*******-453.898 -58.095 -58.094 -52.152 -52.152 -52.151 -52.150
-52.149 -52.148 -10.250 -10.206 -10.182  -7.829  -7.827  -5.775
 -5.773  -5.770  -5.769  -5.761  -5.759  -2.109  -2.108  -2.107
 -2.106  -2.100  -2.098  -2.096  -2.095  -2.094  -2.093  -0.836
 -0.748  -0.693  -0.641  -0.582  -0.475  -0.449  -0.439  -0.396
 -0.374  -0.362  -0.352  -0.345  -0.311  -0.244  -0.213
 -- Virtual --
 -0.015   0.025   0.030   0.057   0.094   0.116   0.147   0.154
  0.168   0.172   0.188   0.217   0.225   0.257   0.274   0.287
  0.302   0.315   0.337   0.357   0.447   0.463   0.478   0.502
  0.511   0.558   0.593   0.617   0.625   0.638   0.666   0.686
  0.708   0.756   0.784   0.816   0.842   0.863   0.870   0.890
  0.921   0.923   0.945   0.955   1.011   1.039   1.066   1.118
  1.339   1.409   1.476   1.547   1.589   1.631   1.661   1.721
  1.775   1.826   1.876   1.964   2.035   2.051   2.061   2.064
  2.079   2.080   2.101   2.111   2.133   2.208   2.261   2.305
  2.365   2.447   2.490   2.529   2.570   2.588   2.594   2.682
  2.720   2.743   2.825   2.893   2.911   3.202   3.279   3.315
  3.408   3.469   3.533   4.189   4.269   4.277   4.330   4.345
  4.366   4.384   4.396   4.425   4.434   4.513   4.532   4.638
  5.466   5.480  89.774  89.811
 --------------------------------------------------------------
 
          Ground-State Mulliken Net Atomic Charges

     Atom                 Charge (a.u.)    Spin (a.u.)
  --------------------------------------------------------
      1 C                    -0.203493       0.000000
      2 H                     0.155235       0.000000
      3 C                    -0.201167      -0.000000
      4 H                     0.123874       0.000000
      5 H                     0.120253       0.000000
      6 C                    -0.326348       0.000000
      7 H                     0.107819      -0.000000
      8 H                     0.142484      -0.000000
      9 H                     0.105496      -0.000000
     10 Se                   -0.068384       0.000000
     11 H                     0.057587       0.000000
     12 Se                   -0.073997      -0.000000
     13 H                     0.060639       0.000000
  --------------------------------------------------------
  Sum of atomic charges =    -0.000000
  Sum of spin   charges =     0.000000

 -----------------------------------------------------------------
                    Cartesian Multipole Moments
 -----------------------------------------------------------------
    Charge (ESU x 10^10)
                 0.0000
    Dipole Moment (Debye)
         X       0.3005      Y       1.0217      Z      -0.1818
       Tot       1.0804
    Quadrupole Moments (Debye-Ang)
        XX     -62.0973     XY       2.1678     YY     -56.1299
        XZ       1.3979     YZ       0.1161     ZZ     -55.0817
    Octopole Moments (Debye-Ang^2)
       XXX     -27.6668    XXY     -22.0743    XYY      -8.8263
       YYY     -42.0088    XXZ       2.1859    XYZ      -3.9009
       YYZ       2.1902    XZZ      -4.1272    YZZ     -16.4472
       ZZZ       0.1741
    Hexadecapole Moments (Debye-Ang^3)
      XXXX    -755.5666   XXXY     -33.1649   XXYY    -217.1174
      XYYY     -41.3667   YYYY    -594.6592   XXXZ      -3.5456
      XXYZ       3.3468   XYYZ       5.3019   YYYZ       1.6192
      XXZZ    -143.0797   XYZZ     -15.5277   YYZZ    -115.8915
      XZZZ       0.0612   YZZZ      -3.1548   ZZZZ    -109.4194
 -----------------------------------------------------------------
 Calculating analytic gradient of the SCF energy
 Gradient of SCF Energy
            1           2           3           4           5           6
    1  -0.0425683  -0.0079594  -0.0112160   0.0034383   0.0031249   0.0057095
    2  -0.0165890   0.0029283  -0.0009887  -0.0011931  -0.0011988  -0.0006267
    3   0.0023515   0.0014967   0.0080240  -0.0017870  -0.0026962  -0.0043399
            7           8           9          10          11          12
    1  -0.0017912  -0.0023819  -0.0021180   0.0727718  -0.0031184  -0.0156411
    2  -0.0020595  -0.0007972  -0.0016910   0.0291379  -0.0139786   0.0112076
    3   0.0006252   0.0007595   0.0018474  -0.0062515  -0.0098225  -0.0074863
           13
    1   0.0017500
    2  -0.0041511
    3   0.0172792
 Max gradient component =       7.277E-02
 RMS gradient           =       1.577E-02
 Gradient time:  CPU 20.53 s  wall 1.74 s
 Geometry Optimization Parameters
   NAtoms,    NIC,     NZ,  NCons,   NDum,   NFix, NCnnct, MaxDiis
       13      82       0       1       0       0       0       0

 Cartesian Hessian Update
 Hessian Updated using BFGS Update


** CONSTRAINED OPTIMIZATION IN DELOCALIZED INTERNAL COORDINATES **
   Searching for a Minimum

   Optimization Cycle:   2

                       Coordinates (Angstroms)
     ATOM                X               Y               Z
      1  C         0.0161922604    0.5357767411   -0.4203922202
      2  H         0.0554498940    0.7204015407   -1.4943065780
      3  C         0.3128372920    1.8401244300    0.3379872130
      4  H        -0.4916258349    2.5532853871    0.1433316011
      5  H         0.3530731167    1.6308769981    1.4087419068
      6  C         1.6431332464    2.4577131108   -0.1154369476
      7  H         1.8258400205    3.3839898974    0.4323674907
      8  H         2.4624002130    1.7643057483    0.0749568703
      9  H         1.6060077365    2.6800411595   -1.1837805799
     10  Se       -1.6608253640   -0.0226285793    0.0292085911
     11  H        -1.7258413860   -1.2774924352   -0.8342292222
     12  Se        1.3453764123   -0.8648556252   -0.0029835614
     13  H         1.0901823931   -0.9526383734    1.4980354363
   Point Group: c1    Number of degrees of freedom:    33


   Energy is  -4921.714167925

              Constraints and their Current Values
                                        Value     Constraint
   Distance(Angs):        1  10             1.823827     1.500000
 Hessian Updated using BFGS Update
**WARNING** Constraint Gradient Reduced for constraint   1

   Using Lagrange Multiplier Algorithm


 29 Hessian modes will be used to form the next step
  Hessian Eigenvalues:
    -0.871014    0.107099    0.107347    0.169846    0.188259    0.200820
     0.202639    0.202701    0.208114    0.236245    0.258689    0.306698
     0.319893    0.345128    0.373996    0.383233    0.396842    0.462296
     0.500281    0.521148    0.699483    0.701925    0.829121    0.829918
     0.830002    0.830026    0.830134    0.830219    1.157116

 Minimum Search - Taking P-RFO Step
 Searching for Lamda that Maximizes Along the Constraint modes Only
 Value Taken    Lamda =   0.04158987
 Searching for Lamda that Minimizes Along All other modes
 Value Taken    Lamda =  -0.05552930
 Calculated Step too Large.  Step scaled by  0.861834
 Step Taken.  Stepsize is  0.300000

                             Maximum     Tolerance    Cnvgd?
         Gradient            0.300000       0.000300      NO
         Displacement        0.246149       0.001200      NO
         Energy change      0.002153       0.000001      NO


 New Cartesian Coordinates Obtained by Inverse Iteration

 Displacement from previous Coordinates is:  0.364464
 ----------------------------------------------------------------
             Standard Nuclear Orientation (Angstroms)
    I     Atom           X                Y                Z
 ----------------------------------------------------------------
    1      C      -0.0122368079     0.5034523560    -0.3956796170
    2      H       0.0437381672     0.6711988919    -1.4729494785
    3      C       0.3042449376     1.8269806239     0.3376361355
    4      H      -0.5061006738     2.5354826990     0.1340155653
    5      H       0.3365830885     1.6346095352     1.4142210793
    6      C       1.6310350563     2.4591629368    -0.1140812637
    7      H       1.8047970744     3.3956343456     0.4226039284
    8      H       2.4658692758     1.7844876890     0.0828616345
    9      H       1.6056649064     2.6770236874    -1.1858322076
   10      Se     -1.5860333750     0.0394736218     0.0239277769
   11      H      -1.6542490941    -1.1960912760    -0.8029248979
   12      Se      1.3407532923    -0.9189355656    -0.0158346510
   13      H       1.0581341525    -0.9635795450     1.4455359958
 ----------------------------------------------------------------
 Nuclear Repulsion Energy =   630.1648016447 hartrees
 There are       47 alpha and       47 beta electrons

                       Distance Matrix (Angstroms)
             C (  1)   H (  2)   C (  3)   H (  4)   H (  5)   C (  6)
   H (  2)  1.091688
   C (  3)  1.545846  2.163773
   H (  4)  2.157226  2.521946  1.095489
   H (  5)  2.162622  3.057723  1.094115  1.777812
   C (  6)  2.569911  2.750064  1.537555  2.152841  2.165918
   H (  7)  3.512252  3.757260  2.172453  2.482618  2.498032  1.093253
   H (  8)  2.830382  3.086532  2.177001  3.065814  2.515719  1.091293
   H (  9)  2.822474  2.558395  2.176516  2.494311  3.075300  1.093964
   Se( 10)  1.693571  2.301277  2.620448  2.721844  2.858991  4.027837
   H ( 11)  2.398020  2.611296  3.778299  4.015065  4.109990  4.962709
   Se( 12)  1.999513  2.516736  2.956239  3.919991  3.094190  3.391971
   H ( 13)  2.586107  3.495577  3.095645  4.050969  2.696702  3.804706
             H (  7)   H (  8)   H (  9)   Se( 10)   H ( 11)   Se( 12)
   H (  8)  1.774327
   H (  9)  1.772885  1.773741
   Se( 10)  4.787535  4.412081  4.313598
   H ( 11)  5.877998  5.161768  5.076877  1.488274
   Se( 12)  4.361545  2.929868  3.790778  3.079969  3.109078
   H ( 13)  4.539454  3.374977  4.525249  3.165234  3.530816  1.489117

 
 Applying Cartesian multipole field
    Component          Value
    ---------          -----
     (2,0,0)        1.00000E-11
     (0,2,0)        2.00000E-11
     (0,0,2)       -3.00000E-11
 Nucleus-field energy     =     0.0000000139 hartrees
 Requested basis set is 6-31G(d,p)
 There are 52 shells and 155 basis functions
 A cutoff of  1.0D-14 yielded   1268 shell pairs
 There are     11313 function pairs
 Smallest overlap matrix eigenvalue = 6.74E-04
 Guess from superposition of atomic densities
 Warning:  Energy on first SCF cycle will be non-variational
 SAD guess density has 93.936381 electrons

 -----------------------------------------------------------------------
  General SCF calculation program by
  Eric Jon Sundstrom, Paul Horn, Yuezhi Mao, Dmitri Zuev, Alec White,
  David Stuck, Shaama M.S., Shane Yost, Joonho Lee, David Small,
  Daniel Levine, Susi Lehtola, Hugh Burton, Evgeny Epifanovsky
 -----------------------------------------------------------------------
 Exchange:     0.2000 Hartree-Fock + 0.0800 Slater + 0.7200 B88
 Correlation:  0.1900 VWN1RPA + 0.8100 LYP
 Using SG-1 standard quadrature grid
 using 12 threads for integral computing
 -------------------------------------------------------
 OpenMP Integral computing Module                
 Release: version 1.0, May 2013, Q-Chem Inc. Pittsburgh 
 -------------------------------------------------------
 -------------------------------------------------------
 OpenMP BLAS3 based DFT computing Module                
 Release: version 1.0, May 2013, Q-Chem Inc. Pittsburgh 
 -------------------------------------------------------
 A unrestricted SCF calculation will be
 performed using DIIS
 SCF converges when DIIS error is below 1.0e-06
 Alpha HF Exchange    Energy = -18.90886634514645
 Beta HF Exchange     Energy = -18.90886634514645
 DFT Correlation      Energy =  -5.15389916451301
 DFT Exchange         Energy = -149.97845448380997
 One-Electron (alpha) Energy = -4047.52909975412513
 One-Electron (beta)  Energy = -4047.52909975412513
 Total Coulomb        Energy = 2729.45428219472933
 ---------------------------------------
  Cycle       Energy         DIIS error
 ---------------------------------------
    1   -4928.3892019935      1.52e-01  
 Alpha HF Exchange    Energy = -18.98897627066177
 Beta HF Exchange     Energy = -18.98897627066176
 DFT Correlation      Energy =  -5.20889688325757
 DFT Exchange         Energy = -151.16589946615795
 One-Electron (alpha) Energy = -4058.60169438536241
 One-Electron (beta)  Energy = -4058.60169438536195
 Total Coulomb        Energy = 2759.84641437144546
    2   -4921.5449216314      9.38e-03  
 Alpha HF Exchange    Energy = -18.84791782664967
 Beta HF Exchange     Energy = -18.84791782664965
 DFT Correlation      Energy =  -5.16285897258412
 DFT Exchange         Energy = -150.02823443610063
 One-Electron (alpha) Energy = -4042.25558468315330
 One-Electron (beta)  Energy = -4042.25558468315239
 Total Coulomb        Energy = 2725.71110462650768
    3   -4921.5221921432      4.06e-03  
 Alpha HF Exchange    Energy = -18.96877583740438
 Beta HF Exchange     Energy = -18.96877583740440
 DFT Correlation      Energy =  -5.20312314841762
 DFT Exchange         Energy = -150.99745548863012
 One-Electron (alpha) Energy = -4056.22887725317787
 One-Electron (beta)  Energy = -4056.22887725317923
 Total Coulomb        Energy = 2754.86062258959601
    4   -4921.5704605700      3.30e-03  
 Alpha HF Exchange    Energy = -18.92616765497057
 Beta HF Exchange     Energy = -18.92616765497057
 DFT Correlation      Energy =  -5.18729349794197
 DFT Exchange         Energy = -150.65005035395404
 One-Electron (alpha) Energy = -4051.35573134434981
 One-Electron (beta)  Energy = -4051.35573134434981
 Total Coulomb        Energy = 2744.55333050973195
    5   -4921.6830096822      8.34e-04  
 Alpha HF Exchange    Energy = -18.92094687785574
 Beta HF Exchange     Energy = -18.92094687785574
 DFT Correlation      Energy =  -5.18704877115935
 DFT Exchange         Energy = -150.61198909669756
 One-Electron (alpha) Energy = -4050.90764606122548
 One-Electron (beta)  Energy = -4050.90764606122502
 Total Coulomb        Energy = 2743.60086161578556
    6   -4921.6905604716      9.76e-05  
 Alpha HF Exchange    Energy = -18.92008619063823
 Beta HF Exchange     Energy = -18.92008619063823
 DFT Correlation      Energy =  -5.18661953593800
 DFT Exchange         Energy = -150.60477231544542
 One-Electron (alpha) Energy = -4050.74003704372672
 One-Electron (beta)  Energy = -4050.74003704372581
 Total Coulomb        Energy = 2743.25617258059083
    7   -4921.6906640809      3.70e-05  
 Alpha HF Exchange    Energy = -18.92031477082534
 Beta HF Exchange     Energy = -18.92031477082532
 DFT Correlation      Energy =  -5.18662868829636
 DFT Exchange         Energy = -150.60645035005143
 One-Electron (alpha) Energy = -4050.78292125923417
 One-Electron (beta)  Energy = -4050.78292125923463
 Total Coulomb        Energy = 2743.34407126339011
    8   -4921.6906781765      1.04e-05  
 Alpha HF Exchange    Energy = -18.92035353548621
 Beta HF Exchange     Energy = -18.92035353548624
 DFT Correlation      Energy =  -5.18666417340229
 DFT Exchange         Energy = -150.60679268474522
 One-Electron (alpha) Energy = -4050.78736355898354
 One-Electron (beta)  Energy = -4050.78736355898627
 Total Coulomb        Energy = 2743.35341004238308
    9   -4921.6906793461      8.52e-07  Convergence criterion met
 ---------------------------------------
 SCF time:   CPU 45.36s  wall 3.00s 
<S^2> =         -0.000000000
 Alpha HF Exchange    Energy = -18.92035353548621
 Beta HF Exchange     Energy = -18.92035353548624
 DFT Correlation      Energy =  -5.18666417340229
 DFT Exchange         Energy = -150.60679268474522
 One-Electron (alpha) Energy = -4050.78736355898354
 One-Electron (beta)  Energy = -4050.78736355898627
 Total Coulomb        Energy = 2743.35341004238308
 Nuclear repulsion Energy = 630.16480165861867
 SCF   energy in the final basis set =    -4921.6906793461
 Total energy in the final basis set =    -4921.6906793461
 
 --------------------------------------------------------------
 
                    Orbital Energies (a.u.)
 --------------------------------------------------------------
 
 Alpha MOs
 -- Occupied --
*******-453.896 -58.094 -58.092 -52.152 -52.150 -52.149 -52.148
-52.148 -52.145 -10.244 -10.208 -10.183  -7.830  -7.825  -5.776
 -5.771  -5.771  -5.767  -5.763  -5.757  -2.111  -2.109  -2.104
 -2.104  -2.102  -2.098  -2.097  -2.096  -2.092  -2.091  -0.853
 -0.755  -0.698  -0.641  -0.580  -0.478  -0.458  -0.438  -0.397
 -0.375  -0.363  -0.357  -0.344  -0.314  -0.242  -0.212
 -- Virtual --
 -0.017   0.033   0.039   0.077   0.098   0.113   0.146   0.153
  0.167   0.169   0.184   0.214   0.226   0.256   0.276   0.287
  0.303   0.314   0.343   0.365   0.451   0.474   0.486   0.497
  0.509   0.556   0.598   0.616   0.628   0.645   0.669   0.688
  0.719   0.748   0.786   0.825   0.839   0.864   0.873   0.891
  0.917   0.928   0.954   0.969   1.031   1.051   1.114   1.121
  1.350   1.400   1.492   1.545   1.602   1.635   1.672   1.724
  1.765   1.821   1.870   1.961   2.032   2.052   2.062   2.072
  2.080   2.088   2.109   2.115   2.144   2.239   2.266   2.307
  2.360   2.450   2.508   2.528   2.590   2.609   2.614   2.691
  2.722   2.748   2.822   2.887   2.904   3.193   3.274   3.314
  3.407   3.465   3.528   4.180   4.270   4.279   4.328   4.342
  4.379   4.395   4.406   4.416   4.450   4.501   4.535   4.635
  5.472   5.485  89.802  89.837
 
 Beta MOs
 -- Occupied --
*******-453.896 -58.094 -58.092 -52.152 -52.150 -52.149 -52.148
-52.148 -52.145 -10.244 -10.208 -10.183  -7.830  -7.825  -5.776
 -5.771  -5.771  -5.767  -5.763  -5.757  -2.111  -2.109  -2.104
 -2.104  -2.102  -2.098  -2.097  -2.096  -2.092  -2.091  -0.853
 -0.755  -0.698  -0.641  -0.580  -0.478  -0.458  -0.438  -0.397
 -0.375  -0.363  -0.357  -0.344  -0.314  -0.242  -0.212
 -- Virtual --
 -0.017   0.033   0.039   0.077   0.098   0.113   0.146   0.153
  0.167   0.169   0.184   0.214   0.226   0.256   0.276   0.287
  0.303   0.314   0.343   0.365   0.451   0.474   0.486   0.497
  0.509   0.556   0.598   0.616   0.628   0.645   0.669   0.688
  0.719   0.748   0.786   0.825   0.839   0.864   0.873   0.891
  0.917   0.928   0.954   0.969   1.031   1.051   1.114   1.121
  1.350   1.400   1.492   1.545   1.602   1.635   1.672   1.724
  1.765   1.821   1.870   1.961   2.032   2.052   2.062   2.072
  2.080   2.088   2.109   2.115   2.144   2.239   2.266   2.307
  2.360   2.450   2.508   2.528   2.590   2.609   2.614   2.691
  2.722   2.748   2.822   2.887   2.904   3.193   3.274   3.314
  3.407   3.465   3.528   4.180   4.270   4.279   4.328   4.342
  4.379   4.395   4.406   4.416   4.450   4.501   4.535   4.635
  5.472   5.485  89.802  89.837
 --------------------------------------------------------------
 
          Ground-State Mulliken Net Atomic Charges

     Atom                 Charge (a.u.)    Spin (a.u.)
  --------------------------------------------------------
      1 C                    -0.176200      -0.000000
      2 H                     0.148662       0.000000
      3 C                    -0.211947       0.000000
      4 H                     0.126513       0.000000
      5 H                     0.122014      -0.000000
      6 C                    -0.325654       0.000000
      7 H                     0.107567      -0.000000
      8 H                     0.140973      -0.000000
      9 H                     0.106145      -0.000000
     10 Se                   -0.070878       0.000000
     11 H                     0.056277      -0.000000
     12 Se                   -0.084962      -0.000000
     13 H                     0.061490       0.000000
  --------------------------------------------------------
  Sum of atomic charges =    -0.000000
  Sum of spin   charges =    -0.000000

 -----------------------------------------------------------------
                    Cartesian Multipole Moments
 -----------------------------------------------------------------
    Charge (ESU x 10^10)
                -0.0000
    Dipole Moment (Debye)
         X       0.1978      Y       1.0724      Z      -0.2086
       Tot       1.1103
    Quadrupole Moments (Debye-Ang)
        XX     -61.8830     XY       2.1761     YY     -56.1440
        XZ       1.4386     YZ       0.1094     ZZ     -55.0947
    Octopole Moments (Debye-Ang^2)
       XXX     -31.5903    XXY     -21.1772    XYY      -9.4100
       YYY     -41.2308    XXZ       1.8250    XYZ      -3.5536
       YYZ       2.6641    XZZ      -5.4042    YZZ     -16.5154
       ZZZ       0.5499
    Hexadecapole Moments (Debye-Ang^3)
      XXXX    -721.4844   XXXY     -22.7144   XXYY    -213.3332
      XYYY     -30.5447   YYYY    -601.8056   XXXZ      -1.8858
      XXYZ       2.4970   XYYZ       4.8449   YYYZ      -0.1025
      XXZZ    -137.4557   XYZZ     -11.9145   YYZZ    -117.0490
      XZZZ       0.9008   YZZZ      -3.8789   ZZZZ    -107.5476
 -----------------------------------------------------------------
 Calculating analytic gradient of the SCF energy
 Gradient of SCF Energy
            1           2           3           4           5           6
    1  -0.1259493  -0.0110787  -0.0148924   0.0018648   0.0024495   0.0046401
    2  -0.0442691   0.0002210  -0.0029410  -0.0000645  -0.0011291   0.0003709
    3   0.0316878   0.0011887   0.0069467  -0.0018430  -0.0013337  -0.0026124
            7           8           9          10          11          12
    1  -0.0005887  -0.0011951  -0.0009919   0.1569442   0.0014852  -0.0137575
    2  -0.0008399  -0.0001479  -0.0007684   0.0485020  -0.0030719   0.0047526
    3   0.0003344   0.0003776   0.0006747  -0.0366383  -0.0033483  -0.0005420
           13
    1   0.0010697
    2  -0.0006146
    3   0.0051077
 Max gradient component =       1.569E-01
 RMS gradient           =       3.503E-02
 Gradient time:  CPU 21.03 s  wall 1.78 s
 Geometry Optimization Parameters
   NAtoms,    NIC,     NZ,  NCons,   NDum,   NFix, NCnnct, MaxDiis
       13      82       0       1       0       0       0       0

 Cartesian Hessian Update
 Hessian Updated using BFGS Update


** CONSTRAINED OPTIMIZATION IN DELOCALIZED INTERNAL COORDINATES **
   Searching for a Minimum

   Optimization Cycle:   3

                       Coordinates (Angstroms)
     ATOM                X               Y               Z
      1  C        -0.0122368079    0.5034523560   -0.3956796170
      2  H         0.0437381672    0.6711988919   -1.4729494785
      3  C         0.3042449376    1.8269806239    0.3376361355
      4  H        -0.5061006738    2.5354826990    0.1340155653
      5  H         0.3365830885    1.6346095352    1.4142210793
      6  C         1.6310350563    2.4591629368   -0.1140812637
      7  H         1.8047970744    3.3956343456    0.4226039284
      8  H         2.4658692758    1.7844876890    0.0828616345
      9  H         1.6056649064    2.6770236874   -1.1858322076
     10  Se       -1.5860333750    0.0394736218    0.0239277769
     11  H        -1.6542490941   -1.1960912760   -0.8029248979
     12  Se        1.3407532923   -0.9189355656   -0.0158346510
     13  H         1.0581341525   -0.9635795450    1.4455359958
   Point Group: c1    Number of degrees of freedom:    33


   Energy is  -4921.690679346

              Constraints and their Current Values
                                        Value     Constraint
   Distance(Angs):        1  10             1.693571     1.500000
 Hessian Updated using BFGS Update
**WARNING** Constraint Gradient Reduced for constraint   1

   Using Lagrange Multiplier Algorithm


 31 Hessian modes will be used to form the next step
  Hessian Eigenvalues:
    -0.802095    0.107029    0.107311    0.107354    0.169659    0.185879
     0.196600    0.202643    0.202699    0.207343    0.236204    0.259236
     0.306706    0.315575    0.345135    0.372551    0.381482    0.385074
     0.397215    0.460839    0.503316    0.519978    0.698202    0.702218
     0.828674    0.829915    0.829999    0.830062    0.830133    0.830217
     1.261664

 Minimum Search - Taking P-RFO Step
 Searching for Lamda that Maximizes Along the Constraint modes Only
 Value Taken    Lamda =   0.07206423
 Searching for Lamda that Minimizes Along All other modes
 Value Taken    Lamda =  -0.03013860
 Calculated Step too Large.  Step scaled by  0.860308
 Step Taken.  Stepsize is  0.300000

                             Maximum     Tolerance    Cnvgd?
         Gradient            0.300000       0.000300      NO
         Displacement        0.241737       0.001200      NO
         Energy change      0.023489       0.000001      NO


 New Cartesian Coordinates Obtained by Inverse Iteration

 Displacement from previous Coordinates is:  0.250694
 ----------------------------------------------------------------
             Standard Nuclear Orientation (Angstroms)
    I     Atom           X                Y                Z
 ----------------------------------------------------------------
    1      C      -0.0521023357     0.4820183075    -0.3737272263
    2      H       0.0450515624     0.6455457832    -1.4510966111
    3      C       0.2939152404     1.8215300415     0.3372000141
    4      H      -0.5170308107     2.5309804129     0.1275383637
    5      H       0.3168347241     1.6448978937     1.4187321554
    6      C       1.6203051996     2.4532038119    -0.1130124614
    7      H       1.7931978433     3.3968988325     0.4138479992
    8      H       2.4620783312     1.7870192497     0.0903051362
    9      H       1.6068366399     2.6665130830    -1.1875361524
   10      Se     -1.5168796788     0.0831561401     0.0091475272
   11      H      -1.6279042441    -1.1477502524    -0.7826126156
   12      Se      1.3562137073    -0.9382062015    -0.0251508447
   13      H       1.0516838211    -0.9769071020     1.4098647156
 ----------------------------------------------------------------
 Nuclear Repulsion Energy =   639.4034934768 hartrees
 There are       47 alpha and       47 beta electrons

                       Distance Matrix (Angstroms)
             C (  1)   H (  2)   C (  3)   H (  4)   H (  5)   C (  6)
   H (  2)  1.094031
   C (  3)  1.555454  2.154734
   H (  4)  2.160017  2.522477  1.097685
   H (  5)  2.168251  3.050981  1.096100  1.774163
   C (  6)  2.598171  2.745819  1.536559  2.152236  2.167634
   H (  7)  3.538635  3.755526  2.176123  2.483736  2.501789  1.094547
   H (  8)  2.870446  3.085595  2.182448  3.070823  2.527249  1.092576
   H (  9)  2.861185  2.567673  2.182333  2.501720  3.082278  1.095574
   Se( 10)  1.565649  2.210933  2.531510  2.646801  2.790784  3.933698
   H ( 11)  2.303581  2.541960  3.709986  3.949111  4.053000  4.895518
   Se( 12)  2.030246  2.502147  2.979248  3.945582  3.136484  3.402811
   H ( 13)  2.554997  3.439587  3.091290  4.050988  2.722856  3.795806
             H (  7)   H (  8)   H (  9)   Se( 10)   H ( 11)   Se( 12)
   H (  8)  1.773075
   H (  9)  1.769922  1.771391
   Se( 10)  4.701201  4.329185  4.226510
   H ( 11)  5.812856  5.109091  5.017581  1.467767
   Se( 12)  4.379134  2.943318  3.795781  3.049430  3.085874
   H ( 13)  4.546655  3.371904  4.508791  3.111794  3.466459  1.467483

 
 Applying Cartesian multipole field
    Component          Value
    ---------          -----
     (2,0,0)        1.00000E-11
     (0,2,0)        2.00000E-11
     (0,0,2)       -3.00000E-11
 Nucleus-field energy     =     0.0000000138 hartrees
 Requested basis set is 6-31G(d,p)
 There are 52 shells and 155 basis functions
 A cutoff of  1.0D-14 yielded   1269 shell pairs
 There are     11325 function pairs
 Smallest overlap matrix eigenvalue = 6.73E-04
 Guess from superposition of atomic densities
 Warning:  Energy on first SCF cycle will be non-variational
 SAD guess density has 93.936381 electrons

 -----------------------------------------------------------------------
  General SCF calculation program by
  Eric Jon Sundstrom, Paul Horn, Yuezhi Mao, Dmitri Zuev, Alec White,
  David Stuck, Shaama M.S., Shane Yost, Joonho Lee, David Small,
  Daniel Levine, Susi Lehtola, Hugh Burton, Evgeny Epifanovsky
 -----------------------------------------------------------------------
 Exchange:     0.2000 Hartree-Fock + 0.0800 Slater + 0.7200 B88
 Correlation:  0.1900 VWN1RPA + 0.8100 LYP
 Using SG-1 standard quadrature grid
 using 12 threads for integral computing
 -------------------------------------------------------
 OpenMP Integral computing Module                
 Release: version 1.0, May 2013, Q-Chem Inc. Pittsburgh 
 -------------------------------------------------------
 -------------------------------------------------------
 OpenMP BLAS3 based DFT computing Module                
 Release: version 1.0, May 2013, Q-Chem Inc. Pittsburgh 
 -------------------------------------------------------
 A unrestricted SCF calculation will be
 performed using DIIS
 SCF converges when DIIS error is below 1.0e-06
 Alpha HF Exchange    Energy = -18.92606129308312
 Beta HF Exchange     Energy = -18.92606129308312
 DFT Correlation      Energy =  -5.15765058699882
 DFT Exchange         Energy = -150.01663748999721
 One-Electron (alpha) Energy = -4056.59885332514341
 One-Electron (beta)  Energy = -4056.59885332514341
 Total Coulomb        Energy = 2738.20730696453938
 ---------------------------------------
  Cycle       Energy         DIIS error
 ---------------------------------------
    1   -4928.6133168583      1.53e-01  
 Alpha HF Exchange    Energy = -18.99641221938597
 Beta HF Exchange     Energy = -18.99641221938597
 DFT Correlation      Energy =  -5.21346091139320
 DFT Exchange         Energy = -151.22651258357274
 One-Electron (alpha) Energy = -4067.96981412507648
 One-Electron (beta)  Energy = -4067.96981412507648
 Total Coulomb        Energy = 2769.48780071376223
    2   -4921.4811319795      9.42e-03  
 Alpha HF Exchange    Energy = -18.85178718242366
 Beta HF Exchange     Energy = -18.85178718242365
 DFT Correlation      Energy =  -5.16579710125604
 DFT Exchange         Energy = -150.05744503063138
 One-Electron (alpha) Energy = -4050.90114860793392
 One-Electron (beta)  Energy = -4050.90114860793165
 Total Coulomb        Energy = 2733.88336567119404
    3   -4921.4422545508      4.29e-03  
 Alpha HF Exchange    Energy = -18.97543267272488
 Beta HF Exchange     Energy = -18.97543267272489
 DFT Correlation      Energy =  -5.20765335444445
 DFT Exchange         Energy = -151.05183941110914
 One-Electron (alpha) Energy = -4065.60857429669704
 One-Electron (beta)  Energy = -4065.60857429669750
 Total Coulomb        Energy = 2764.52953666070562
    4   -4921.4944765531      3.54e-03  
 Alpha HF Exchange    Energy = -18.93354098885877
 Beta HF Exchange     Energy = -18.93354098885878
 DFT Correlation      Energy =  -5.19168705903792
 DFT Exchange         Energy = -150.70873438074511
 One-Electron (alpha) Energy = -4060.57608781438284
 One-Electron (beta)  Energy = -4060.57608781438512
 Total Coulomb        Energy = 2753.88934044496455
    5   -4921.6268451107      8.66e-04  
 Alpha HF Exchange    Energy = -18.92698419107428
 Beta HF Exchange     Energy = -18.92698419107428
 DFT Correlation      Energy =  -5.19105249381652
 DFT Exchange         Energy = -150.65995667793186
 One-Electron (alpha) Energy = -4060.02695568377658
 One-Electron (beta)  Energy = -4060.02695568377612
 Total Coulomb        Energy = 2752.72069598524558
    6   -4921.6346994456      1.15e-04  
 Alpha HF Exchange    Energy = -18.92620146407509
 Beta HF Exchange     Energy = -18.92620146407512
 DFT Correlation      Energy =  -5.19064514844767
 DFT Exchange         Energy = -150.65336547099164
 One-Electron (alpha) Energy = -4059.86430769123854
 One-Electron (beta)  Energy = -4059.86430769123990
 Total Coulomb        Energy = 2752.38670061463517
    7   -4921.6348348248      4.54e-05  
 Alpha HF Exchange    Energy = -18.92644874383729
 Beta HF Exchange     Energy = -18.92644874383732
 DFT Correlation      Energy =  -5.19064445844566
 DFT Exchange         Energy = -150.65514662718630
 One-Electron (alpha) Energy = -4059.90529297072771
 One-Electron (beta)  Energy = -4059.90529297073090
 Total Coulomb        Energy = 2752.47092654403104
    8   -4921.6348544801      1.10e-05  
 Alpha HF Exchange    Energy = -18.92650549075009
 Beta HF Exchange     Energy = -18.92650549075009
 DFT Correlation      Energy =  -5.19068845229145
 DFT Exchange         Energy = -150.65563823869894
 One-Electron (alpha) Energy = -4059.91317309447140
 One-Electron (beta)  Energy = -4059.91317309447004
 Total Coulomb        Energy = 2752.48733457843400
    9   -4921.6348557924      9.80e-07  Convergence criterion met
 ---------------------------------------
 SCF time:   CPU 45.83s  wall 3.00s 
<S^2> =         -0.000000000
 Alpha HF Exchange    Energy = -18.92650549075009
 Beta HF Exchange     Energy = -18.92650549075009
 DFT Correlation      Energy =  -5.19068845229145
 DFT Exchange         Energy = -150.65563823869894
 One-Electron (alpha) Energy = -4059.91317309447140
 One-Electron (beta)  Energy = -4059.91317309447004
 Total Coulomb        Energy = 2752.48733457843400
 Nuclear repulsion Energy = 639.40349349059579
 SCF   energy in the final basis set =    -4921.6348557924
 Total energy in the final basis set =    -4921.6348557924
 
 --------------------------------------------------------------
 
                    Orbital Energies (a.u.)
 --------------------------------------------------------------
 
 Alpha MOs
 -- Occupied --
*******-453.892 -58.095 -58.088 -52.153 -52.151 -52.149 -52.145
-52.144 -52.142 -10.239 -10.211 -10.184  -7.834  -7.821  -5.780
 -5.775  -5.767  -5.766  -5.763  -5.753  -2.116  -2.113  -2.106
 -2.101  -2.101  -2.101  -2.100  -2.092  -2.089  -2.087  -0.878
 -0.762  -0.698  -0.642  -0.579  -0.486  -0.466  -0.439  -0.401
 -0.376  -0.365  -0.362  -0.344  -0.313  -0.239  -0.210
 -- Virtual --
 -0.021   0.037   0.045   0.083   0.104   0.113   0.146   0.152
  0.164   0.166   0.180   0.212   0.227   0.256   0.274   0.293
  0.305   0.315   0.347   0.383   0.453   0.484   0.492   0.502
  0.515   0.556   0.600   0.620   0.633   0.650   0.671   0.687
  0.723   0.743   0.782   0.824   0.839   0.862   0.873   0.890
  0.915   0.931   0.954   0.993   1.044   1.053   1.124   1.199
  1.361   1.396   1.500   1.548   1.608   1.636   1.688   1.726
  1.760   1.815   1.864   1.962   2.024   2.050   2.062   2.078
  2.082   2.096   2.117   2.119   2.156   2.241   2.279   2.315
  2.356   2.449   2.513   2.535   2.594   2.616   2.629   2.701
  2.723   2.755   2.821   2.882   2.899   3.185   3.265   3.310
  3.403   3.460   3.525   4.159   4.271   4.280   4.318   4.342
  4.384   4.391   4.408   4.415   4.463   4.513   4.575   4.649
  5.476   5.492  89.814  89.900
 
 Beta MOs
 -- Occupied --
*******-453.892 -58.095 -58.088 -52.153 -52.151 -52.149 -52.145
-52.144 -52.142 -10.239 -10.211 -10.184  -7.834  -7.821  -5.780
 -5.775  -5.767  -5.766  -5.763  -5.753  -2.116  -2.113  -2.106
 -2.101  -2.101  -2.101  -2.100  -2.092  -2.089  -2.087  -0.878
 -0.762  -0.698  -0.642  -0.579  -0.486  -0.466  -0.439  -0.401
 -0.376  -0.365  -0.362  -0.344  -0.313  -0.239  -0.210
 -- Virtual --
 -0.021   0.037   0.045   0.083   0.104   0.113   0.146   0.152
  0.164   0.166   0.180   0.212   0.227   0.256   0.274   0.293
  0.305   0.315   0.347   0.383   0.453   0.484   0.492   0.502
  0.515   0.556   0.600   0.620   0.633   0.650   0.671   0.687
  0.723   0.743   0.782   0.824   0.839   0.862   0.873   0.890
  0.915   0.931   0.954   0.993   1.044   1.053   1.124   1.199
  1.361   1.396   1.500   1.548   1.608   1.636   1.688   1.726
  1.760   1.815   1.864   1.962   2.024   2.050   2.062   2.078
  2.082   2.096   2.117   2.119   2.156   2.241   2.279   2.315
  2.356   2.449   2.513   2.535   2.594   2.616   2.629   2.701
  2.723   2.755   2.821   2.882   2.899   3.185   3.265   3.310
  3.403   3.460   3.525   4.159   4.271   4.280   4.318   4.342
  4.384   4.391   4.408   4.415   4.463   4.513   4.575   4.649
  5.476   5.492  89.814  89.900
 --------------------------------------------------------------
 
          Ground-State Mulliken Net Atomic Charges

     Atom                 Charge (a.u.)    Spin (a.u.)
  --------------------------------------------------------
      1 C                    -0.148737      -0.000000
      2 H                     0.140378       0.000000
      3 C                    -0.222553       0.000000
      4 H                     0.128516      -0.000000
      5 H                     0.124989      -0.000000
      6 C                    -0.325115       0.000000
      7 H                     0.108040       0.000000
      8 H                     0.142104       0.000000
      9 H                     0.106887      -0.000000
     10 Se                   -0.064192      -0.000000
     11 H                     0.052610      -0.000000
     12 Se                   -0.103671      -0.000000
     13 H                     0.060744      -0.000000
  --------------------------------------------------------
  Sum of atomic charges =    -0.000000
  Sum of spin   charges =    -0.000000

 -----------------------------------------------------------------
                    Cartesian Multipole Moments
 -----------------------------------------------------------------
    Charge (ESU x 10^10)
                 0.0000
    Dipole Moment (Debye)
         X       0.0516      Y       1.2127      Z      -0.2474
       Tot       1.2387
    Quadrupole Moments (Debye-Ang)
        XX     -61.7516     XY       2.3255     YY     -56.0973
        XZ       1.5303     YZ       0.0402     ZZ     -55.0687
    Octopole Moments (Debye-Ang^2)
       XXX     -35.9535    XXY     -20.5187    XYY     -10.5320
       YYY     -40.9510    XXZ       1.4571    XYZ      -3.2395
       YYZ       3.1682    XZZ      -6.9278    YZZ     -16.7262
       ZZZ       1.3251
    Hexadecapole Moments (Debye-Ang^3)
      XXXX    -699.5509   XXXY     -15.3439   XXYY    -210.1496
      XYYY     -21.8923   YYYY    -603.0106   XXXZ      -1.2063
      XXYZ       1.6727   XYYZ       4.3204   YYYZ      -1.3119
      XXZZ    -133.5246   XYZZ      -9.3085   YYZZ    -117.2790
      XZZZ       0.5097   YZZZ      -4.5323   ZZZZ    -106.1278
 -----------------------------------------------------------------
 Calculating analytic gradient of the SCF energy
 Gradient of SCF Energy
            1           2           3           4           5           6
    1  -0.2770739  -0.0133337  -0.0143669   0.0004672   0.0017674   0.0023829
    2  -0.0870821  -0.0009532  -0.0047054   0.0003862  -0.0009390   0.0009870
    3   0.0783757   0.0008392   0.0040572  -0.0017349  -0.0001729  -0.0005268
            7           8           9          10          11          12
    1   0.0005299  -0.0000684  -0.0001492   0.3082888   0.0035262  -0.0130674
    2   0.0000842  -0.0000361  -0.0001325   0.0845412   0.0036982   0.0028345
    3   0.0000354   0.0001309  -0.0001642  -0.0830684   0.0017738   0.0034264
           13
    1   0.0010970
    2   0.0013170
    3  -0.0029712
 Max gradient component =       3.083E-01
 RMS gradient           =       7.166E-02
 Gradient time:  CPU 20.78 s  wall 1.76 s
 Geometry Optimization Parameters
   NAtoms,    NIC,     NZ,  NCons,   NDum,   NFix, NCnnct, MaxDiis
       13      82       0       1       0       0       0       0

 Cartesian Hessian Update
 Hessian Updated using BFGS Update


** CONSTRAINED OPTIMIZATION IN DELOCALIZED INTERNAL COORDINATES **
   Searching for a Minimum

   Optimization Cycle:   4

                       Coordinates (Angstroms)
     ATOM                X               Y               Z
      1  C        -0.0521023357    0.4820183075   -0.3737272263
      2  H         0.0450515624    0.6455457832   -1.4510966111
      3  C         0.2939152404    1.8215300415    0.3372000141
      4  H        -0.5170308107    2.5309804129    0.1275383637
      5  H         0.3168347241    1.6448978937    1.4187321554
      6  C         1.6203051996    2.4532038119   -0.1130124614
      7  H         1.7931978433    3.3968988325    0.4138479992
      8  H         2.4620783312    1.7870192497    0.0903051362
      9  H         1.6068366399    2.6665130830   -1.1875361524
     10  Se       -1.5168796788    0.0831561401    0.0091475272
     11  H        -1.6279042441   -1.1477502524   -0.7826126156
     12  Se        1.3562137073   -0.9382062015   -0.0251508447
     13  H         1.0516838211   -0.9769071020    1.4098647156
   Point Group: c1    Number of degrees of freedom:    33


   Energy is  -4921.634855792

              Constraints and their Current Values
                                        Value     Constraint
   Distance(Angs):        1  10             1.565649     1.500000
 Hessian Updated using BFGS Update

   Using Lagrange Multiplier Algorithm


 33 Hessian modes will be used to form the next step
  Hessian Eigenvalues:
    -0.691816    0.106972    0.107285    0.107351    0.107357    0.169488
     0.183120    0.193792    0.202644    0.202682    0.208055    0.236202
     0.258723    0.306706    0.318883    0.345137    0.372069    0.381461
     0.381484    0.384436    0.394570    0.460533    0.502402    0.520082
     0.697302    0.701924    0.828681    0.829909    0.829980    0.830035
     0.830133    0.830201    1.479526

 Minimum Search - Taking P-RFO Step
 Searching for Lamda that Maximizes Along the Constraint modes Only
 Value Taken    Lamda =   0.02642978
 Searching for Lamda that Minimizes Along All other modes
 Value Taken    Lamda =  -0.00553246
 Step Taken.  Stepsize is  0.205540

                             Maximum     Tolerance    Cnvgd?
         Gradient            0.124059       0.000300      NO
         Displacement        0.133409       0.001200      NO
         Energy change      0.055824       0.000001      NO


 New Cartesian Coordinates Obtained by Inverse Iteration

 Displacement from previous Coordinates is:  0.151178
 ----------------------------------------------------------------
             Standard Nuclear Orientation (Angstroms)
    I     Atom           X                Y                Z
 ----------------------------------------------------------------
    1      C      -0.0858371159     0.4771505715    -0.3610779111
    2      H       0.0668343853     0.6500057676    -1.4332068426
    3      C       0.2866350035     1.8255864157     0.3384294023
    4      H      -0.5193114563     2.5412398227     0.1274686368
    5      H       0.3021004201     1.6594804611     1.4224503296
    6      C       1.6148649202     2.4442639330    -0.1146640561
    7      H       1.7926568639     3.3907766849     0.4060931420
    8      H       2.4551034462     1.7763983745     0.0915664863
    9      H       1.6061674678     2.6533206485    -1.1905791528
   10      Se     -1.4927864247     0.0915757959    -0.0024282084
   11      H      -1.6485747057    -1.1420440413    -0.7854036182
   12      Se      1.3877665874    -0.9236754123    -0.0270996739
   13      H       1.0665806082    -0.9951790217     1.4019514661
 ----------------------------------------------------------------
 Nuclear Repulsion Energy =   642.1861080867 hartrees
 There are       47 alpha and       47 beta electrons

                       Distance Matrix (Angstroms)
             C (  1)   H (  2)   C (  3)   H (  4)   H (  5)   C (  6)
   H (  2)  1.096653
   C (  3)  1.564073  2.137521
   H (  4)  2.164958  2.521119  1.098278
   H (  5)  2.174712  3.037954  1.096782  1.768953
   C (  6)  2.612019  2.711884  1.533705  2.150056  2.168399
   H (  7)  3.550564  3.724690  2.173132  2.478819  2.500425  1.094844
   H (  8)  2.889517  3.049184  2.183029  3.071387  2.533840  1.092967
   H (  9)  2.878657  2.538047  2.182699  2.503492  3.084839  1.096072
   Se( 10)  1.502266  2.188924  2.507851  2.639201  2.776729  3.899389
   H ( 11)  2.289976  2.563927  3.716836  3.959186  4.065500  4.895052
   Se( 12)  2.060428  2.489673  2.984048  3.958090  3.154768  3.376723
   H ( 13)  2.569843  3.426988  3.113858  4.079904  2.762620  3.798751
             H (  7)   H (  8)   H (  9)   Se( 10)   H ( 11)   Se( 12)
   H (  8)  1.773127
   H (  9)  1.768610  1.770193
   Se( 10)  4.673944  4.293402  4.192583
   H ( 11)  5.814482  5.111414  5.016204  1.469401
   Se( 12)  4.355007  2.905802  3.767796  3.054330  3.137209
   H ( 13)  4.555824  3.365523  4.508206  3.115073  3.489722  1.466445

 
 Applying Cartesian multipole field
    Component          Value
    ---------          -----
[...]
 There are       47 alpha and       47 beta electrons

                       Distance Matrix (Angstroms)
             C (  1)   H (  2)   C (  3)   H (  4)   H (  5)   C (  6)
   H (  2)  1.092581
   C (  3)  1.566463  2.139060
   H (  4)  2.167008  2.604005  1.098828
   H (  5)  2.184009  3.026432  1.095401  1.760962
   C (  6)  2.600277  2.628738  1.528113  2.148803  2.167359
   H (  7)  3.536271  3.653527  2.160731  2.451472  2.506835  1.094195
   H (  8)  2.902530  2.943639  2.178863  3.069504  2.517585  1.092430
   H (  9)  2.843451  2.440799  2.177656  2.518035  3.083002  1.095782
   Se( 10)  1.500000  2.240714  2.559397  2.689733  2.863763  3.919526
   H ( 11)  2.324804  2.549375  3.766196  3.966558  4.197842  4.889864
   Se( 12)  2.192923  2.523135  3.017624  4.019698  3.122992  3.381401
   H ( 13)  2.670381  3.423480  3.408890  4.310042  3.099873  4.200845
             H (  7)   H (  8)   H (  9)   Se( 10)   H ( 11)   Se( 12)
   H (  8)  1.771263
   H (  9)  1.767551  1.775861
   Se( 10)  4.703358  4.327577  4.170801
   H ( 11)  5.813891  5.164455  4.917413  1.483023
   Se( 12)  4.347156  2.884332  3.795703  3.169621  3.430707
   H ( 13)  5.012802  3.827115  4.827534  3.028148  3.445176  1.476636

 
 Applying Cartesian multipole field
    Component          Value
    ---------          -----
     (2,0,0)        1.00000E-11
     (0,2,0)        2.00000E-11
     (0,0,2)       -3.00000E-11
 Nucleus-field energy     =     0.0000000142 hartrees
 Requested basis set is 6-31G(d,p)
 There are 52 shells and 155 basis functions
 A cutoff of  1.0D-14 yielded   1258 shell pairs
 There are     11265 function pairs
 Smallest overlap matrix eigenvalue = 6.72E-04
 Guess from superposition of atomic densities
 Warning:  Energy on first SCF cycle will be non-variational
 SAD guess density has 93.936381 electrons

 -----------------------------------------------------------------------
  General SCF calculation program by
  Eric Jon Sundstrom, Paul Horn, Yuezhi Mao, Dmitri Zuev, Alec White,
  David Stuck, Shaama M.S., Shane Yost, Joonho Lee, David Small,
  Daniel Levine, Susi Lehtola, Hugh Burton, Evgeny Epifanovsky
 -----------------------------------------------------------------------
 Exchange:     0.2000 Hartree-Fock + 0.0800 Slater + 0.7200 B88
 Correlation:  0.1900 VWN1RPA + 0.8100 LYP
 Using SG-1 standard quadrature grid
 using 12 threads for integral computing
 -------------------------------------------------------
 OpenMP Integral computing Module                
 Release: version 1.0, May 2013, Q-Chem Inc. Pittsburgh 
 -------------------------------------------------------
 -------------------------------------------------------
 OpenMP BLAS3 based DFT computing Module                
 Release: version 1.0, May 2013, Q-Chem Inc. Pittsburgh 
 -------------------------------------------------------
 A unrestricted SCF calculation will be
 performed using DIIS
 SCF converges when DIIS error is below 1.0e-06
 Alpha HF Exchange    Energy = -18.92272902275946
 Beta HF Exchange     Energy = -18.92272902275946
 DFT Correlation      Energy =  -5.15584236980923
 DFT Exchange         Energy = -150.01444831416725
 One-Electron (alpha) Energy = -4046.19238065972786
 One-Electron (beta)  Energy = -4046.19238065972786
 Total Coulomb        Energy = 2727.75629538558906
 ---------------------------------------
  Cycle       Energy         DIIS error
 ---------------------------------------
    1   -4928.5800966613      1.54e-01  
 Alpha HF Exchange    Energy = -18.99562521038653
 Beta HF Exchange     Energy = -18.99562521038653
 DFT Correlation      Energy =  -5.21232890820231
 DFT Exchange         Energy = -151.23380733526767
 One-Electron (alpha) Energy = -4057.73230271848706
 One-Electron (beta)  Energy = -4057.73230271848797
 Total Coulomb        Energy = 2759.40760668667963
    2   -4921.4302674125      9.46e-03  
 Alpha HF Exchange    Energy = -18.84807377602925
 Beta HF Exchange     Energy = -18.84807377602922
 DFT Correlation      Energy =  -5.16339386583018
 DFT Exchange         Energy = -150.03801064644307
 One-Electron (alpha) Energy = -4040.16664366103987
 One-Electron (beta)  Energy = -4040.16664366103578
 Total Coulomb        Energy = 2722.78157773708881
    3   -4921.3851436473      4.44e-03  
 Alpha HF Exchange    Energy = -18.97381296634753
 Beta HF Exchange     Energy = -18.97381296634752
 DFT Correlation      Energy =  -5.20619031599975
 DFT Exchange         Energy = -151.05329127131461
 One-Electron (alpha) Energy = -4055.31980406497405
 One-Electron (beta)  Energy = -4055.31980406497269
 Total Coulomb        Energy = 2754.32724848097951
    4   -4921.4553491669      3.52e-03  
 Alpha HF Exchange    Energy = -18.93132110683916
 Beta HF Exchange     Energy = -18.93132110683916
 DFT Correlation      Energy =  -5.18990558943359
 DFT Exchange         Energy = -150.70168868282406
 One-Electron (alpha) Energy = -4050.11778644466540
 One-Electron (beta)  Energy = -4050.11778644466631
 Total Coulomb        Energy = 2743.33969610388294
    5   -4921.5859952693      8.35e-04  
 Alpha HF Exchange    Energy = -18.92525687615599
 Beta HF Exchange     Energy = -18.92525687615596
 DFT Correlation      Energy =  -5.18945211491881
 DFT Exchange         Energy = -150.65771285962870
 One-Electron (alpha) Energy = -4049.61653723426662
 One-Electron (beta)  Energy = -4049.61653723426252
 Total Coulomb        Energy = 2742.27317019020802
    6   -4921.5934650031      1.61e-04  
 Alpha HF Exchange    Energy = -18.92443141556681
 Beta HF Exchange     Energy = -18.92443141556683
 DFT Correlation      Energy =  -5.18902474003359
 DFT Exchange         Energy = -150.65057828221472
 One-Electron (alpha) Energy = -4049.46849055311213
 One-Electron (beta)  Energy = -4049.46849055311304
 Total Coulomb        Energy = 2741.96759452876950
    7   -4921.5937344288      7.40e-05  
 Alpha HF Exchange    Energy = -18.92467474175752
 Beta HF Exchange     Energy = -18.92467474175754
 DFT Correlation      Energy =  -5.18900936601490
 DFT Exchange         Energy = -150.65231869376726
 One-Electron (alpha) Energy = -4049.49061623430043
 One-Electron (beta)  Energy = -4049.49061623430134
 Total Coulomb        Energy = 2742.01400285635373
    8   -4921.5937891535      1.20e-05  
 Alpha HF Exchange    Energy = -18.92478351346556
 Beta HF Exchange     Energy = -18.92478351346555
 DFT Correlation      Energy =  -5.18905992480530
 DFT Exchange         Energy = -150.65319769960561
 One-Electron (alpha) Energy = -4049.50876542357992
 One-Electron (beta)  Energy = -4049.50876542357810
 Total Coulomb        Energy = 2742.05144647034422
    9   -4921.5937910261      2.06e-06  
 Alpha HF Exchange    Energy = -18.92478259508225
 Beta HF Exchange     Energy = -18.92478259508223
 DFT Correlation      Energy =  -5.18906396847124
 DFT Exchange         Energy = -150.65319410110044
 One-Electron (alpha) Energy = -4049.50780481799848
 One-Electron (beta)  Energy = -4049.50780481799848
 Total Coulomb        Energy = 2742.04952381856265
   10   -4921.5937910751      7.51e-07  Convergence criterion met
 ---------------------------------------
 SCF time:   CPU 50.50s  wall 5.00s 
<S^2> =          0.000000000
 Alpha HF Exchange    Energy = -18.92478259508225
 Beta HF Exchange     Energy = -18.92478259508223
 DFT Correlation      Energy =  -5.18906396847124
 DFT Exchange         Energy = -150.65319410110044
 One-Electron (alpha) Energy = -4049.50780481799848
 One-Electron (beta)  Energy = -4049.50780481799848
 Total Coulomb        Energy = 2742.04952381856265
 Nuclear repulsion Energy = 629.06411800206388
 SCF   energy in the final basis set =    -4921.5937910751
 Total energy in the final basis set =    -4921.5937910751
 
 --------------------------------------------------------------
 
                    Orbital Energies (a.u.)
 --------------------------------------------------------------
 
 Alpha MOs
 -- Occupied --
*******-453.876 -58.112 -58.072 -52.169 -52.167 -52.166 -52.130
-52.128 -52.126 -10.243 -10.213 -10.186  -7.852  -7.805  -5.798
 -5.792  -5.785  -5.750  -5.746  -5.737  -2.135  -2.131  -2.124
 -2.120  -2.119  -2.084  -2.083  -2.076  -2.073  -2.071  -0.889
 -0.769  -0.678  -0.645  -0.580  -0.497  -0.467  -0.441  -0.395
 -0.375  -0.369  -0.360  -0.341  -0.318  -0.227  -0.211
 -- Virtual --
 -0.034   0.015   0.047   0.086   0.101   0.113   0.146   0.151
  0.163   0.168   0.184   0.205   0.226   0.244   0.286   0.300
  0.302   0.315   0.354   0.391   0.456   0.488   0.499   0.509
  0.533   0.547   0.588   0.613   0.633   0.649   0.670   0.678
  0.706   0.719   0.782   0.793   0.846   0.853   0.874   0.899
  0.915   0.924   0.947   0.973   1.033   1.039   1.116   1.255
  1.343   1.400   1.471   1.535   1.596   1.634   1.687   1.729
  1.754   1.812   1.863   1.954   2.020   2.049   2.060   2.074
  2.088   2.093   2.117   2.123   2.153   2.242   2.267   2.317
  2.359   2.443   2.496   2.535   2.579   2.612   2.628   2.692
  2.718   2.751   2.827   2.878   2.898   3.185   3.266   3.300
  3.397   3.458   3.524   4.146   4.258   4.297   4.309   4.349
  4.371   4.374   4.381   4.413   4.455   4.508   4.593   4.670
  5.467   5.494  89.801  89.896
 
 Beta MOs
 -- Occupied --
*******-453.876 -58.112 -58.072 -52.169 -52.167 -52.166 -52.130
-52.128 -52.126 -10.243 -10.213 -10.186  -7.852  -7.805  -5.798
 -5.792  -5.785  -5.750  -5.746  -5.737  -2.135  -2.131  -2.124
 -2.120  -2.119  -2.084  -2.083  -2.076  -2.073  -2.071  -0.889
 -0.769  -0.678  -0.645  -0.580  -0.497  -0.467  -0.441  -0.395
 -0.375  -0.369  -0.360  -0.341  -0.318  -0.227  -0.211
 -- Virtual --
 -0.034   0.015   0.047   0.086   0.101   0.113   0.146   0.151
  0.163   0.168   0.184   0.205   0.226   0.244   0.286   0.300
  0.302   0.315   0.354   0.391   0.456   0.488   0.499   0.509
  0.533   0.547   0.588   0.613   0.633   0.649   0.670   0.678
  0.706   0.719   0.782   0.793   0.846   0.853   0.874   0.899
  0.915   0.924   0.947   0.973   1.033   1.039   1.116   1.255
  1.343   1.400   1.471   1.535   1.596   1.634   1.687   1.729
  1.754   1.812   1.863   1.954   2.020   2.049   2.060   2.074
  2.088   2.093   2.117   2.123   2.153   2.242   2.267   2.317
  2.359   2.443   2.496   2.535   2.579   2.612   2.628   2.692
  2.718   2.751   2.827   2.878   2.898   3.185   3.266   3.300
  3.397   3.458   3.524   4.146   4.258   4.297   4.309   4.349
  4.371   4.374   4.381   4.413   4.455   4.508   4.593   4.670
  5.467   5.494  89.801  89.896
 --------------------------------------------------------------
 
          Ground-State Mulliken Net Atomic Charges

     Atom                 Charge (a.u.)    Spin (a.u.)
  --------------------------------------------------------
      1 C                    -0.137127      -0.000000
      2 H                     0.147161       0.000000
      3 C                    -0.212919       0.000000
      4 H                     0.121947      -0.000000
      5 H                     0.133066      -0.000000
      6 C                    -0.329693       0.000000
      7 H                     0.110932      -0.000000
      8 H                     0.146651       0.000000
      9 H                     0.105691      -0.000000
     10 Se                   -0.008034       0.000000
     11 H                     0.054978      -0.000000
     12 Se                   -0.188305      -0.000000
     13 H                     0.055653       0.000000
  --------------------------------------------------------
  Sum of atomic charges =     0.000000
  Sum of spin   charges =     0.000000

 -----------------------------------------------------------------
                    Cartesian Multipole Moments
 -----------------------------------------------------------------
    Charge (ESU x 10^10)
                 0.0000
    Dipole Moment (Debye)
         X      -1.1846      Y       1.5207      Z      -0.5595
       Tot       2.0072
    Quadrupole Moments (Debye-Ang)
        XX     -61.8060     XY       3.6427     YY     -55.9740
        XZ       0.5871     YZ      -0.4491     ZZ     -55.5142
    Octopole Moments (Debye-Ang^2)
       XXX     -52.7539    XXY     -18.2820    XYY     -15.9008
       YYY     -42.4940    XXZ      -6.4797    XYZ      -3.7777
       YYZ       1.1536    XZZ     -14.2035    YZZ     -16.9491
       ZZZ      -9.8592
    Hexadecapole Moments (Debye-Ang^3)
      XXXX    -741.7208   XXXY      -7.4342   XXYY    -221.8561
      XYYY     -12.8597   YYYY    -605.8507   XXXZ     -16.1006
      XXYZ       4.7530   XYYZ       2.9244   YYYZ       7.8972
      XXZZ    -142.6689   XYZZ      -6.6620   YYZZ    -118.6969
      XZZZ     -10.7339   YZZZ       5.6271   ZZZZ    -110.9892
 -----------------------------------------------------------------
 Calculating analytic gradient of the SCF energy
 Gradient of SCF Energy
            1           2           3           4           5           6
    1  -0.3946071   0.0000370  -0.0000998   0.0000404   0.0001452   0.0000270
    2  -0.1285190   0.0000785  -0.0000209   0.0000590  -0.0000567   0.0000482
    3   0.0991178  -0.0000671  -0.0000844   0.0000934  -0.0000074   0.0000050
            7           8           9          10          11          12
    1  -0.0000205   0.0000195   0.0000108   0.3944509  -0.0000251   0.0000101
    2  -0.0000075   0.0000174  -0.0000895   0.1285551   0.0000122  -0.0001031
    3  -0.0000755  -0.0000192  -0.0000552  -0.0990008   0.0000687  -0.0000094
           13
    1   0.0000117
    2   0.0000263
    3   0.0000342
 Max gradient component =       3.946E-01
 RMS gradient           =       9.661E-02
 Gradient time:  CPU 20.62 s  wall 1.74 s
 Geometry Optimization Parameters
   NAtoms,    NIC,     NZ,  NCons,   NDum,   NFix, NCnnct, MaxDiis
       13      82       0       1       0       0       0       0

 Cartesian Hessian Update
 Hessian Updated using BFGS Update


** CONSTRAINED OPTIMIZATION IN DELOCALIZED INTERNAL COORDINATES **
   Searching for a Minimum

   Optimization Cycle:  28

                       Coordinates (Angstroms)
     ATOM                X               Y               Z
      1  C        -0.0864431579    0.5018100390   -0.3070212965
      2  H         0.1835507557    0.6061147179   -1.3605665772
      3  C         0.3064547992    1.8594147964    0.3685121435
      4  H        -0.5239327904    2.5608466072    0.2076593748
      5  H         0.3872603181    1.7087344103    1.4504869158
      6  C         1.5888205921    2.4862645874   -0.1771321742
      7  H         1.7547301792    3.4610714257    0.2913644057
      8  H         2.4583634411    1.8572296372    0.0268594858
      9  H         1.5209971953    2.6453441676   -1.2591818620
     10  Se       -1.4737206714    0.0499011233    0.0411739520
     11  H        -1.6997258834   -1.0551920217   -0.9216586347
     12  Se        1.5547494364   -0.8791613927    0.1493937756
     13  H         0.8610957860   -1.3534780975    1.3636104914
   Point Group: c1    Number of degrees of freedom:    33


   Energy is  -4921.593791075

              Constraints and their Current Values
                                        Value     Constraint
   Distance(Angs):        1  10             1.500000     1.500000
 Hessian Updated using BFGS Update

 32 Hessian modes will be used to form the next step
  Hessian Eigenvalues:
     0.006863    0.012262    0.020697    0.044542    0.100623    0.110513
     0.156476    0.182995    0.192570    0.202591    0.208616    0.221346
     0.248327    0.299439    0.313212    0.343553    0.356301    0.375331
     0.380332    0.381244    0.394012    0.443787    0.473247    0.515611
     0.632024    0.699725    0.806583    0.828786    0.829143    0.829818
     0.829970    0.830527

 Minimum Search - Taking Simple RFO Step
 Searching for Lamda that Minimizes Along All modes
 Value Taken    Lamda =  -0.00000132
 Step Taken.  Stepsize is  0.010152

                             Maximum     Tolerance    Cnvgd?
         Gradient           0.000129      0.000300     YES
         Displacement       0.007528      0.001200      NO
         Energy change     -0.000000      0.000001     YES


                       Distance Matrix (Angstroms)
             C (  1)   H (  2)   C (  3)   H (  4)   H (  5)   C (  6)
   H (  2)  1.092581
   C (  3)  1.566463  2.139060
   H (  4)  2.167008  2.604005  1.098828
   H (  5)  2.184009  3.026432  1.095401  1.760962
   C (  6)  2.600277  2.628738  1.528113  2.148803  2.167359
   H (  7)  3.536271  3.653527  2.160731  2.451472  2.506835  1.094195
   H (  8)  2.902530  2.943639  2.178863  3.069504  2.517585  1.092430
   H (  9)  2.843451  2.440799  2.177656  2.518035  3.083002  1.095782
   Se( 10)  1.500000  2.240714  2.559397  2.689733  2.863763  3.919526
   H ( 11)  2.324804  2.549375  3.766196  3.966558  4.197842  4.889864
   Se( 12)  2.192923  2.523135  3.017624  4.019698  3.122992  3.381401
   H ( 13)  2.670381  3.423480  3.408890  4.310042  3.099873  4.200845
             H (  7)   H (  8)   H (  9)   Se( 10)   H ( 11)   Se( 12)
   H (  8)  1.771263
   H (  9)  1.767551  1.775861
   Se( 10)  4.703358  4.327577  4.170801
   H ( 11)  5.813891  5.164455  4.917413  1.483023
   Se( 12)  4.347156  2.884332  3.795703  3.169621  3.430707
   H ( 13)  5.012802  3.827115  4.827534  3.028148  3.445176  1.476636

 
 Final energy is   -4921.59379107511     


 ******************************
 **  OPTIMIZATION CONVERGED  **
 ******************************

                       Coordinates (Angstroms)
     ATOM                X               Y               Z
      1  C        -0.0864431579    0.5018100390   -0.3070212965
      2  H         0.1835507557    0.6061147179   -1.3605665772
      3  C         0.3064547992    1.8594147964    0.3685121435
      4  H        -0.5239327904    2.5608466072    0.2076593748
      5  H         0.3872603181    1.7087344103    1.4504869158
      6  C         1.5888205921    2.4862645874   -0.1771321742
      7  H         1.7547301792    3.4610714257    0.2913644057
      8  H         2.4583634411    1.8572296372    0.0268594858
      9  H         1.5209971953    2.6453441676   -1.2591818620
     10  Se       -1.4737206714    0.0499011233    0.0411739520
     11  H        -1.6997258834   -1.0551920217   -0.9216586347
     12  Se        1.5547494364   -0.8791613927    0.1493937756
     13  H         0.8610957860   -1.3534780975    1.3636104914

Z-matrix Print:
$molecule
0 1
Se
H  1 1.483023
C  1 1.500000 2 102.399832
H  3 1.092581 1 118.760093 2 43.548544 0
C  3 1.566463 1 113.139306 2 168.360017 0
H  5 1.095401 3 108.980582 1 67.674597 0
H  5 1.098828 3 107.491318 1 -47.658269 0
C  5 1.528113 3 114.331439 1 -168.373274 0
H  8 1.092430 5 111.412732 3 -64.193436 0
H  8 1.094195 5 109.865332 3 175.911261 0
H  8 1.095782 5 111.112904 3 56.918773 0
Se 3 2.192923 1 117.008708 2 -68.593212 0
H  12 1.476636 3 91.252576 1 -34.731059 0
$end

PES scan, value:    1.5000 energy: -4921.5937910751
------- Summary of potential scan: ------ 
    1.5000     -4921.5937910751
----------------------------------------- 
Archival summary:
1\1\hpc0248\JobtypUnspecified\ProcedureUnspecified\6-31G**\e238\knomura\WedMar1319:40:032019WedMar1319:40:032019\0\\#,JobtypUnspecified,ProcedureUnspecified,6-31G**,\\0,1\Se\H,1,1.48302\C,1,1.5,2,102.4\H,3,1.09258,1,118.76,2,43.5485,0\C,3,1.56646,1,113.139,2,168.36,0\H,5,1.0954,3,108.981,1,67.6746,0\H,5,1.09883,3,107.491,1,-47.6583,0\C,5,1.52811,3,114.331,1,-168.373,0\H,8,1.09243,5,111.413,3,-64.1934,0\H,8,1.0942,5,109.865,3,175.911,0\H,8,1.09578,5,111.113,3,56.9188,0\Se,3,2.19292,1,117.009,2,-68.5932,0\H,12,1.47664,3,91.2526,1,-34.7311,0\\\@

 Total job time:  180.97s(wall), 2139.12s(cpu) 
 Wed Mar 13 19:40:03 2019

        *************************************************************
        *                                                           *
        *  Thank you very much for using Q-Chem.  Have a nice day.  *
        *                                                           *
        *************************************************************


