
Running Job 1 of 1 selenium/02/C-Se.xyz.data/inputs/bond_singlet_1.4.in
qchem selenium/02/C-Se.xyz.data/inputs/bond_singlet_1.4.in_26850.0 /staging/scratch/2868765/qchem26850/ 1
/usr/usc/qchem/5.1.1/exe/qcprog.exe_s selenium/02/C-Se.xyz.data/inputs/bond_singlet_1.4.in_26850.0 /staging/scratch/2868765/qchem26850/
Check license passed

                  Welcome to Q-Chem
     A Quantum Leap Into The Future Of Chemistry


 Q-Chem 5.1, Q-Chem, Inc., Pleasanton, CA (2018)

 Yihan Shao,  Zhengting Gan,  E. Epifanovsky,  A. T. B. Gilbert,  M. Wormit,  
 J. Kussmann,  A. W. Lange,  A. Behn,  Jia Deng,  Xintian Feng,  D. Ghosh,  
 M. Goldey,  P. R. Horn,  L. D. Jacobson,  I. Kaliman,  T. Kus,  A. Landau,  
 Jie Liu,  E. I. Proynov,  R. M. Richard,  R. P. Steele,  E. J. Sundstrom,  
 H. L. Woodcock III,  P. M. Zimmerman,  D. Zuev,  B. Albrecht,  E. Alguire,  
 S. A. Baeppler,  D. Barton,  Z. Benda,  Y. A. Bernard,  E. J. Berquist,  
 K. B. Bravaya,  H. Burton,  D. Casanova,  Chun-Min Chang,  Yunqing Chen,  
 A. Chien,  K. D. Closser,  M. P. Coons,  S. Coriani,  S. Dasgupta,  
 A. L. Dempwolff,  M. Diedenhofen,  Hainam Do,  R. G. Edgar,  Po-Tung Fang,  
 S. Faraji,  S. Fatehi,  Qingguo Feng,  K. D. Fenk,  J. Fosso-Tande,  
 Qinghui Ge,  A. Ghysels,  G. Gidofalvi,  J. Gomes,  J. Gonthier,  A. Gunina,  
 D. Hait,  M. W. D. Hanson-Heine,  P. H. P. Harbach,  A. W. Hauser,  
 J. E. Herr,  E. G. Hohenstein,  Z. C. Holden,  Kerwin Hui,  B. C. Huynh,  
 T.-C. Jagau,  Hyunjun Ji,  B. Kaduk,  K. Khistyaev,  Jaehoon Kim,  
 P. Klunzinger,  K. Koh,  D. Kosenkov,  L. Koulias,  T. Kowalczyk,  
 C. M. Krauter,  A. Kunitsa,  Ka Un Lao,  A. Laurent,  K. V. Lawler,  
 Joonho Lee,  D. Lefrancois,  S. Lehtola,  D. S. Levine,  Yi-Pei Li,  
 You-Sheng Lin,  Fenglai Liu,  E. Livshits,  A. Luenser,  P. Manohar,  
 E. Mansoor,  S. F. Manzer,  Shan-Ping Mao,  Yuezhi Mao,  N. Mardirossian,  
 A. V. Marenich,  T. Markovich,  L. A. Martinez-Martinez,  S. A. Maurer,  
 N. J. Mayhall,  S. C. McKenzie,  J.-M. Mewes,  A. F. Morrison,  
 J. W. Mullinax,  K. Nanda,  T. S. Nguyen-Beck,  R. Olivares-Amaya,  
 J. A. Parkhill,  T. M. Perrine,  F. Plasser,  P. Pokhilko,  S. Prager,  
 A. Prociuk,  E. Ramos,  D. R. Rehn,  F. Rob,  M. Schneider,  N. Sergueev,  
 S. M. Sharada,  S. Sharma,  D. W. Small,  T. Stauch,  T. Stein,  
 Yu-Chuan Su,  A. J. W. Thom,  A. Tkatchenko,  T. Tsuchimochi,  N. M. Tubman,  
 L. Vogt,  M. L. Vidal,  O. Vydrov,  M. A. Watson,  J. Wenzel,  
 M. de Wergifosse,  T. A. Wesolowski,  A. White,  J. Witte,  A. Yamada,  
 Jun Yang,  K. Yao,  S. Yeganeh,  S. R. Yost,  Zhi-Qiang You,  A. Zech,  
 Igor Ying Zhang,  Xing Zhang,  Yan Zhao,  Ying Zhu,  B. R. Brooks,  
 G. K. L. Chan,  C. J. Cramer,  M. S. Gordon,  W. J. Hehre,  A. Klamt,  
 M. W. Schmidt,  C. D. Sherrill,  D. G. Truhlar,  A. Aspuru-Guzik,  R. Baer,  
 A. T. Bell,  N. A. Besley,  Jeng-Da Chai,  A. E. DePrince, III,  
 R. A. DiStasio Jr.,  A. Dreuw,  B. D. Dunietz,  T. R. Furlani,  
 Chao-Ping Hsu,  Yousung Jung,  Jing Kong,  D. S. Lambrecht,  WanZhen Liang,  
 C. Ochsenfeld,  V. A. Rassolov,  L. V. Slipchenko,  J. E. Subotnik,  
 T. Van Voorhis,  J. M. Herbert,  A. I. Krylov,  P. M. W. Gill,  M. Head-Gordon

 Contributors to earlier versions of Q-Chem not listed above: 
 R. D. Adamson,  B. Austin,  J. Baker,  G. J. O. Beran,  K. Brandhorst,  
 S. T. Brown,  E. F. C. Byrd,  A. K. Chakraborty,  C.-L. Cheng,  
 Siu Hung Chien,  D. M. Chipman,  D. L. Crittenden,  H. Dachsel,  
 R. J. Doerksen,  A. D. Dutoi,  L. Fusti-Molnar,  W. A. Goddard III,  
 A. Golubeva-Zadorozhnaya,  S. R. Gwaltney,  G. Hawkins,  A. Heyden,  
 S. Hirata,  G. Kedziora,  F. J. Keil,  C. Kelley,  Jihan Kim,  R. A. King,  
 R. Z. Khaliullin,  P. P. Korambath,  W. Kurlancheek,  A. M. Lee,  M. S. Lee,  
 S. V. Levchenko,  Ching Yeh Lin,  D. Liotard,  R. C. Lochan,  I. Lotan,  
 P. E. Maslen,  N. Nair,  D. P. O'Neill,  D. Neuhauser,  E. Neuscamman,  
 C. M. Oana,  R. Olson,  B. Peters,  R. Peverati,  P. A. Pieniazek,  
 Y. M. Rhee,  J. Ritchie,  M. A. Rohrdanz,  E. Rosta,  N. J. Russ,  
 H. F. Schaefer III,  N. E. Schultz,  N. Shenvi,  A. C. Simmonett,  A. Sodt,  
 D. Stuck,  K. S. Thanthiriwatte,  V. Vanovschi,  Tao Wang,  A. Warshel,  
 C. F. Williams,  Q. Wu,  X. Xu,  W. Zhang

 Please cite Q-Chem as follows:
 Y. Shao et al., Mol. Phys. 113, 184-215 (2015)
 DOI: 10.1080/00268976.2014.952696

 Q-Chem 5.1.1 for Intel X86 EM64T Linux

 Parts of Q-Chem use Armadillo 8.300.2 (Tropical Shenanigans).
 http://arma.sourceforge.net/

 Q-Chem begins on Wed Mar 13 19:40:05 2019  

Host: 
0

     Scratch files written to /staging/scratch/2868765/qchem26850//
 Aug318 |scratch|qcdevops|jenkins|workspace|build_RNUM 6013   
Processing $rem in /usr/usc/qchem/5.1.1/config/preferences.
 MEM_TOTAL  2000 
Input Ideriv = 2
Curr. Ideriv = -1
Max.  Ideriv = 2

Checking the input file for inconsistencies... 	...done.

--------------------------------------------------------------
User input:
--------------------------------------------------------------

$comment
potential surface scanner
$end

$rem
JOBTYPE  PES_SCAN
UNRESTRICTED TRUE
SYM_IGNORE  TRUE
GEOM_OPT_MAX_CYCLES 400
SCF_MAX_CYCLES 400
METHOD   B3LYP
BASIS   6-31G**
PDB_PRINT 2
SCF_CONVERGENCE 6
THRESH 14
SCF_PRINT 1
$end
$molecule
0 1
C 0.034100 0.572900 -0.443500
H 0.076700 0.782000 -1.512400
C 0.317600 1.856700 0.339100
H -0.478400 2.578000 0.154400
H 0.362900 1.630300 1.404300
C 1.654900 2.445600 -0.114500
H 1.856900 3.360200 0.443000
H 2.450900 1.724300 0.070100
H 1.609600 2.672000 -1.179800
Se -1.749100 -0.095100 0.021000
H -1.828300 -1.374900 -0.867600
Se 1.377500 -0.779800 0.011600
H 1.146900 -0.923300 1.547800
$end
$scan
stre 1 10 1.400000 1.401000 0.100000
$end
--------------------------------------------------------------
 ----------------------------------------------------------------
             Standard Nuclear Orientation (Angstroms)
    I     Atom           X                Y                Z
 ----------------------------------------------------------------
    1      C       0.0341000000     0.5729000000    -0.4435000000
    2      H       0.0767000000     0.7820000000    -1.5124000000
    3      C       0.3176000000     1.8567000000     0.3391000000
    4      H      -0.4784000000     2.5780000000     0.1544000000
    5      H       0.3629000000     1.6303000000     1.4043000000
    6      C       1.6549000000     2.4456000000    -0.1145000000
    7      H       1.8569000000     3.3602000000     0.4430000000
    8      H       2.4509000000     1.7243000000     0.0701000000
    9      H       1.6096000000     2.6720000000    -1.1798000000
   10      Se     -1.7491000000    -0.0951000000     0.0210000000
   11      H      -1.8283000000    -1.3749000000    -0.8676000000
   12      Se      1.3775000000    -0.7798000000     0.0116000000
   13      H       1.1469000000    -0.9233000000     1.5478000000
 ----------------------------------------------------------------
 Nuclear Repulsion Energy =   610.2149414962 hartrees
 There are       47 alpha and       47 beta electrons
 Requested basis set is 6-31G(d,p)
 There are 52 shells and 155 basis functions

 Total QAlloc Memory Limit   2000 MB
 Mega-Array Size       188 MB
 MEM_STATIC part       192 MB
A total of 1 constraints
  
            1
    1   1.0100000
    2   1.0100000
    3  10.0100000
    4   1.4000000
    5   1.4010000
    6   0.1000000
    7   0.0000000
    8   0.0000000
    9   0.0000000
   10   0.0000000

                       Distance Matrix (Angstroms)
             C (  1)   H (  2)   C (  3)   H (  4)   H (  5)   C (  6)
   H (  2)  1.089993
   C (  3)  1.530025  2.154313
   H (  4)  2.154197  2.512364  1.089956
   H (  5)  2.154198  3.051010  1.089936  1.779936
   C (  6)  2.498447  2.685592  1.530009  2.154253  2.154236
   H (  7)  3.446378  3.693212  2.154240  2.479668  2.479655  1.090002
   H (  8)  2.725881  3.004840  2.154265  3.052328  2.479651  1.089939
   H (  9)  2.725905  2.456116  2.154306  2.479651  3.052372  1.090034
   Se( 10)  1.960048  2.540505  2.860413  2.962758  3.057952  4.249792
   H ( 11)  2.728061  2.949069  4.062542  4.300248  4.358224  5.224563
   Se( 12)  1.960009  2.540448  2.860380  3.839216  2.962703  3.239762
   H ( 13)  2.728042  3.663086  3.142784  4.103933  2.675093  3.790883
             H (  7)   H (  8)   H (  9)   Se( 10)   H ( 11)   Se( 12)
   H (  8)  1.779904
   H (  9)  1.779960  1.779936
   Se( 10)  5.012027  4.577404  4.514380
   H ( 11)  6.141624  5.366179  5.319213  1.560055
   Se( 12)  4.189932  2.725092  3.658993  3.200708  3.377024
   H ( 13)  4.480296  3.300576  4.536527  3.376959  3.858745  1.560025

 
 A cutoff of  1.0D-14 yielded   1254 shell pairs
 There are     11192 function pairs
 
 -------------------------------------------------------
 OpenMP Integral Computing Module                       
 Release: version 1.0, May 2013, Q-Chem Inc. Pittsburgh 
 -------------------------------------------------------
 Integral Job Info:
 Integral job number is                      11
 Integral operator is                         1
 short-range coefficients                     0
 long-range coefficients              100000000
 Omega coefficients                           0
 if combine SR and LR in K                    0
 Integral screening is                        0
 Integral computing path is                   2
 max size of driver memory is            800000
 size of driver memory is                593474
 size of scratch memory is             15267112
 max col of scratch BK array               1296
 max len of scratch array in speh3          155
 max len of scratch index in speh4           18
 max int batch size is                      520
 min int batch size is                       52
 fixed nKL is                                52
 max L of basis functions is                  2
 order of int derivative is                   0
 number of shells is                         52
 number of basis is                         155
 number of cartesian basis is               155
 number of contracted shell pairs          1254
 number of primitive shell pairs           5102
 maxK2 (contraction) of shell pair           36
 max number of K2 of shell pair               1
 max number of CS2 of shell pair             82
 max number of PS2 of shell pair            486
 mem total for path MDJ                  537180
 -------------------------------------------------------
 Smallest overlap matrix eigenvalue = 6.73E-04

 Scale SEOQF with 1.000000e-01/1.000000e-01/1.000000e-01

 Standard Electronic Orientation quadrupole field applied
 Nucleus-field energy     =     0.0000000142 hartrees
 Guess from superposition of atomic densities
 Warning:  Energy on first SCF cycle will be non-variational
 SAD guess density has 93.936381 electrons

 -----------------------------------------------------------------------
  General SCF calculation program by
  Eric Jon Sundstrom, Paul Horn, Yuezhi Mao, Dmitri Zuev, Alec White,
  David Stuck, Shaama M.S., Shane Yost, Joonho Lee, David Small,
  Daniel Levine, Susi Lehtola, Hugh Burton, Evgeny Epifanovsky
 -----------------------------------------------------------------------
 Exchange:     0.2000 Hartree-Fock + 0.0800 Slater + 0.7200 B88
 Correlation:  0.1900 VWN1RPA + 0.8100 LYP
 Using SG-1 standard quadrature grid
 using 12 threads for integral computing
 -------------------------------------------------------
 OpenMP Integral computing Module                
 Release: version 1.0, May 2013, Q-Chem Inc. Pittsburgh 
 -------------------------------------------------------
 -------------------------------------------------------
 OpenMP BLAS3 based DFT computing Module                
 Release: version 1.0, May 2013, Q-Chem Inc. Pittsburgh 
 -------------------------------------------------------
 A unrestricted SCF calculation will be
 performed using DIIS
 SCF converges when DIIS error is below 1.0e-06
 Alpha HF Exchange    Energy = -18.88088981603169
 Beta HF Exchange     Energy = -18.88088981603169
 DFT Correlation      Energy =  -5.14675623099071
 DFT Exchange         Energy = -149.91783501154578
 One-Electron (alpha) Energy = -4027.77226392166403
 One-Electron (beta)  Energy = -4027.77226392166403
 Total Coulomb        Energy = 2710.12536221476739
 ---------------------------------------
  Cycle       Energy         DIIS error
 ---------------------------------------
    1   -4928.0305949928      1.51e-01  
 Alpha HF Exchange    Energy = -18.97631791032204
 Beta HF Exchange     Energy = -18.97631791032202
 DFT Correlation      Energy =  -5.20098027640877
 DFT Exchange         Energy = -151.07399137078232
 One-Electron (alpha) Energy = -4038.62911529100256
 One-Electron (beta)  Energy = -4038.62911529100074
 Total Coulomb        Energy = 2739.69811555823162
    2   -4921.5727809812      9.36e-03  
 Alpha HF Exchange    Energy = -18.83771322383400
 Beta HF Exchange     Energy = -18.83771322383398
 DFT Correlation      Energy =  -5.15602290845031
 DFT Exchange         Energy = -149.96023387035285
 One-Electron (alpha) Energy = -4022.55343867430838
 One-Electron (beta)  Energy = -4022.55343867430611
 Total Coulomb        Energy = 2706.12093351881231
    3   -4921.5626855459      3.92e-03  
 Alpha HF Exchange    Energy = -18.95737727360579
 Beta HF Exchange     Energy = -18.95737727360580
 DFT Correlation      Energy =  -5.19510633503697
 DFT Exchange         Energy = -150.91481652243999
 One-Electron (alpha) Energy = -4036.28042149739849
 One-Electron (beta)  Energy = -4036.28042149739986
 Total Coulomb        Energy = 2734.75194401732278
    4   -4921.6186348718      3.03e-03  
 Alpha HF Exchange    Energy = -18.91272033010713
 Beta HF Exchange     Energy = -18.91272033010713
 DFT Correlation      Energy =  -5.17924607506018
 DFT Exchange         Energy = -150.55372884452726
 One-Electron (alpha) Energy = -4031.37034473199947
 One-Electron (beta)  Energy = -4031.37034473199992
 Total Coulomb        Energy = 2724.37553457120293
    5   -4921.7086289622      7.96e-04  
 Alpha HF Exchange    Energy = -18.90956306901652
 Beta HF Exchange     Energy = -18.90956306901651
 DFT Correlation      Energy =  -5.17954333311258
 DFT Exchange         Energy = -150.53238894285323
 One-Electron (alpha) Energy = -4031.04287574755381
 One-Electron (beta)  Energy = -4031.04287574755108
 Total Coulomb        Energy = 2723.68565718711898
    6   -4921.7162112116      9.08e-05  
 Alpha HF Exchange    Energy = -18.90863755120243
 Beta HF Exchange     Energy = -18.90863755120242
 DFT Correlation      Energy =  -5.17907677905223
 DFT Exchange         Energy = -150.52456697312124
 One-Electron (alpha) Energy = -4030.87775429454359
 One-Electron (beta)  Energy = -4030.87775429454177
 Total Coulomb        Energy = 2723.34517647612438
    7   -4921.7163094572      3.02e-05  
 Alpha HF Exchange    Energy = -18.90885283871464
 Beta HF Exchange     Energy = -18.90885283871463
 DFT Correlation      Energy =  -5.17910067692377
 DFT Exchange         Energy = -150.52619483042889
 One-Electron (alpha) Energy = -4030.92124572443527
 One-Electron (beta)  Energy = -4030.92124572443299
 Total Coulomb        Energy = 2723.43423121583055
    8   -4921.7163199074      1.02e-05  
 Alpha HF Exchange    Energy = -18.90886838031052
 Beta HF Exchange     Energy = -18.90886838031051
 DFT Correlation      Energy =  -5.17912556307716
 DFT Exchange         Energy = -150.52634504096790
 One-Electron (alpha) Energy = -4030.92167488121777
 One-Electron (beta)  Energy = -4030.92167488121731
 Total Coulomb        Energy = 2723.43529454476402
    9   -4921.7163210720      6.91e-07  Convergence criterion met
 ---------------------------------------
 SCF time:   CPU 45.94s  wall 3.00s 
<S^2> =         -0.000000000
 Alpha HF Exchange    Energy = -18.90886838031052
 Beta HF Exchange     Energy = -18.90886838031051
 DFT Correlation      Energy =  -5.17912556307716
 DFT Exchange         Energy = -150.52634504096790
 One-Electron (alpha) Energy = -4030.92167488121777
 One-Electron (beta)  Energy = -4030.92167488121731
 Total Coulomb        Energy = 2723.43529454476402
 Nuclear repulsion Energy = 610.21494151037882
 SCF   energy in the final basis set =    -4921.7163210720
 Total energy in the final basis set =    -4921.7163210720
 
 --------------------------------------------------------------
 
                    Orbital Energies (a.u.)
 --------------------------------------------------------------
 
 Alpha MOs
 -- Occupied --
*******-453.900 -58.096 -58.096 -52.153 -52.153 -52.152 -52.152
-52.149 -52.149 -10.257 -10.204 -10.181  -7.829  -7.829  -5.775
 -5.775  -5.770  -5.770  -5.761  -5.761  -2.108  -2.108  -2.108
 -2.108  -2.100  -2.100  -2.096  -2.096  -2.095  -2.095  -0.828
 -0.739  -0.688  -0.642  -0.584  -0.475  -0.441  -0.438  -0.396
 -0.374  -0.362  -0.352  -0.341  -0.305  -0.243  -0.214
 -- Virtual --
 -0.017   0.013   0.020   0.033   0.094   0.119   0.149   0.154
  0.169   0.174   0.194   0.218   0.224   0.258   0.273   0.288
  0.302   0.319   0.327   0.359   0.446   0.460   0.474   0.509
  0.514   0.560   0.588   0.617   0.624   0.631   0.663   0.680
  0.693   0.760   0.775   0.809   0.843   0.860   0.860   0.888
  0.917   0.928   0.935   0.953   0.996   1.007   1.050   1.118
  1.330   1.410   1.463   1.549   1.569   1.626   1.658   1.712
  1.786   1.830   1.882   1.970   2.035   2.048   2.058   2.061
  2.071   2.079   2.093   2.109   2.123   2.164   2.267   2.308
  2.370   2.436   2.478   2.525   2.539   2.562   2.588   2.678
  2.721   2.743   2.829   2.898   2.916   3.209   3.281   3.312
  3.408   3.472   3.538   4.192   4.267   4.275   4.323   4.346
  4.352   4.366   4.390   4.414   4.430   4.527   4.548   4.645
  5.463   5.479  89.757  89.815
 
 Beta MOs
 -- Occupied --
*******-453.900 -58.096 -58.096 -52.153 -52.153 -52.152 -52.152
-52.149 -52.149 -10.257 -10.204 -10.181  -7.829  -7.829  -5.775
 -5.775  -5.770  -5.770  -5.761  -5.761  -2.108  -2.108  -2.108
 -2.108  -2.100  -2.100  -2.096  -2.096  -2.095  -2.095  -0.828
 -0.739  -0.688  -0.642  -0.584  -0.475  -0.441  -0.438  -0.396
 -0.374  -0.362  -0.352  -0.341  -0.305  -0.243  -0.214
 -- Virtual --
 -0.017   0.013   0.020   0.033   0.094   0.119   0.149   0.154
  0.169   0.174   0.194   0.218   0.224   0.258   0.273   0.288
  0.302   0.319   0.327   0.359   0.446   0.460   0.474   0.509
  0.514   0.560   0.588   0.617   0.624   0.631   0.663   0.680
  0.693   0.760   0.775   0.809   0.843   0.860   0.860   0.888
  0.917   0.928   0.935   0.953   0.996   1.007   1.050   1.118
  1.330   1.410   1.463   1.549   1.569   1.626   1.658   1.712
  1.786   1.830   1.882   1.970   2.035   2.048   2.058   2.061
  2.071   2.079   2.093   2.109   2.123   2.164   2.267   2.308
  2.370   2.436   2.478   2.525   2.539   2.562   2.588   2.678
  2.721   2.743   2.829   2.898   2.916   3.209   3.281   3.312
  3.408   3.472   3.538   4.192   4.267   4.275   4.323   4.346
  4.352   4.366   4.390   4.414   4.430   4.527   4.548   4.645
  5.463   5.479  89.757  89.815
 --------------------------------------------------------------
 
          Ground-State Mulliken Net Atomic Charges

     Atom                 Charge (a.u.)    Spin (a.u.)
  --------------------------------------------------------
      1 C                    -0.220328      -0.000000
      2 H                     0.159612       0.000000
      3 C                    -0.193281       0.000000
      4 H                     0.121386       0.000000
      5 H                     0.119824      -0.000000
      6 C                    -0.327363      -0.000000
      7 H                     0.108411      -0.000000
      8 H                     0.146157      -0.000000
      9 H                     0.104844       0.000000
     10 Se                   -0.070353      -0.000000
     11 H                     0.057498       0.000000
     12 Se                   -0.066420      -0.000000
     13 H                     0.060012       0.000000
  --------------------------------------------------------
  Sum of atomic charges =    -0.000000
  Sum of spin   charges =    -0.000000

 -----------------------------------------------------------------
                    Cartesian Multipole Moments
 -----------------------------------------------------------------
    Charge (ESU x 10^10)
                -0.0000
    Dipole Moment (Debye)
         X       0.4245      Y       1.0314      Z      -0.1580
       Tot       1.1265
    Quadrupole Moments (Debye-Ang)
        XX     -62.2292     XY       2.1919     YY     -56.1097
        XZ       1.3970     YZ       0.1145     ZZ     -55.0847
    Octopole Moments (Debye-Ang^2)
       XXX     -23.8544    XXY     -23.2589    XYY      -8.6946
       YYY     -43.5653    XXZ       2.6429    XYZ      -4.2942
       YYZ       1.7599    XZZ      -2.9403    YZZ     -16.6180
       ZZZ       0.3869
    Hexadecapole Moments (Debye-Ang^3)
      XXXX    -804.8391   XXXY     -46.2211   XXYY    -222.2935
      XYYY     -53.6060   YYYY    -582.5032   XXXZ      -6.3927
      XXYZ       4.1424   XYYZ       5.3532   YYYZ       3.2617
      XXZZ    -151.1909   XYZZ     -19.8092   YYZZ    -113.9473
      XZZZ      -2.4041   YZZZ      -2.7634   ZZZZ    -111.3483
 -----------------------------------------------------------------
 Calculating analytic gradient of the SCF energy
 Gradient of SCF Energy
            1           2           3           4           5           6
    1   0.0031738  -0.0044481  -0.0045263   0.0043888   0.0037936   0.0048157
    2   0.0025744   0.0063499   0.0006914  -0.0026889  -0.0013767  -0.0027679
    3  -0.0145295   0.0017621   0.0069615  -0.0016440  -0.0037336  -0.0053018
            7           8           9          10          11          12
    1  -0.0026847  -0.0029830  -0.0033400   0.0219872  -0.0076247  -0.0154924
    2  -0.0032246  -0.0025889  -0.0026569   0.0166527  -0.0236207   0.0205377
    3   0.0008600   0.0012628   0.0029615   0.0116447  -0.0146884  -0.0132841
           13
    1   0.0029403
    2  -0.0078816
    3   0.0277287
 Max gradient component =       2.773E-02
 RMS gradient           =       1.006E-02
 Gradient time:  CPU 20.17 s  wall 1.71 s
 Geometry Optimization Parameters
   NAtoms,    NIC,     NZ,  NCons,   NDum,   NFix, NCnnct, MaxDiis
       13      82       0       1       0       0       0       0


** CONSTRAINED OPTIMIZATION IN DELOCALIZED INTERNAL COORDINATES **
   Searching for a Minimum

   Optimization Cycle:   1

                       Coordinates (Angstroms)
     ATOM                X               Y               Z
      1  C         0.0341000000    0.5729000000   -0.4435000000
      2  H         0.0767000000    0.7820000000   -1.5124000000
      3  C         0.3176000000    1.8567000000    0.3391000000
      4  H        -0.4784000000    2.5780000000    0.1544000000
      5  H         0.3629000000    1.6303000000    1.4043000000
      6  C         1.6549000000    2.4456000000   -0.1145000000
      7  H         1.8569000000    3.3602000000    0.4430000000
      8  H         2.4509000000    1.7243000000    0.0701000000
      9  H         1.6096000000    2.6720000000   -1.1798000000
     10  Se       -1.7491000000   -0.0951000000    0.0210000000
     11  H        -1.8283000000   -1.3749000000   -0.8676000000
     12  Se        1.3775000000   -0.7798000000    0.0116000000
     13  H         1.1469000000   -0.9233000000    1.5478000000
   Point Group: c1    Number of degrees of freedom:    33


   Energy is  -4921.716321072

              Constraints and their Current Values
                                        Value     Constraint
   Distance(Angs):        1  10             1.960048     1.400000

 Attempting to Generate Delocalized Internal Coordinates
**WARNING** Constraint Gradient Reduced for constraint   1

   Using Lagrange Multiplier Algorithm


 34 Hessian modes will be used to form the next step
  Hessian Eigenvalues:
    -0.920016    0.045000    0.045000    0.045000    0.045000    0.071290
     0.079478    0.083853    0.084996    0.085000    0.089581    0.099112
     0.108032    0.128632    0.144756    0.144767    0.160000    0.160000
     0.160000    0.160000    0.160000    0.166938    0.193769    0.208843
     0.219836    0.294211    0.294226    0.348088    0.348125    0.348134
     0.348177    0.348197    0.348201    1.086938

 Minimum Search - Taking P-RFO Step
 Searching for Lamda that Maximizes Along the Constraint modes Only
 Value Taken    Lamda =   0.05364252


 ********************************************
 ** ERROR IN DETERMINING Lamda IN CONFormD **
 ********************************************


 ** Scaling Hessian by  2.384112 **


 34 Hessian modes will be used to form the next step
  Hessian Eigenvalues:
    -0.820624    0.107285    0.107285    0.107285    0.107285    0.169964
     0.189484    0.199916    0.202639    0.202651    0.213571    0.236293
     0.257560    0.306672    0.345115    0.345141    0.381458    0.381458
     0.381458    0.381458    0.381458    0.398000    0.461968    0.497905
     0.524113    0.701432    0.701468    0.829880    0.829968    0.829992
     0.830094    0.830141    0.830149    1.218584

 Minimum Search - Taking P-RFO Step
 Searching for Lamda that Maximizes Along the Constraint modes Only
 Value Taken    Lamda =   0.06462281
 Searching for Lamda that Minimizes Along All other modes
 Value Taken    Lamda =  -0.03734567
 Calculated Step too Large.  Step scaled by  0.909351
 Step Taken.  Stepsize is  0.300000

                             Maximum     Tolerance    Cnvgd?
         Gradient            0.300000       0.000300      NO
         Displacement        0.257419       0.001200      NO
         Energy change     *********       0.000001      NO


 New Cartesian Coordinates Obtained by Inverse Iteration

 Displacement from previous Coordinates is:  0.467316
 ----------------------------------------------------------------
             Standard Nuclear Orientation (Angstroms)
    I     Atom           X                Y                Z
 ----------------------------------------------------------------
    1      C       0.0161922604     0.5357767411    -0.4203922202
    2      H       0.0554498940     0.7204015407    -1.4943065780
    3      C       0.3128372920     1.8401244300     0.3379872130
    4      H      -0.4916258349     2.5532853871     0.1433316011
    5      H       0.3530731167     1.6308769981     1.4087419068
    6      C       1.6431332464     2.4577131108    -0.1154369476
    7      H       1.8258400205     3.3839898974     0.4323674907
    8      H       2.4624002130     1.7643057483     0.0749568703
    9      H       1.6060077365     2.6800411595    -1.1837805799
   10      Se     -1.6608253640    -0.0226285793     0.0292085911
   11      H      -1.7258413861    -1.2774924352    -0.8342292222
   12      Se      1.3453764123    -0.8648556252    -0.0029835614
   13      H       1.0901823931    -0.9526383734     1.4980354363
 ----------------------------------------------------------------
 Nuclear Repulsion Energy =   620.8000971079 hartrees
 There are       47 alpha and       47 beta electrons

                       Distance Matrix (Angstroms)
             C (  1)   H (  2)   C (  3)   H (  4)   H (  5)   C (  6)
   H (  2)  1.090376
   C (  3)  1.537680  2.162713
   H (  4)  2.155459  2.518058  1.092543
   H (  5)  2.158348  3.056998  1.091750  1.779218
   C (  6)  2.536489  2.727686  1.535154  2.152508  2.161258
   H (  7)  3.480566  3.733773  2.163702  2.478762  2.489127  1.091540
   H (  8)  2.781832  3.057079  2.166923  3.058338  2.499209  1.090074
   H (  9)  2.776355  2.518103  2.166455  2.485430  3.064598  1.091864
   Se( 10)  1.823827  2.412217  2.731398  2.831145  2.948386  4.133904
   H ( 11)  2.548311  2.756861  3.905104  4.141711  4.220358  5.081182
   Se( 12)  1.975533  2.530019  2.915359  3.883256  3.034191  3.337779
   H ( 13)  2.655033  3.581040  3.122419  4.077848  2.688095  3.813076
             H (  7)   H (  8)   H (  9)   Se( 10)   H ( 11)   Se( 12)
   H (  8)  1.776606
   H (  9)  1.776458  1.776626
   Se( 10)  4.891260  4.494020  4.409985
   H ( 11)  5.995676  5.255523  5.185121  1.524610
   Se( 12)  4.298030  2.857675  3.745464  3.122120  3.208367
   H ( 13)  4.525835  3.360048  4.544730  3.254292  3.670828  1.525086

 
 Applying Cartesian multipole field
    Component          Value
    ---------          -----
     (2,0,0)        1.00000E-11
     (0,2,0)        2.00000E-11
     (0,0,2)       -3.00000E-11
 Nucleus-field energy     =     0.0000000140 hartrees
 Requested basis set is 6-31G(d,p)
 There are 52 shells and 155 basis functions
 A cutoff of  1.0D-14 yielded   1262 shell pairs
 There are     11283 function pairs
 Smallest overlap matrix eigenvalue = 6.74E-04
 Guess from superposition of atomic densities
 Warning:  Energy on first SCF cycle will be non-variational
 SAD guess density has 93.936381 electrons

 -----------------------------------------------------------------------
  General SCF calculation program by
  Eric Jon Sundstrom, Paul Horn, Yuezhi Mao, Dmitri Zuev, Alec White,
  David Stuck, Shaama M.S., Shane Yost, Joonho Lee, David Small,
  Daniel Levine, Susi Lehtola, Hugh Burton, Evgeny Epifanovsky
 -----------------------------------------------------------------------
 Exchange:     0.2000 Hartree-Fock + 0.0800 Slater + 0.7200 B88
 Correlation:  0.1900 VWN1RPA + 0.8100 LYP
 Using SG-1 standard quadrature grid
 using 12 threads for integral computing
 -------------------------------------------------------
 OpenMP Integral computing Module                
 Release: version 1.0, May 2013, Q-Chem Inc. Pittsburgh 
 -------------------------------------------------------
 -------------------------------------------------------
 OpenMP BLAS3 based DFT computing Module                
 Release: version 1.0, May 2013, Q-Chem Inc. Pittsburgh 
 -------------------------------------------------------
 A unrestricted SCF calculation will be
 performed using DIIS
 SCF converges when DIIS error is below 1.0e-06
 Alpha HF Exchange    Energy = -18.89342396084928
 Beta HF Exchange     Energy = -18.89342396084928
 DFT Correlation      Energy =  -5.15013385374679
 DFT Exchange         Energy = -149.94474857113002
 One-Electron (alpha) Energy = -4038.28018746641874
 One-Electron (beta)  Energy = -4038.28018746641874
 Total Coulomb        Energy = 2720.44813775624107
 ---------------------------------------
  Cycle       Energy         DIIS error
 ---------------------------------------
    1   -4928.1938704013      1.51e-01  
 Alpha HF Exchange    Energy = -18.98221125256406
 Beta HF Exchange     Energy = -18.98221125256407
 DFT Correlation      Energy =  -5.20465613930120
 DFT Exchange         Energy = -151.11487632908222
 One-Electron (alpha) Energy = -4049.20748203100948
 One-Electron (beta)  Energy = -4049.20748203100993
 Total Coulomb        Energy = 2750.32795663159823
    2   -4921.5708652820      9.36e-03  
 Alpha HF Exchange    Energy = -18.84280288981357
 Beta HF Exchange     Energy = -18.84280288981356
 DFT Correlation      Energy =  -5.15935127318959
 DFT Exchange         Energy = -149.99269854986403
 One-Electron (alpha) Energy = -4033.10776587644841
 One-Electron (beta)  Energy = -4033.10776587644796
 Total Coulomb        Energy = 2716.69668663907851
    3   -4921.5564035946      3.96e-03  
 Alpha HF Exchange    Energy = -18.96269037241975
 Beta HF Exchange     Energy = -18.96269037241973
 DFT Correlation      Energy =  -5.19885031813956
 DFT Exchange         Energy = -150.95157167564449
 One-Electron (alpha) Energy = -4046.84323601240703
 One-Electron (beta)  Energy = -4046.84323601240430
 Total Coulomb        Energy = 2745.35494336138800
    4   -4921.6072342802      3.14e-03  
 Alpha HF Exchange    Energy = -18.91906764885792
 Beta HF Exchange     Energy = -18.91906764885792
 DFT Correlation      Energy =  -5.18302146751708
 DFT Exchange         Energy = -150.59742662535737
 One-Electron (alpha) Energy = -4041.98266519639765
 One-Electron (beta)  Energy = -4041.98266519639719
 Total Coulomb        Energy = 2735.07726516491675
    5   -4921.7065514966      8.12e-04  
 Alpha HF Exchange    Energy = -18.91495875039061
 Beta HF Exchange     Energy = -18.91495875039062
 DFT Correlation      Energy =  -5.18307585561023
 DFT Exchange         Energy = -150.56832845590350
 One-Electron (alpha) Energy = -4041.60439369548340
 One-Electron (beta)  Energy = -4041.60439369548385
 Total Coulomb        Energy = 2734.27595131937096
    6   -4921.7140607620      9.08e-05  
 Alpha HF Exchange    Energy = -18.91406173277292
 Beta HF Exchange     Energy = -18.91406173277290
 DFT Correlation      Energy =  -5.18262752704705
 DFT Exchange         Energy = -150.56079011492429
 One-Electron (alpha) Energy = -4041.43741120988307
 One-Electron (beta)  Energy = -4041.43741120988079
 Total Coulomb        Energy = 2733.93211110950642
    7   -4921.7141552959      3.24e-05  
 Alpha HF Exchange    Energy = -18.91428230671238
 Beta HF Exchange     Energy = -18.91428230671237
 DFT Correlation      Energy =  -5.18264621802675
 DFT Exchange         Energy = -150.56243670179765
 One-Electron (alpha) Energy = -4041.48102234759381
 One-Electron (beta)  Energy = -4041.48102234759244
 Total Coulomb        Energy = 2734.02142832180107
    8   -4921.7141667847      1.02e-05  
 Alpha HF Exchange    Energy = -18.91430716905856
 Beta HF Exchange     Energy = -18.91430716905859
 DFT Correlation      Energy =  -5.18267533395732
 DFT Exchange         Energy = -150.56266429237135
 One-Electron (alpha) Energy = -4041.48305250973817
 One-Electron (beta)  Energy = -4041.48305250974136
 Total Coulomb        Energy = 2734.02579393729275
    9   -4921.7141679247      7.40e-07  Convergence criterion met
 ---------------------------------------
 SCF time:   CPU 45.52s  wall 3.00s 
<S^2> =         -0.000000000
 Alpha HF Exchange    Energy = -18.91430716905856
 Beta HF Exchange     Energy = -18.91430716905859
 DFT Correlation      Energy =  -5.18267533395732
 DFT Exchange         Energy = -150.56266429237135
 One-Electron (alpha) Energy = -4041.48305250973817
 One-Electron (beta)  Energy = -4041.48305250974136
 Total Coulomb        Energy = 2734.02579393729275
 Nuclear repulsion Energy = 620.80009712189178
 SCF   energy in the final basis set =    -4921.7141679247
 Total energy in the final basis set =    -4921.7141679247
 
 --------------------------------------------------------------
 
                    Orbital Energies (a.u.)
 --------------------------------------------------------------
 
 Alpha MOs
 -- Occupied --
*******-453.898 -58.095 -58.094 -52.152 -52.152 -52.151 -52.150
-52.149 -52.148 -10.250 -10.206 -10.182  -7.829  -7.827  -5.775
 -5.773  -5.770  -5.769  -5.761  -5.759  -2.109  -2.108  -2.107
 -2.106  -2.100  -2.098  -2.096  -2.095  -2.094  -2.093  -0.836
 -0.748  -0.693  -0.641  -0.582  -0.475  -0.449  -0.439  -0.396
 -0.374  -0.362  -0.352  -0.345  -0.311  -0.244  -0.213
 -- Virtual --
 -0.015   0.025   0.030   0.057   0.094   0.116   0.147   0.154
  0.168   0.172   0.188   0.217   0.225   0.257   0.274   0.287
  0.302   0.315   0.337   0.357   0.447   0.463   0.478   0.502
  0.511   0.558   0.593   0.617   0.625   0.638   0.666   0.686
  0.708   0.756   0.784   0.816   0.842   0.863   0.870   0.890
  0.921   0.923   0.945   0.955   1.011   1.039   1.066   1.118
  1.339   1.409   1.476   1.547   1.589   1.631   1.661   1.721
  1.775   1.826   1.876   1.964   2.035   2.051   2.061   2.064
  2.079   2.080   2.101   2.111   2.133   2.208   2.261   2.305
  2.365   2.447   2.490   2.529   2.570   2.588   2.594   2.682
  2.720   2.743   2.825   2.893   2.911   3.202   3.279   3.315
  3.408   3.469   3.533   4.189   4.269   4.277   4.330   4.345
  4.366   4.384   4.396   4.425   4.434   4.513   4.532   4.638
  5.466   5.480  89.774  89.811
 
 Beta MOs
 -- Occupied --
*******-453.898 -58.095 -58.094 -52.152 -52.152 -52.151 -52.150
-52.149 -52.148 -10.250 -10.206 -10.182  -7.829  -7.827  -5.775
 -5.773  -5.770  -5.769  -5.761  -5.759  -2.109  -2.108  -2.107
 -2.106  -2.100  -2.098  -2.096  -2.095  -2.094  -2.093  -0.836
 -0.748  -0.693  -0.641  -0.582  -0.475  -0.449  -0.439  -0.396
 -0.374  -0.362  -0.352  -0.345  -0.311  -0.244  -0.213
 -- Virtual --
 -0.015   0.025   0.030   0.057   0.094   0.116   0.147   0.154
  0.168   0.172   0.188   0.217   0.225   0.257   0.274   0.287
  0.302   0.315   0.337   0.357   0.447   0.463   0.478   0.502
  0.511   0.558   0.593   0.617   0.625   0.638   0.666   0.686
  0.708   0.756   0.784   0.816   0.842   0.863   0.870   0.890
  0.921   0.923   0.945   0.955   1.011   1.039   1.066   1.118
  1.339   1.409   1.476   1.547   1.589   1.631   1.661   1.721
  1.775   1.826   1.876   1.964   2.035   2.051   2.061   2.064
  2.079   2.080   2.101   2.111   2.133   2.208   2.261   2.305
  2.365   2.447   2.490   2.529   2.570   2.588   2.594   2.682
  2.720   2.743   2.825   2.893   2.911   3.202   3.279   3.315
  3.408   3.469   3.533   4.189   4.269   4.277   4.330   4.345
  4.366   4.384   4.396   4.425   4.434   4.513   4.532   4.638
  5.466   5.480  89.774  89.811
 --------------------------------------------------------------
 
          Ground-State Mulliken Net Atomic Charges

     Atom                 Charge (a.u.)    Spin (a.u.)
  --------------------------------------------------------
      1 C                    -0.203493       0.000000
      2 H                     0.155235       0.000000
      3 C                    -0.201167      -0.000000
      4 H                     0.123874       0.000000
      5 H                     0.120253       0.000000
      6 C                    -0.326348       0.000000
      7 H                     0.107819       0.000000
      8 H                     0.142484      -0.000000
      9 H                     0.105496       0.000000
     10 Se                   -0.068384      -0.000000
     11 H                     0.057587       0.000000
     12 Se                   -0.073997       0.000000
     13 H                     0.060639      -0.000000
  --------------------------------------------------------
  Sum of atomic charges =    -0.000000
  Sum of spin   charges =    -0.000000

 -----------------------------------------------------------------
                    Cartesian Multipole Moments
 -----------------------------------------------------------------
    Charge (ESU x 10^10)
                 0.0000
    Dipole Moment (Debye)
         X       0.3005      Y       1.0217      Z      -0.1818
       Tot       1.0804
    Quadrupole Moments (Debye-Ang)
        XX     -62.0973     XY       2.1678     YY     -56.1299
        XZ       1.3979     YZ       0.1161     ZZ     -55.0817
    Octopole Moments (Debye-Ang^2)
       XXX     -27.6668    XXY     -22.0743    XYY      -8.8263
       YYY     -42.0088    XXZ       2.1859    XYZ      -3.9009
       YYZ       2.1902    XZZ      -4.1272    YZZ     -16.4472
       ZZZ       0.1741
    Hexadecapole Moments (Debye-Ang^3)
      XXXX    -755.5666   XXXY     -33.1649   XXYY    -217.1174
      XYYY     -41.3667   YYYY    -594.6592   XXXZ      -3.5456
      XXYZ       3.3468   XYYZ       5.3019   YYYZ       1.6192
      XXZZ    -143.0797   XYZZ     -15.5277   YYZZ    -115.8915
      XZZZ       0.0612   YZZZ      -3.1548   ZZZZ    -109.4194
 -----------------------------------------------------------------
 Calculating analytic gradient of the SCF energy
 Gradient of SCF Energy
            1           2           3           4           5           6
    1  -0.0425683  -0.0079594  -0.0112160   0.0034383   0.0031249   0.0057095
    2  -0.0165890   0.0029283  -0.0009887  -0.0011931  -0.0011988  -0.0006267
    3   0.0023515   0.0014967   0.0080240  -0.0017870  -0.0026962  -0.0043399
            7           8           9          10          11          12
    1  -0.0017912  -0.0023819  -0.0021180   0.0727718  -0.0031184  -0.0156411
    2  -0.0020595  -0.0007972  -0.0016910   0.0291379  -0.0139786   0.0112076
    3   0.0006252   0.0007595   0.0018474  -0.0062515  -0.0098225  -0.0074863
           13
    1   0.0017500
    2  -0.0041511
    3   0.0172792
 Max gradient component =       7.277E-02
 RMS gradient           =       1.577E-02
 Gradient time:  CPU 20.15 s  wall 1.70 s
 Geometry Optimization Parameters
   NAtoms,    NIC,     NZ,  NCons,   NDum,   NFix, NCnnct, MaxDiis
       13      82       0       1       0       0       0       0

 Cartesian Hessian Update
 Hessian Updated using BFGS Update


** CONSTRAINED OPTIMIZATION IN DELOCALIZED INTERNAL COORDINATES **
   Searching for a Minimum

   Optimization Cycle:   2

                       Coordinates (Angstroms)
     ATOM                X               Y               Z
      1  C         0.0161922604    0.5357767411   -0.4203922202
      2  H         0.0554498940    0.7204015407   -1.4943065780
      3  C         0.3128372920    1.8401244300    0.3379872130
      4  H        -0.4916258349    2.5532853871    0.1433316011
      5  H         0.3530731167    1.6308769981    1.4087419068
      6  C         1.6431332464    2.4577131108   -0.1154369476
      7  H         1.8258400205    3.3839898974    0.4323674907
      8  H         2.4624002130    1.7643057483    0.0749568703
      9  H         1.6060077365    2.6800411595   -1.1837805799
     10  Se       -1.6608253640   -0.0226285793    0.0292085911
     11  H        -1.7258413861   -1.2774924352   -0.8342292222
     12  Se        1.3453764123   -0.8648556252   -0.0029835614
     13  H         1.0901823931   -0.9526383734    1.4980354363
   Point Group: c1    Number of degrees of freedom:    33


   Energy is  -4921.714167925

              Constraints and their Current Values
                                        Value     Constraint
   Distance(Angs):        1  10             1.823827     1.400000
 Hessian Updated using BFGS Update
**WARNING** Constraint Gradient Reduced for constraint   1

   Using Lagrange Multiplier Algorithm


 29 Hessian modes will be used to form the next step
  Hessian Eigenvalues:
    -0.871014    0.107099    0.107347    0.169846    0.188259    0.200820
     0.202639    0.202701    0.208114    0.236245    0.258689    0.306698
     0.319893    0.345128    0.373996    0.383233    0.396842    0.462296
     0.500281    0.521148    0.699483    0.701925    0.829121    0.829918
     0.830002    0.830026    0.830134    0.830219    1.157116

 Minimum Search - Taking P-RFO Step
 Searching for Lamda that Maximizes Along the Constraint modes Only
 Value Taken    Lamda =   0.04158987
 Searching for Lamda that Minimizes Along All other modes
 Value Taken    Lamda =  -0.05552930
 Calculated Step too Large.  Step scaled by  0.861834
 Step Taken.  Stepsize is  0.300000

                             Maximum     Tolerance    Cnvgd?
         Gradient            0.300000       0.000300      NO
         Displacement        0.246149       0.001200      NO
         Energy change      0.002153       0.000001      NO


 New Cartesian Coordinates Obtained by Inverse Iteration

 Displacement from previous Coordinates is:  0.364464
 ----------------------------------------------------------------
             Standard Nuclear Orientation (Angstroms)
    I     Atom           X                Y                Z
 ----------------------------------------------------------------
    1      C      -0.0122368079     0.5034523560    -0.3956796170
    2      H       0.0437381672     0.6711988920    -1.4729494785
    3      C       0.3042449376     1.8269806239     0.3376361355
    4      H      -0.5061006738     2.5354826990     0.1340155653
    5      H       0.3365830885     1.6346095352     1.4142210793
    6      C       1.6310350563     2.4591629368    -0.1140812637
    7      H       1.8047970744     3.3956343456     0.4226039284
    8      H       2.4658692758     1.7844876890     0.0828616345
    9      H       1.6056649064     2.6770236874    -1.1858322076
   10      Se     -1.5860333749     0.0394736217     0.0239277770
   11      H      -1.6542490940    -1.1960912760    -0.8029248978
   12      Se      1.3407532922    -0.9189355656    -0.0158346510
   13      H       1.0581341524    -0.9635795450     1.4455359957
 ----------------------------------------------------------------
 Nuclear Repulsion Energy =   630.1648016640 hartrees
 There are       47 alpha and       47 beta electrons

                       Distance Matrix (Angstroms)
             C (  1)   H (  2)   C (  3)   H (  4)   H (  5)   C (  6)
   H (  2)  1.091688
   C (  3)  1.545846  2.163773
   H (  4)  2.157226  2.521946  1.095489
   H (  5)  2.162622  3.057723  1.094115  1.777812
   C (  6)  2.569911  2.750064  1.537555  2.152841  2.165918
   H (  7)  3.512252  3.757260  2.172453  2.482618  2.498032  1.093253
   H (  8)  2.830382  3.086532  2.177001  3.065814  2.515719  1.091293
   H (  9)  2.822474  2.558395  2.176516  2.494311  3.075300  1.093964
   Se( 10)  1.693571  2.301277  2.620448  2.721844  2.858991  4.027837
   H ( 11)  2.398020  2.611296  3.778299  4.015065  4.109990  4.962709
   Se( 12)  1.999513  2.516736  2.956239  3.919991  3.094190  3.391971
   H ( 13)  2.586107  3.495577  3.095645  4.050969  2.696702  3.804706
             H (  7)   H (  8)   H (  9)   Se( 10)   H ( 11)   Se( 12)
   H (  8)  1.774327
   H (  9)  1.772885  1.773741
   Se( 10)  4.787535  4.412081  4.313598
   H ( 11)  5.877998  5.161768  5.076877  1.488274
   Se( 12)  4.361545  2.929868  3.790778  3.079969  3.109078
   H ( 13)  4.539454  3.374977  4.525249  3.165234  3.530816  1.489117

 
 Applying Cartesian multipole field
    Component          Value
    ---------          -----
     (2,0,0)        1.00000E-11
     (0,2,0)        2.00000E-11
     (0,0,2)       -3.00000E-11
 Nucleus-field energy     =     0.0000000139 hartrees
 Requested basis set is 6-31G(d,p)
 There are 52 shells and 155 basis functions
 A cutoff of  1.0D-14 yielded   1268 shell pairs
 There are     11313 function pairs
 Smallest overlap matrix eigenvalue = 6.74E-04
 Guess from superposition of atomic densities
 Warning:  Energy on first SCF cycle will be non-variational
 SAD guess density has 93.936381 electrons

 -----------------------------------------------------------------------
  General SCF calculation program by
  Eric Jon Sundstrom, Paul Horn, Yuezhi Mao, Dmitri Zuev, Alec White,
  David Stuck, Shaama M.S., Shane Yost, Joonho Lee, David Small,
  Daniel Levine, Susi Lehtola, Hugh Burton, Evgeny Epifanovsky
 -----------------------------------------------------------------------
 Exchange:     0.2000 Hartree-Fock + 0.0800 Slater + 0.7200 B88
 Correlation:  0.1900 VWN1RPA + 0.8100 LYP
 Using SG-1 standard quadrature grid
 using 12 threads for integral computing
 -------------------------------------------------------
 OpenMP Integral computing Module                
 Release: version 1.0, May 2013, Q-Chem Inc. Pittsburgh 
 -------------------------------------------------------
 -------------------------------------------------------
 OpenMP BLAS3 based DFT computing Module                
 Release: version 1.0, May 2013, Q-Chem Inc. Pittsburgh 
 -------------------------------------------------------
 A unrestricted SCF calculation will be
 performed using DIIS
 SCF converges when DIIS error is below 1.0e-06
 Alpha HF Exchange    Energy = -18.90886634516084
 Beta HF Exchange     Energy = -18.90886634516084
 DFT Correlation      Energy =  -5.15389916451701
 DFT Exchange         Energy = -149.97845448383853
 One-Electron (alpha) Energy = -4047.52909977330319
 One-Electron (beta)  Energy = -4047.52909977330319
 Total Coulomb        Energy = 2729.45428221368911
 ---------------------------------------
  Cycle       Energy         DIIS error
 ---------------------------------------
    1   -4928.3892019937      1.52e-01  
 Alpha HF Exchange    Energy = -18.98897627066678
 Beta HF Exchange     Energy = -18.98897627066678
 DFT Correlation      Energy =  -5.20889688326186
 DFT Exchange         Energy = -151.16589946619490
 One-Electron (alpha) Energy = -4058.60169440474283
 One-Electron (beta)  Energy = -4058.60169440474147
 Total Coulomb        Energy = 2759.84641439102415
    2   -4921.5449216314      9.38e-03  
 Alpha HF Exchange    Energy = -18.84791782665150
 Beta HF Exchange     Energy = -18.84791782665147
 DFT Correlation      Energy =  -5.16285897258694
 DFT Exchange         Energy = -150.02823443611379
 One-Electron (alpha) Energy = -4042.25558470181068
 One-Electron (beta)  Energy = -4042.25558470180886
 Total Coulomb        Energy = 2725.71110464461208
    3   -4921.5221921431      4.06e-03  
 Alpha HF Exchange    Energy = -18.96877583741025
 Beta HF Exchange     Energy = -18.96877583741022
 DFT Correlation      Energy =  -5.20312314842230
 DFT Exchange         Energy = -150.99745548867344
 One-Electron (alpha) Energy = -4056.22887727274565
 One-Electron (beta)  Energy = -4056.22887727274474
 Total Coulomb        Energy = 2754.86062260956351
    4   -4921.5704605700      3.30e-03  
 Alpha HF Exchange    Energy = -18.92616765497523
 Beta HF Exchange     Energy = -18.92616765497521
 DFT Correlation      Energy =  -5.18729349794608
 DFT Exchange         Energy = -150.65005035398923
 One-Electron (alpha) Energy = -4051.35573136354287
 One-Electron (beta)  Energy = -4051.35573136354287
 Total Coulomb        Energy = 2744.55333052892456
    5   -4921.6830096822      8.34e-04  
 Alpha HF Exchange    Energy = -18.92094687785980
 Beta HF Exchange     Energy = -18.92094687785979
 DFT Correlation      Energy =  -5.18704877116323
 DFT Exchange         Energy = -150.61198909672740
 One-Electron (alpha) Energy = -4050.90764608038398
 One-Electron (beta)  Energy = -4050.90764608038353
 Total Coulomb        Energy = 2743.60086163490450
    6   -4921.6905604716      9.76e-05  
 Alpha HF Exchange    Energy = -18.92008619064244
 Beta HF Exchange     Energy = -18.92008619064244
 DFT Correlation      Energy =  -5.18661953594188
 DFT Exchange         Energy = -150.60477231547645
 One-Electron (alpha) Energy = -4050.74003706289250
 One-Electron (beta)  Energy = -4050.74003706289341
 Total Coulomb        Energy = 2743.25617259972569
    7   -4921.6906640809      3.70e-05  
 Alpha HF Exchange    Energy = -18.92031477082956
 Beta HF Exchange     Energy = -18.92031477082956
 DFT Correlation      Energy =  -5.18662868830027
 DFT Exchange         Energy = -150.60645035008270
 One-Electron (alpha) Energy = -4050.78292127840768
 One-Electron (beta)  Energy = -4050.78292127840905
 Total Coulomb        Energy = 2743.34407128254406
    8   -4921.6906781764      1.04e-05  
 Alpha HF Exchange    Energy = -18.92035353549040
 Beta HF Exchange     Energy = -18.92035353549038
 DFT Correlation      Energy =  -5.18666417340618
 DFT Exchange         Energy = -150.60679268477600
 One-Electron (alpha) Energy = -4050.78736357815069
 One-Electron (beta)  Energy = -4050.78736357814978
 Total Coulomb        Energy = 2743.35341006152066
    9   -4921.6906793461      8.52e-07  Convergence criterion met
 ---------------------------------------
 SCF time:   CPU 46.05s  wall 3.00s 
<S^2> =         -0.000000000
 Alpha HF Exchange    Energy = -18.92035353549040
 Beta HF Exchange     Energy = -18.92035353549038
 DFT Correlation      Energy =  -5.18666417340618
 DFT Exchange         Energy = -150.60679268477600
 One-Electron (alpha) Energy = -4050.78736357815069
 One-Electron (beta)  Energy = -4050.78736357814978
 Total Coulomb        Energy = 2743.35341006152066
 Nuclear repulsion Energy = 630.16480167787347
 SCF   energy in the final basis set =    -4921.6906793461
 Total energy in the final basis set =    -4921.6906793461
 
 --------------------------------------------------------------
 
                    Orbital Energies (a.u.)
 --------------------------------------------------------------
 
 Alpha MOs
 -- Occupied --
*******-453.896 -58.094 -58.092 -52.152 -52.150 -52.149 -52.148
-52.148 -52.145 -10.244 -10.208 -10.183  -7.830  -7.825  -5.776
 -5.771  -5.771  -5.767  -5.763  -5.757  -2.111  -2.109  -2.104
 -2.104  -2.102  -2.098  -2.097  -2.096  -2.092  -2.091  -0.853
 -0.755  -0.698  -0.641  -0.580  -0.478  -0.458  -0.438  -0.397
 -0.375  -0.363  -0.357  -0.344  -0.314  -0.242  -0.212
 -- Virtual --
 -0.017   0.033   0.039   0.077   0.098   0.113   0.146   0.153
  0.167   0.169   0.184   0.214   0.226   0.256   0.276   0.287
  0.303   0.314   0.343   0.365   0.451   0.474   0.486   0.497
  0.509   0.556   0.598   0.616   0.628   0.645   0.669   0.688
  0.719   0.748   0.786   0.825   0.839   0.864   0.873   0.891
  0.917   0.928   0.954   0.969   1.031   1.051   1.114   1.121
  1.350   1.400   1.492   1.545   1.602   1.635   1.672   1.724
  1.765   1.821   1.870   1.961   2.032   2.052   2.062   2.072
  2.080   2.088   2.109   2.115   2.144   2.239   2.266   2.307
  2.360   2.450   2.508   2.528   2.590   2.609   2.614   2.691
  2.722   2.748   2.822   2.887   2.904   3.193   3.274   3.314
  3.407   3.465   3.528   4.180   4.270   4.279   4.328   4.342
  4.379   4.395   4.406   4.416   4.450   4.501   4.535   4.635
  5.472   5.485  89.802  89.837
 
 Beta MOs
 -- Occupied --
*******-453.896 -58.094 -58.092 -52.152 -52.150 -52.149 -52.148
-52.148 -52.145 -10.244 -10.208 -10.183  -7.830  -7.825  -5.776
 -5.771  -5.771  -5.767  -5.763  -5.757  -2.111  -2.109  -2.104
 -2.104  -2.102  -2.098  -2.097  -2.096  -2.092  -2.091  -0.853
 -0.755  -0.698  -0.641  -0.580  -0.478  -0.458  -0.438  -0.397
 -0.375  -0.363  -0.357  -0.344  -0.314  -0.242  -0.212
 -- Virtual --
 -0.017   0.033   0.039   0.077   0.098   0.113   0.146   0.153
  0.167   0.169   0.184   0.214   0.226   0.256   0.276   0.287
  0.303   0.314   0.343   0.365   0.451   0.474   0.486   0.497
  0.509   0.556   0.598   0.616   0.628   0.645   0.669   0.688
  0.719   0.748   0.786   0.825   0.839   0.864   0.873   0.891
  0.917   0.928   0.954   0.969   1.031   1.051   1.114   1.121
  1.350   1.400   1.492   1.545   1.602   1.635   1.672   1.724
  1.765   1.821   1.870   1.961   2.032   2.052   2.062   2.072
  2.080   2.088   2.109   2.115   2.144   2.239   2.266   2.307
  2.360   2.450   2.508   2.528   2.590   2.609   2.614   2.691
  2.722   2.748   2.822   2.887   2.904   3.193   3.274   3.314
  3.407   3.465   3.528   4.180   4.270   4.279   4.328   4.342
  4.379   4.395   4.406   4.416   4.450   4.501   4.535   4.635
  5.472   5.485  89.802  89.837
 --------------------------------------------------------------
 
          Ground-State Mulliken Net Atomic Charges

     Atom                 Charge (a.u.)    Spin (a.u.)
  --------------------------------------------------------
      1 C                    -0.176200      -0.000000
      2 H                     0.148662       0.000000
      3 C                    -0.211947       0.000000
      4 H                     0.126513       0.000000
      5 H                     0.122014       0.000000
      6 C                    -0.325654      -0.000000
      7 H                     0.107567       0.000000
      8 H                     0.140973      -0.000000
      9 H                     0.106145       0.000000
     10 Se                   -0.070878       0.000000
     11 H                     0.056277      -0.000000
     12 Se                   -0.084962       0.000000
     13 H                     0.061490      -0.000000
  --------------------------------------------------------
  Sum of atomic charges =     0.000000
  Sum of spin   charges =     0.000000

 -----------------------------------------------------------------
                    Cartesian Multipole Moments
 -----------------------------------------------------------------
    Charge (ESU x 10^10)
                 0.0000
    Dipole Moment (Debye)
         X       0.1978      Y       1.0724      Z      -0.2086
       Tot       1.1103
    Quadrupole Moments (Debye-Ang)
        XX     -61.8830     XY       2.1761     YY     -56.1440
        XZ       1.4386     YZ       0.1094     ZZ     -55.0947
    Octopole Moments (Debye-Ang^2)
       XXX     -31.5903    XXY     -21.1772    XYY      -9.4100
       YYY     -41.2308    XXZ       1.8250    XYZ      -3.5536
       YYZ       2.6641    XZZ      -5.4042    YZZ     -16.5154
       ZZZ       0.5499
    Hexadecapole Moments (Debye-Ang^3)
      XXXX    -721.4844   XXXY     -22.7144   XXYY    -213.3332
      XYYY     -30.5447   YYYY    -601.8056   XXXZ      -1.8858
      XXYZ       2.4970   XYYZ       4.8449   YYYZ      -0.1025
      XXZZ    -137.4557   XYZZ     -11.9145   YYZZ    -117.0490
      XZZZ       0.9008   YZZZ      -3.8789   ZZZZ    -107.5476
 -----------------------------------------------------------------
 Calculating analytic gradient of the SCF energy
 Gradient of SCF Energy
            1           2           3           4           5           6
    1  -0.1259493  -0.0110787  -0.0148924   0.0018648   0.0024495   0.0046401
    2  -0.0442691   0.0002210  -0.0029410  -0.0000645  -0.0011291   0.0003709
    3   0.0316878   0.0011887   0.0069467  -0.0018430  -0.0013337  -0.0026124
            7           8           9          10          11          12
    1  -0.0005887  -0.0011951  -0.0009919   0.1569442   0.0014852  -0.0137575
    2  -0.0008399  -0.0001479  -0.0007684   0.0485020  -0.0030719   0.0047526
    3   0.0003344   0.0003776   0.0006747  -0.0366383  -0.0033483  -0.0005420
           13
    1   0.0010697
    2  -0.0006146
    3   0.0051077
 Max gradient component =       1.569E-01
 RMS gradient           =       3.503E-02
 Gradient time:  CPU 20.44 s  wall 1.73 s
 Geometry Optimization Parameters
   NAtoms,    NIC,     NZ,  NCons,   NDum,   NFix, NCnnct, MaxDiis
       13      82       0       1       0       0       0       0

 Cartesian Hessian Update
 Hessian Updated using BFGS Update


** CONSTRAINED OPTIMIZATION IN DELOCALIZED INTERNAL COORDINATES **
   Searching for a Minimum

   Optimization Cycle:   3

                       Coordinates (Angstroms)
     ATOM                X               Y               Z
      1  C        -0.0122368079    0.5034523560   -0.3956796170
      2  H         0.0437381672    0.6711988920   -1.4729494785
      3  C         0.3042449376    1.8269806239    0.3376361355
      4  H        -0.5061006738    2.5354826990    0.1340155653
      5  H         0.3365830885    1.6346095352    1.4142210793
      6  C         1.6310350563    2.4591629368   -0.1140812637
      7  H         1.8047970744    3.3956343456    0.4226039284
      8  H         2.4658692758    1.7844876890    0.0828616345
      9  H         1.6056649064    2.6770236874   -1.1858322076
     10  Se       -1.5860333749    0.0394736217    0.0239277770
     11  H        -1.6542490940   -1.1960912760   -0.8029248978
     12  Se        1.3407532922   -0.9189355656   -0.0158346510
     13  H         1.0581341524   -0.9635795450    1.4455359957
   Point Group: c1    Number of degrees of freedom:    33


   Energy is  -4921.690679346

              Constraints and their Current Values
                                        Value     Constraint
   Distance(Angs):        1  10             1.693571     1.400000
 Hessian Updated using BFGS Update
**WARNING** Constraint Gradient Reduced for constraint   1

   Using Lagrange Multiplier Algorithm


 31 Hessian modes will be used to form the next step
  Hessian Eigenvalues:
    -0.802095    0.107029    0.107311    0.107354    0.169659    0.185879
     0.196600    0.202643    0.202699    0.207343    0.236204    0.259236
     0.306706    0.315575    0.345135    0.372551    0.381482    0.385074
     0.397215    0.460839    0.503316    0.519978    0.698202    0.702218
     0.828674    0.829915    0.829999    0.830062    0.830133    0.830217
     1.261664

 Minimum Search - Taking P-RFO Step
 Searching for Lamda that Maximizes Along the Constraint modes Only
 Value Taken    Lamda =   0.07206423
 Searching for Lamda that Minimizes Along All other modes
 Value Taken    Lamda =  -0.03013860
 Calculated Step too Large.  Step scaled by  0.860308
 Step Taken.  Stepsize is  0.300000

                             Maximum     Tolerance    Cnvgd?
         Gradient            0.300000       0.000300      NO
         Displacement        0.241737       0.001200      NO
         Energy change      0.023489       0.000001      NO


 New Cartesian Coordinates Obtained by Inverse Iteration

 Displacement from previous Coordinates is:  0.250694
 ----------------------------------------------------------------
             Standard Nuclear Orientation (Angstroms)
    I     Atom           X                Y                Z
 ----------------------------------------------------------------
    1      C      -0.0521023357     0.4820183075    -0.3737272263
    2      H       0.0450515624     0.6455457832    -1.4510966111
    3      C       0.2939152404     1.8215300415     0.3372000141
    4      H      -0.5170308107     2.5309804130     0.1275383637
    5      H       0.3168347241     1.6448978937     1.4187321554
    6      C       1.6203051996     2.4532038119    -0.1130124614
    7      H       1.7931978434     3.3968988325     0.4138479992
    8      H       2.4620783312     1.7870192498     0.0903051362
    9      H       1.6068366399     2.6665130830    -1.1875361524
   10      Se     -1.5168796787     0.0831561400     0.0091475272
   11      H      -1.6279042439    -1.1477502525    -0.7826126156
   12      Se      1.3562137072    -0.9382062016    -0.0251508447
   13      H       1.0516838209    -0.9769071021     1.4098647156
 ----------------------------------------------------------------
 Nuclear Repulsion Energy =   639.4034934826 hartrees
 There are       47 alpha and       47 beta electrons

                       Distance Matrix (Angstroms)
             C (  1)   H (  2)   C (  3)   H (  4)   H (  5)   C (  6)
   H (  2)  1.094031
   C (  3)  1.555454  2.154734
   H (  4)  2.160017  2.522477  1.097685
   H (  5)  2.168251  3.050981  1.096100  1.774163
   C (  6)  2.598171  2.745819  1.536559  2.152236  2.167634
   H (  7)  3.538635  3.755526  2.176123  2.483736  2.501789  1.094547
   H (  8)  2.870446  3.085595  2.182448  3.070823  2.527249  1.092576
   H (  9)  2.861185  2.567673  2.182333  2.501720  3.082278  1.095574
   Se( 10)  1.565649  2.210933  2.531510  2.646801  2.790784  3.933698
   H ( 11)  2.303581  2.541960  3.709986  3.949111  4.053000  4.895518
   Se( 12)  2.030246  2.502147  2.979248  3.945582  3.136484  3.402811
   H ( 13)  2.554997  3.439587  3.091290  4.050988  2.722856  3.795806
             H (  7)   H (  8)   H (  9)   Se( 10)   H ( 11)   Se( 12)
   H (  8)  1.773075
   H (  9)  1.769922  1.771391
   Se( 10)  4.701201  4.329185  4.226510
   H ( 11)  5.812856  5.109091  5.017581  1.467767
   Se( 12)  4.379134  2.943318  3.795781  3.049430  3.085874
   H ( 13)  4.546655  3.371904  4.508791  3.111794  3.466459  1.467483

 
 Applying Cartesian multipole field
    Component          Value
    ---------          -----
     (2,0,0)        1.00000E-11
     (0,2,0)        2.00000E-11
     (0,0,2)       -3.00000E-11
 Nucleus-field energy     =     0.0000000138 hartrees
 Requested basis set is 6-31G(d,p)
 There are 52 shells and 155 basis functions
 A cutoff of  1.0D-14 yielded   1269 shell pairs
 There are     11325 function pairs
 Smallest overlap matrix eigenvalue = 6.73E-04
 Guess from superposition of atomic densities
 Warning:  Energy on first SCF cycle will be non-variational
 SAD guess density has 93.936381 electrons

 -----------------------------------------------------------------------
  General SCF calculation program by
  Eric Jon Sundstrom, Paul Horn, Yuezhi Mao, Dmitri Zuev, Alec White,
  David Stuck, Shaama M.S., Shane Yost, Joonho Lee, David Small,
  Daniel Levine, Susi Lehtola, Hugh Burton, Evgeny Epifanovsky
 -----------------------------------------------------------------------
 Exchange:     0.2000 Hartree-Fock + 0.0800 Slater + 0.7200 B88
 Correlation:  0.1900 VWN1RPA + 0.8100 LYP
 Using SG-1 standard quadrature grid
 using 12 threads for integral computing
 -------------------------------------------------------
 OpenMP Integral computing Module                
 Release: version 1.0, May 2013, Q-Chem Inc. Pittsburgh 
 -------------------------------------------------------
 -------------------------------------------------------
 OpenMP BLAS3 based DFT computing Module                
 Release: version 1.0, May 2013, Q-Chem Inc. Pittsburgh 
 -------------------------------------------------------
 A unrestricted SCF calculation will be
 performed using DIIS
 SCF converges when DIIS error is below 1.0e-06
 Alpha HF Exchange    Energy = -18.92606129308288
 Beta HF Exchange     Energy = -18.92606129308288
 DFT Correlation      Energy =  -5.15765058699860
 DFT Exchange         Energy = -150.01663748999792
 One-Electron (alpha) Energy = -4056.59885333085504
 One-Electron (beta)  Energy = -4056.59885333085504
 Total Coulomb        Energy = 2738.20730697018780
 ---------------------------------------
  Cycle       Energy         DIIS error
 ---------------------------------------
    1   -4928.6133168584      1.53e-01  
 Alpha HF Exchange    Energy = -18.99641221938584
 Beta HF Exchange     Energy = -18.99641221938584
 DFT Correlation      Energy =  -5.21346091139306
 DFT Exchange         Energy = -151.22651258357453
 One-Electron (alpha) Energy = -4067.96981413087269
 One-Electron (beta)  Energy = -4067.96981413087315
 Total Coulomb        Energy = 2769.48780071963211
    2   -4921.4811319795      9.42e-03  
 Alpha HF Exchange    Energy = -18.85178718242269
 Beta HF Exchange     Energy = -18.85178718242271
 DFT Correlation      Energy =  -5.16579710125587
 DFT Exchange         Energy = -150.05744503062749
 One-Electron (alpha) Energy = -4050.90114861355778
 One-Electron (beta)  Energy = -4050.90114861355823
 Total Coulomb        Energy = 2733.88336567671149
    3   -4921.4422545508      4.29e-03  
 Alpha HF Exchange    Energy = -18.97543267272504
 Beta HF Exchange     Energy = -18.97543267272503
 DFT Correlation      Energy =  -5.20765335444423
 DFT Exchange         Energy = -151.05183941111267
 One-Electron (alpha) Energy = -4065.60857430249371
 One-Electron (beta)  Energy = -4065.60857430249416
 Total Coulomb        Energy = 2764.52953666657777
    4   -4921.4944765531      3.54e-03  
 Alpha HF Exchange    Energy = -18.93354098885836
 Beta HF Exchange     Energy = -18.93354098885833
 DFT Correlation      Energy =  -5.19168705903775
 DFT Exchange         Energy = -150.70873438074460
 One-Electron (alpha) Energy = -4060.57608782011857
 One-Electron (beta)  Energy = -4060.57608782011494
 Total Coulomb        Energy = 2753.88934045069755
    5   -4921.6268451107      8.66e-04  
 Alpha HF Exchange    Energy = -18.92698419107393
 Beta HF Exchange     Energy = -18.92698419107392
 DFT Correlation      Energy =  -5.19105249381636
 DFT Exchange         Energy = -150.65995667793197
 One-Electron (alpha) Energy = -4060.02695568950685
 One-Electron (beta)  Energy = -4060.02695568950639
 Total Coulomb        Energy = 2752.72069599097995
    6   -4921.6346994456      1.15e-04  
 Alpha HF Exchange    Energy = -18.92620146407473
 Beta HF Exchange     Energy = -18.92620146407473
 DFT Correlation      Energy =  -5.19064514844750
 DFT Exchange         Energy = -150.65336547099167
 One-Electron (alpha) Energy = -4059.86430769696699
 One-Electron (beta)  Energy = -4059.86430769696790
 Total Coulomb        Energy = 2752.38670062036590
    7   -4921.6348348248      4.54e-05  
 Alpha HF Exchange    Energy = -18.92644874383694
 Beta HF Exchange     Energy = -18.92644874383696
 DFT Correlation      Energy =  -5.19064445844550
 DFT Exchange         Energy = -150.65514662718647
 One-Electron (alpha) Energy = -4059.90529297645844
 One-Electron (beta)  Energy = -4059.90529297645890
 Total Coulomb        Energy = 2752.47092654976450
    8   -4921.6348544801      1.10e-05  
 Alpha HF Exchange    Energy = -18.92650549074973
 Beta HF Exchange     Energy = -18.92650549074970
 DFT Correlation      Energy =  -5.19068845229128
 DFT Exchange         Energy = -150.65563823869900
 One-Electron (alpha) Energy = -4059.91317310020258
 One-Electron (beta)  Energy = -4059.91317310019849
 Total Coulomb        Energy = 2752.48733458416655
    9   -4921.6348557924      9.80e-07  Convergence criterion met
 ---------------------------------------
 SCF time:   CPU 46.09s  wall 3.00s 
<S^2> =          0.000000000
 Alpha HF Exchange    Energy = -18.92650549074973
 Beta HF Exchange     Energy = -18.92650549074970
 DFT Correlation      Energy =  -5.19068845229128
 DFT Exchange         Energy = -150.65563823869900
 One-Electron (alpha) Energy = -4059.91317310020258
 One-Electron (beta)  Energy = -4059.91317310019849
 Total Coulomb        Energy = 2752.48733458416655
 Nuclear repulsion Energy = 639.40349349633527
 SCF   energy in the final basis set =    -4921.6348557924
 Total energy in the final basis set =    -4921.6348557924
 
 --------------------------------------------------------------
 
                    Orbital Energies (a.u.)
 --------------------------------------------------------------
 
 Alpha MOs
 -- Occupied --
*******-453.892 -58.095 -58.088 -52.153 -52.151 -52.149 -52.145
-52.144 -52.142 -10.239 -10.211 -10.184  -7.834  -7.821  -5.780
 -5.775  -5.767  -5.766  -5.763  -5.753  -2.116  -2.113  -2.106
 -2.101  -2.101  -2.101  -2.100  -2.092  -2.089  -2.087  -0.878
 -0.762  -0.698  -0.642  -0.579  -0.486  -0.466  -0.439  -0.401
 -0.376  -0.365  -0.362  -0.344  -0.313  -0.239  -0.210
 -- Virtual --
 -0.021   0.037   0.045   0.083   0.104   0.113   0.146   0.152
  0.164   0.166   0.180   0.212   0.227   0.256   0.274   0.293
  0.305   0.315   0.347   0.383   0.453   0.484   0.492   0.502
  0.515   0.556   0.600   0.620   0.633   0.650   0.671   0.687
  0.723   0.743   0.782   0.824   0.839   0.862   0.873   0.890
  0.915   0.931   0.954   0.993   1.044   1.053   1.124   1.199
  1.361   1.396   1.500   1.548   1.608   1.636   1.688   1.726
  1.760   1.815   1.864   1.962   2.024   2.050   2.062   2.078
  2.082   2.096   2.117   2.119   2.156   2.241   2.279   2.315
  2.356   2.449   2.513   2.535   2.594   2.616   2.629   2.701
  2.723   2.755   2.821   2.882   2.899   3.185   3.265   3.310
  3.403   3.460   3.525   4.159   4.271   4.280   4.318   4.342
  4.384   4.391   4.408   4.415   4.463   4.513   4.575   4.649
  5.476   5.492  89.814  89.900
 
 Beta MOs
 -- Occupied --
*******-453.892 -58.095 -58.088 -52.153 -52.151 -52.149 -52.145
-52.144 -52.142 -10.239 -10.211 -10.184  -7.834  -7.821  -5.780
 -5.775  -5.767  -5.766  -5.763  -5.753  -2.116  -2.113  -2.106
 -2.101  -2.101  -2.101  -2.100  -2.092  -2.089  -2.087  -0.878
 -0.762  -0.698  -0.642  -0.579  -0.486  -0.466  -0.439  -0.401
 -0.376  -0.365  -0.362  -0.344  -0.313  -0.239  -0.210
 -- Virtual --
 -0.021   0.037   0.045   0.083   0.104   0.113   0.146   0.152
  0.164   0.166   0.180   0.212   0.227   0.256   0.274   0.293
  0.305   0.315   0.347   0.383   0.453   0.484   0.492   0.502
  0.515   0.556   0.600   0.620   0.633   0.650   0.671   0.687
  0.723   0.743   0.782   0.824   0.839   0.862   0.873   0.890
  0.915   0.931   0.954   0.993   1.044   1.053   1.124   1.199
  1.361   1.396   1.500   1.548   1.608   1.636   1.688   1.726
  1.760   1.815   1.864   1.962   2.024   2.050   2.062   2.078
  2.082   2.096   2.117   2.119   2.156   2.241   2.279   2.315
  2.356   2.449   2.513   2.535   2.594   2.616   2.629   2.701
  2.723   2.755   2.821   2.882   2.899   3.185   3.265   3.310
  3.403   3.460   3.525   4.159   4.271   4.280   4.318   4.342
  4.384   4.391   4.408   4.415   4.463   4.513   4.575   4.649
  5.476   5.492  89.814  89.900
 --------------------------------------------------------------
 
          Ground-State Mulliken Net Atomic Charges

     Atom                 Charge (a.u.)    Spin (a.u.)
  --------------------------------------------------------
      1 C                    -0.148737      -0.000000
      2 H                     0.140378      -0.000000
      3 C                    -0.222553      -0.000000
      4 H                     0.128516       0.000000
      5 H                     0.124989      -0.000000
      6 C                    -0.325115       0.000000
      7 H                     0.108040      -0.000000
      8 H                     0.142104      -0.000000
      9 H                     0.106887      -0.000000
     10 Se                   -0.064192       0.000000
     11 H                     0.052610      -0.000000
     12 Se                   -0.103671       0.000000
     13 H                     0.060744      -0.000000
  --------------------------------------------------------
  Sum of atomic charges =    -0.000000
  Sum of spin   charges =     0.000000

 -----------------------------------------------------------------
                    Cartesian Multipole Moments
 -----------------------------------------------------------------
    Charge (ESU x 10^10)
                 0.0000
    Dipole Moment (Debye)
         X       0.0516      Y       1.2127      Z      -0.2474
       Tot       1.2387
    Quadrupole Moments (Debye-Ang)
        XX     -61.7516     XY       2.3255     YY     -56.0973
        XZ       1.5303     YZ       0.0402     ZZ     -55.0687
    Octopole Moments (Debye-Ang^2)
       XXX     -35.9535    XXY     -20.5187    XYY     -10.5320
       YYY     -40.9510    XXZ       1.4571    XYZ      -3.2395
       YYZ       3.1682    XZZ      -6.9278    YZZ     -16.7262
       ZZZ       1.3251
    Hexadecapole Moments (Debye-Ang^3)
      XXXX    -699.5509   XXXY     -15.3439   XXYY    -210.1496
      XYYY     -21.8923   YYYY    -603.0106   XXXZ      -1.2063
      XXYZ       1.6727   XYYZ       4.3204   YYYZ      -1.3119
      XXZZ    -133.5246   XYZZ      -9.3085   YYZZ    -117.2790
      XZZZ       0.5097   YZZZ      -4.5323   ZZZZ    -106.1278
 -----------------------------------------------------------------
 Calculating analytic gradient of the SCF energy
 Gradient of SCF Energy
            1           2           3           4           5           6
    1  -0.2770739  -0.0133337  -0.0143669   0.0004672   0.0017674   0.0023829
    2  -0.0870821  -0.0009532  -0.0047054   0.0003862  -0.0009390   0.0009870
    3   0.0783757   0.0008392   0.0040572  -0.0017349  -0.0001729  -0.0005268
            7           8           9          10          11          12
    1   0.0005299  -0.0000684  -0.0001492   0.3082888   0.0035262  -0.0130674
    2   0.0000842  -0.0000361  -0.0001325   0.0845412   0.0036982   0.0028345
    3   0.0000354   0.0001309  -0.0001642  -0.0830684   0.0017738   0.0034264
           13
    1   0.0010970
    2   0.0013170
    3  -0.0029712
 Max gradient component =       3.083E-01
 RMS gradient           =       7.166E-02
 Gradient time:  CPU 21.11 s  wall 1.78 s
 Geometry Optimization Parameters
   NAtoms,    NIC,     NZ,  NCons,   NDum,   NFix, NCnnct, MaxDiis
       13      82       0       1       0       0       0       0

 Cartesian Hessian Update
 Hessian Updated using BFGS Update


** CONSTRAINED OPTIMIZATION IN DELOCALIZED INTERNAL COORDINATES **
   Searching for a Minimum

   Optimization Cycle:   4

                       Coordinates (Angstroms)
     ATOM                X               Y               Z
      1  C        -0.0521023357    0.4820183075   -0.3737272263
      2  H         0.0450515624    0.6455457832   -1.4510966111
      3  C         0.2939152404    1.8215300415    0.3372000141
      4  H        -0.5170308107    2.5309804130    0.1275383637
      5  H         0.3168347241    1.6448978937    1.4187321554
      6  C         1.6203051996    2.4532038119   -0.1130124614
      7  H         1.7931978434    3.3968988325    0.4138479992
      8  H         2.4620783312    1.7870192498    0.0903051362
      9  H         1.6068366399    2.6665130830   -1.1875361524
     10  Se       -1.5168796787    0.0831561400    0.0091475272
     11  H        -1.6279042439   -1.1477502525   -0.7826126156
     12  Se        1.3562137072   -0.9382062016   -0.0251508447
     13  H         1.0516838209   -0.9769071021    1.4098647156
   Point Group: c1    Number of degrees of freedom:    33


   Energy is  -4921.634855792

              Constraints and their Current Values
                                        Value     Constraint
   Distance(Angs):        1  10             1.565649     1.400000
 Hessian Updated using BFGS Update
**WARNING** Constraint Gradient Reduced for constraint   1

   Using Lagrange Multiplier Algorithm


 33 Hessian modes will be used to form the next step
  Hessian Eigenvalues:
    -0.691816    0.106972    0.107285    0.107351    0.107357    0.169488
     0.183120    0.193792    0.202644    0.202682    0.208055    0.236202
     0.258723    0.306706    0.318883    0.345137    0.372069    0.381461
     0.381484    0.384436    0.394570    0.460533    0.502402    0.520082
     0.697302    0.701924    0.828681    0.829909    0.829980    0.830035
     0.830133    0.830201    1.479526

 Minimum Search - Taking P-RFO Step
 Searching for Lamda that Maximizes Along the Constraint modes Only
 Value Taken    Lamda =   0.10029017
 Searching for Lamda that Minimizes Along All other modes
 Value Taken    Lamda =  -0.02159258
 Calculated Step too Large.  Step scaled by  0.808842
 Step Taken.  Stepsize is  0.300000

                             Maximum     Tolerance    Cnvgd?
         Gradient            0.300000       0.000300      NO
         Displacement        0.220486       0.001200      NO
         Energy change      0.055824       0.000001      NO


 New Cartesian Coordinates Obtained by Inverse Iteration

 Displacement from previous Coordinates is:  0.209663
 ----------------------------------------------------------------
             Standard Nuclear Orientation (Angstroms)
    I     Atom           X                Y                Z
 ----------------------------------------------------------------
    1      C      -0.1008972396     0.4727884752    -0.3555081353
    2      H       0.0614836082     0.6456404814    -1.4269952629
    3      C       0.2816469390     1.8241740810     0.3390732340
    4      H      -0.5230975139     2.5418301157     0.1278177634
    5      H       0.2964992857     1.6609728821     1.4240039806
    6      C       1.6103802087     2.4395140056    -0.1151670773
    7      H       1.7906099765     3.3869821601     0.4035881712
    8      H       2.4507388981     1.7713779607     0.0912850598
    9      H       1.6033610511     2.6477224301    -1.1916266165
   10      Se     -1.4605697744     0.1063572908    -0.0080963345
   11      H      -1.6319352532    -1.1264452279    -0.7836897081
   12      Se      1.3882790930    -0.9260173488    -0.0282747962
   13      H       1.0657007207    -0.9959973060     1.3970897220
 ----------------------------------------------------------------
 Nuclear Repulsion Energy =   647.5704539120 hartrees
 There are       47 alpha and       47 beta electrons

                       Distance Matrix (Angstroms)
             C (  1)   H (  2)   C (  3)   H (  4)   H (  5)   C (  6)
   H (  2)  1.097420
   C (  3)  1.566852  2.134575
   H (  4)  2.166285  2.520856  1.098760
   H (  5)  2.176320  3.035511  1.097237  1.768544
   C (  6)  2.618061  2.708866  1.533137  2.149706  2.168284
   H (  7)  3.556199  3.722347  2.173362  2.478623  2.500545  1.095119
   H (  8)  2.897724  3.046474  2.183838  3.072236  2.535563  1.093266
   H (  9)  2.886854  2.537935  2.183621  2.504790  3.085950  1.096433
   Se( 10)  1.450406  2.149592  2.471182  2.613208  2.748642  3.858214
   H ( 11)  2.254987  2.534127  3.691686  3.939113  4.045055  4.865758
   Se( 12)  2.069151  2.487351  2.987161  3.962788  3.161268  3.373971
   H ( 13)  2.567076  3.417438  3.112476  4.080632  2.766204  3.792932
             H (  7)   H (  8)   H (  9)   Se( 10)   H ( 11)   Se( 12)
   H (  8)  1.772986
   H (  9)  1.768128  1.769715
   Se( 10)  4.637041  4.252118  4.152945
   H ( 11)  5.787441  5.082439  4.987775  1.466531
   Se( 12)  4.353199  2.901561  3.764474  3.030205  3.119698
[...]
   H (  8)  2.901155  2.858532  2.176515  3.068708  2.516977  1.091884
   H (  9)  2.848009  2.433569  2.178218  2.516051  3.083372  1.095645
   Se( 10)  1.400000  2.186760  2.517555  2.683951  2.841762  3.854490
   H ( 11)  2.282719  2.508733  3.751186  3.970866  4.202018  4.841918
   Se( 12)  2.355451  2.578932  3.098582  4.120982  3.150919  3.420681
   H ( 13)  2.774888  3.439519  3.466201  4.378264  3.125665  4.234658
             H (  7)   H (  8)   H (  9)   Se( 10)   H ( 11)   Se( 12)
   H (  8)  1.772223
   H (  9)  1.767504  1.777672
   Se( 10)  4.654852  4.242742  4.099921
   H ( 11)  5.778115  5.098896  4.856174  1.489761
   Se( 12)  4.360133  2.866130  3.876795  3.230071  3.550000
   H ( 13)  5.027577  3.833628  4.884676  3.082280  3.557945  1.478158

 
 Applying Cartesian multipole field
    Component          Value
    ---------          -----
     (2,0,0)        1.00000E-11
     (0,2,0)        2.00000E-11
     (0,0,2)       -3.00000E-11
 Nucleus-field energy     =     0.0000000144 hartrees
 Requested basis set is 6-31G(d,p)
 There are 52 shells and 155 basis functions
 A cutoff of  1.0D-14 yielded   1254 shell pairs
 There are     11223 function pairs
 Smallest overlap matrix eigenvalue = 6.71E-04
 Guess from superposition of atomic densities
 Warning:  Energy on first SCF cycle will be non-variational
 SAD guess density has 93.936381 electrons

 -----------------------------------------------------------------------
  General SCF calculation program by
  Eric Jon Sundstrom, Paul Horn, Yuezhi Mao, Dmitri Zuev, Alec White,
  David Stuck, Shaama M.S., Shane Yost, Joonho Lee, David Small,
  Daniel Levine, Susi Lehtola, Hugh Burton, Evgeny Epifanovsky
 -----------------------------------------------------------------------
 Exchange:     0.2000 Hartree-Fock + 0.0800 Slater + 0.7200 B88
 Correlation:  0.1900 VWN1RPA + 0.8100 LYP
 Using SG-1 standard quadrature grid
 using 12 threads for integral computing
 -------------------------------------------------------
 OpenMP Integral computing Module                
 Release: version 1.0, May 2013, Q-Chem Inc. Pittsburgh 
 -------------------------------------------------------
 -------------------------------------------------------
 OpenMP BLAS3 based DFT computing Module                
 Release: version 1.0, May 2013, Q-Chem Inc. Pittsburgh 
 -------------------------------------------------------
 A unrestricted SCF calculation will be
 performed using DIIS
 SCF converges when DIIS error is below 1.0e-06
 Alpha HF Exchange    Energy = -18.93230410557762
 Beta HF Exchange     Energy = -18.93230410557762
 DFT Correlation      Energy =  -5.15662801145893
 DFT Exchange         Energy = -150.04105079256860
 One-Electron (alpha) Energy = -4043.64335750388500
 One-Electron (beta)  Energy = -4043.64335750388500
 Total Coulomb        Energy = 2724.88125054572674
 ---------------------------------------
  Cycle       Energy         DIIS error
 ---------------------------------------
    1   -4928.7164594986      1.55e-01  
 Alpha HF Exchange    Energy = -19.00308550230576
 Beta HF Exchange     Energy = -19.00308550230578
 DFT Correlation      Energy =  -5.21478024269206
 DFT Exchange         Energy = -151.29876528753235
 One-Electron (alpha) Energy = -4055.64346102947638
 One-Electron (beta)  Energy = -4055.64346102947957
 Total Coulomb        Energy = 2757.76584667890620
    2   -4921.2894999363      9.58e-03  
 Alpha HF Exchange    Energy = -18.84575467122412
 Beta HF Exchange     Energy = -18.84575467122414
 DFT Correlation      Energy =  -5.16266630414248
 DFT Exchange         Energy = -150.03152034195517
 One-Electron (alpha) Energy = -4036.77717229103337
 One-Electron (beta)  Energy = -4036.77717229103519
 Total Coulomb        Energy = 2718.48522933378763
    3   -4921.2035192582      5.04e-03  
 Alpha HF Exchange    Energy = -18.97839890446015
 Beta HF Exchange     Energy = -18.97839890446013
 DFT Correlation      Energy =  -5.20738497508695
 DFT Exchange         Energy = -151.09256257231584
 One-Electron (alpha) Energy = -4052.92609246838811
 One-Electron (beta)  Energy = -4052.92609246838583
 Total Coulomb        Energy = 2752.04146133419090
    4   -4921.3161769803      3.82e-03  
 Alpha HF Exchange    Energy = -18.93549526034783
 Beta HF Exchange     Energy = -18.93549526034786
 DFT Correlation      Energy =  -5.19176507759279
 DFT Exchange         Energy = -150.74635672876150
 One-Electron (alpha) Energy = -4047.73994124473484
 One-Electron (beta)  Energy = -4047.73994124473666
 Total Coulomb        Energy = 2741.05238500292626
    5   -4921.4853178350      7.56e-04  
 Alpha HF Exchange    Energy = -18.92759600984972
 Beta HF Exchange     Energy = -18.92759600984970
 DFT Correlation      Energy =  -5.19033361297786
 DFT Exchange         Energy = -150.68516302397435
 One-Electron (alpha) Energy = -4046.98383315755109
 One-Electron (beta)  Energy = -4046.98383315755109
 Total Coulomb        Energy = 2739.45632080910354
    6   -4921.4907421840      1.33e-04  
 Alpha HF Exchange    Energy = -18.92785668378290
 Beta HF Exchange     Energy = -18.92785668378287
 DFT Correlation      Energy =  -5.19024655370114
 DFT Exchange         Energy = -150.68718218468538
 One-Electron (alpha) Energy = -4046.94274817937276
 One-Electron (beta)  Energy = -4046.94274817937048
 Total Coulomb        Energy = 2739.37655011504739
    7   -4921.4907963710      8.98e-05  
 Alpha HF Exchange    Energy = -18.92819592849447
 Beta HF Exchange     Energy = -18.92819592849448
 DFT Correlation      Energy =  -5.19022977600952
 DFT Exchange         Energy = -150.68927460987726
 One-Electron (alpha) Energy = -4046.98088745108043
 One-Electron (beta)  Energy = -4046.98088745108134
 Total Coulomb        Energy = 2739.45548223620790
    8   -4921.4908969302      2.81e-05  
 Alpha HF Exchange    Energy = -18.92835024478637
 Beta HF Exchange     Energy = -18.92835024478637
 DFT Correlation      Energy =  -5.19032225485850
 DFT Exchange         Energy = -150.69064868750337
 One-Electron (alpha) Energy = -4047.01100704749433
 One-Electron (beta)  Energy = -4047.01100704749524
 Total Coulomb        Energy = 2739.51748558151212
    9   -4921.4909079668      5.15e-06  
 Alpha HF Exchange    Energy = -18.92834760048289
 Beta HF Exchange     Energy = -18.92834760048288
 DFT Correlation      Energy =  -5.19033112897427
 DFT Exchange         Energy = -150.69063111026196
 One-Electron (alpha) Energy = -4047.00894409526518
 One-Electron (beta)  Energy = -4047.00894409526381
 Total Coulomb        Energy = 2739.51334535766546
   10   -4921.4909082944      1.47e-06  
 Alpha HF Exchange    Energy = -18.92835105292081
 Beta HF Exchange     Energy = -18.92835105292081
 DFT Correlation      Energy =  -5.19033003663039
 DFT Exchange         Energy = -150.69065180222927
 One-Electron (alpha) Energy = -4047.00969227751966
 One-Electron (beta)  Energy = -4047.00969227752012
 Total Coulomb        Energy = 2739.51486820139280
   11   -4921.4909083197      2.69e-07  Convergence criterion met
 ---------------------------------------
 SCF time:   CPU 56.08s  wall 5.00s 
<S^2> =         -0.000000000
 Alpha HF Exchange    Energy = -18.92835105292081
 Beta HF Exchange     Energy = -18.92835105292081
 DFT Correlation      Energy =  -5.19033003663039
 DFT Exchange         Energy = -150.69065180222927
 One-Electron (alpha) Energy = -4047.00969227751966
 One-Electron (beta)  Energy = -4047.00969227752012
 Total Coulomb        Energy = 2739.51486820139280
 Nuclear repulsion Energy = 626.75129197861565
 SCF   energy in the final basis set =    -4921.4909083197
 Total energy in the final basis set =    -4921.4909083197
 
 --------------------------------------------------------------
 
                    Orbital Energies (a.u.)
 --------------------------------------------------------------
 
 Alpha MOs
 -- Occupied --
*******-453.858 -58.129 -58.054 -52.185 -52.183 -52.183 -52.111
-52.110 -52.108 -10.245 -10.220 -10.187  -7.872  -7.787  -5.819
 -5.811  -5.806  -5.732  -5.728  -5.720  -2.157  -2.151  -2.145
 -2.140  -2.140  -2.065  -2.065  -2.058  -2.055  -2.053  -0.918
 -0.776  -0.660  -0.648  -0.584  -0.514  -0.472  -0.448  -0.402
 -0.380  -0.374  -0.351  -0.342  -0.322  -0.214  -0.202
 -- Virtual --
 -0.049   0.000   0.053   0.085   0.099   0.111   0.146   0.149
  0.159   0.168   0.183   0.200   0.225   0.243   0.294   0.299
  0.301   0.327   0.366   0.412   0.448   0.491   0.511   0.515
  0.545   0.550   0.581   0.611   0.633   0.641   0.651   0.683
  0.701   0.716   0.758   0.787   0.836   0.848   0.870   0.896
  0.910   0.921   0.946   0.976   1.029   1.036   1.114   1.322
  1.366   1.378   1.466   1.532   1.600   1.640   1.702   1.713
  1.752   1.810   1.859   1.950   2.018   2.045   2.058   2.072
  2.095   2.101   2.112   2.121   2.155   2.238   2.256   2.319
  2.362   2.440   2.488   2.533   2.556   2.616   2.635   2.690
  2.718   2.745   2.828   2.876   2.896   3.186   3.275   3.292
  3.392   3.456   3.520   4.154   4.242   4.306   4.310   4.343
  4.355   4.367   4.376   4.416   4.460   4.498   4.601   4.720
  5.451   5.506  89.784  89.903
 
 Beta MOs
 -- Occupied --
*******-453.858 -58.129 -58.054 -52.185 -52.183 -52.183 -52.111
-52.110 -52.108 -10.245 -10.220 -10.187  -7.872  -7.787  -5.819
 -5.811  -5.806  -5.732  -5.728  -5.720  -2.157  -2.151  -2.145
 -2.140  -2.140  -2.065  -2.065  -2.058  -2.055  -2.053  -0.918
 -0.776  -0.660  -0.648  -0.584  -0.514  -0.472  -0.448  -0.402
 -0.380  -0.374  -0.351  -0.342  -0.322  -0.214  -0.202
 -- Virtual --
 -0.049   0.000   0.053   0.085   0.099   0.111   0.146   0.149
  0.159   0.168   0.183   0.200   0.225   0.243   0.294   0.299
  0.301   0.327   0.366   0.412   0.448   0.491   0.511   0.515
  0.545   0.550   0.581   0.611   0.633   0.641   0.651   0.683
  0.701   0.716   0.758   0.787   0.836   0.848   0.870   0.896
  0.910   0.921   0.946   0.976   1.029   1.036   1.114   1.322
  1.366   1.378   1.466   1.532   1.600   1.640   1.702   1.713
  1.752   1.810   1.859   1.950   2.018   2.045   2.058   2.072
  2.095   2.101   2.112   2.121   2.155   2.238   2.256   2.319
  2.362   2.440   2.488   2.533   2.556   2.616   2.635   2.690
  2.718   2.745   2.828   2.876   2.896   3.186   3.275   3.292
  3.392   3.456   3.520   4.154   4.242   4.306   4.310   4.343
  4.355   4.367   4.376   4.416   4.460   4.498   4.601   4.720
  5.451   5.506  89.784  89.903
 --------------------------------------------------------------
 
          Ground-State Mulliken Net Atomic Charges

     Atom                 Charge (a.u.)    Spin (a.u.)
  --------------------------------------------------------
      1 C                    -0.123752      -0.000000
      2 H                     0.156023       0.000000
      3 C                    -0.219935      -0.000000
      4 H                     0.119597      -0.000000
      5 H                     0.141025       0.000000
      6 C                    -0.329085       0.000000
      7 H                     0.111571      -0.000000
      8 H                     0.154199      -0.000000
      9 H                     0.105093      -0.000000
     10 Se                    0.085500       0.000000
     11 H                     0.053342      -0.000000
     12 Se                   -0.296333       0.000000
     13 H                     0.042755       0.000000
  --------------------------------------------------------
  Sum of atomic charges =    -0.000000
  Sum of spin   charges =     0.000000

 -----------------------------------------------------------------
                    Cartesian Multipole Moments
 -----------------------------------------------------------------
    Charge (ESU x 10^10)
                -0.0000
    Dipole Moment (Debye)
         X      -2.3716      Y       2.1524      Z      -0.8188
       Tot       3.3057
    Quadrupole Moments (Debye-Ang)
        XX     -62.5709     XY       4.6612     YY     -56.3634
        XZ       0.2183     YZ      -0.3471     ZZ     -55.1967
    Octopole Moments (Debye-Ang^2)
       XXX     -64.0773    XXY     -14.6315    XYY     -19.6818
       YYY     -39.1454    XXZ      -9.0388    XYZ      -2.9885
       YYZ       0.3791    XZZ     -17.4053    YZZ     -16.2817
       ZZZ     -12.1421
    Hexadecapole Moments (Debye-Ang^3)
      XXXX    -764.9547   XXXY      10.1496   XXYY    -228.7865
      XYYY       3.9762   YYYY    -617.0507   XXXZ     -27.0043
      XXYZ       6.6220   XYYZ      -0.4709   YYYZ      12.9274
      XXZZ    -146.1745   XYZZ      -1.8664   YYZZ    -120.5382
      XZZZ     -19.8955   YZZZ      10.2658   ZZZZ    -114.0588
 -----------------------------------------------------------------
 Calculating analytic gradient of the SCF energy
 Gradient of SCF Energy
            1           2           3           4           5           6
    1  -0.6224886  -0.0001514  -0.0001788   0.0000255   0.0000553   0.0000987
    2  -0.2220174   0.0000152  -0.0000688   0.0000095   0.0001107   0.0000904
    3   0.1567798   0.0001191   0.0000198   0.0000011   0.0000052  -0.0000123
            7           8           9          10          11          12
    1   0.0000168   0.0000034   0.0000703   0.6226350  -0.0000275  -0.0000509
    2  -0.0000173  -0.0000687  -0.0000704   0.2220116   0.0000011  -0.0000289
    3  -0.0000399  -0.0000287  -0.0000506  -0.1569914   0.0000422   0.0001178
           13
    1  -0.0000077
    2   0.0000330
    3   0.0000378
 Max gradient component =       6.226E-01
 RMS gradient           =       1.538E-01
 Gradient time:  CPU 20.84 s  wall 1.86 s
 Geometry Optimization Parameters
   NAtoms,    NIC,     NZ,  NCons,   NDum,   NFix, NCnnct, MaxDiis
       13      82       0       1       0       0       0       0

 Cartesian Hessian Update
 Hessian Updated using BFGS Update


** CONSTRAINED OPTIMIZATION IN DELOCALIZED INTERNAL COORDINATES **
   Searching for a Minimum

   Optimization Cycle:  32

                       Coordinates (Angstroms)
     ATOM                X               Y               Z
      1  C        -0.1517029129    0.5282775694   -0.3082710629
      2  H         0.2106723018    0.5797252747   -1.3322555065
      3  C         0.2888253763    1.8699932819    0.3767587060
      4  H        -0.5332345631    2.5883302675    0.2465043646
      5  H         0.3953835673    1.7017446686    1.4527905280
      6  C         1.5673491547    2.4791309883   -0.1970517476
      7  H         1.7645405614    3.4412760110    0.2852269655
      8  H         2.4270110991    1.8275878846   -0.0276907870
      9  H         1.4707063607    2.6608509783   -1.2731914959
     10  Se       -1.4347392856    0.0709141244    0.0152050417
     11  H        -1.7068551709   -1.0000110787   -0.9840244658
     12  Se        1.6344478513   -0.9163058085    0.2122979090
     13  H         0.8997956598   -1.3826141615    1.4072015509
   Point Group: c1    Number of degrees of freedom:    33


   Energy is  -4921.490908320

              Constraints and their Current Values
                                        Value     Constraint
   Distance(Angs):        1  10             1.400000     1.400000
 Hessian Updated using BFGS Update

 32 Hessian modes will be used to form the next step
  Hessian Eigenvalues:
     0.003678    0.007703    0.019216    0.054640    0.083021    0.106990
     0.111448    0.165390    0.171623    0.187589    0.202042    0.207693
     0.249177    0.261318    0.298802    0.313869    0.346643    0.369738
     0.379389    0.381122    0.387678    0.399820    0.482473    0.501198
     0.566844    0.682460    0.780941    0.825978    0.828430    0.829387
     0.829899    0.830203

 Minimum Search - Taking Simple RFO Step
 Searching for Lamda that Minimizes Along All modes
 Value Taken    Lamda =   0.00000000
 Step Taken.  Stepsize is  0.003518

                             Maximum     Tolerance    Cnvgd?
         Gradient           0.000151      0.000300     YES
         Displacement       0.001485      0.001200      NO
         Energy change     -0.000001      0.000001     YES


                       Distance Matrix (Angstroms)
             C (  1)   H (  2)   C (  3)   H (  4)   H (  5)   C (  6)
   H (  2)  1.087431
   C (  3)  1.569564  2.142809
   H (  4)  2.167293  2.660897  1.099435
   H (  5)  2.185787  3.008243  1.094307  1.761673
   C (  6)  2.602564  2.595573  1.528048  2.149679  2.167905
   H (  7)  3.536918  3.635826  2.157555  2.451283  2.502751  1.094166
   H (  8)  2.901155  2.858532  2.176515  3.068708  2.516977  1.091884
   H (  9)  2.848009  2.433569  2.178218  2.516051  3.083372  1.095645
   Se( 10)  1.400000  2.186760  2.517555  2.683951  2.841762  3.854490
   H ( 11)  2.282719  2.508733  3.751186  3.970866  4.202018  4.841918
   Se( 12)  2.355451  2.578932  3.098582  4.120982  3.150919  3.420681
   H ( 13)  2.774888  3.439519  3.466201  4.378264  3.125665  4.234658
             H (  7)   H (  8)   H (  9)   Se( 10)   H ( 11)   Se( 12)
   H (  8)  1.772223
   H (  9)  1.767504  1.777672
   Se( 10)  4.654852  4.242742  4.099921
   H ( 11)  5.778115  5.098896  4.856174  1.489761
   Se( 12)  4.360133  2.866130  3.876795  3.230071  3.550000
   H ( 13)  5.027577  3.833628  4.884676  3.082280  3.557945  1.478158

 
 Final energy is   -4921.49090831973     


 ******************************
 **  OPTIMIZATION CONVERGED  **
 ******************************

                       Coordinates (Angstroms)
     ATOM                X               Y               Z
      1  C        -0.1517029129    0.5282775694   -0.3082710629
      2  H         0.2106723018    0.5797252747   -1.3322555065
      3  C         0.2888253763    1.8699932819    0.3767587060
      4  H        -0.5332345631    2.5883302675    0.2465043646
      5  H         0.3953835673    1.7017446686    1.4527905280
      6  C         1.5673491547    2.4791309883   -0.1970517476
      7  H         1.7645405614    3.4412760110    0.2852269655
      8  H         2.4270110991    1.8275878846   -0.0276907870
      9  H         1.4707063607    2.6608509783   -1.2731914959
     10  Se       -1.4347392856    0.0709141244    0.0152050417
     11  H        -1.7068551709   -1.0000110787   -0.9840244658
     12  Se        1.6344478513   -0.9163058085    0.2122979090
     13  H         0.8997956598   -1.3826141615    1.4072015509

Z-matrix Print:
$molecule
0 1
Se
C  1 1.400000
H  2 1.087431 1 122.576710
H  1 1.489761 2 104.315662 3 34.876147 0
C  2 1.569564 1 115.826132 3 132.411007 0
H  5 1.094307 2 108.969067 1 67.205517 0
H  5 1.099435 2 107.274797 1 -48.120242 0
C  5 1.528048 2 114.312448 1 -168.716831 0
H  8 1.091884 5 111.262074 2 -64.118627 0
H  8 1.094166 5 109.621889 2 176.082675 0
H  8 1.095645 5 111.170685 2 57.200499 0
Se 2 2.355451 1 116.329458 3 -107.192531 0
H  12 1.478158 2 89.727674 1 -33.978513 0
$end

PES scan, value:    1.4000 energy: -4921.4909083197
------- Summary of potential scan: ------ 
    1.4000     -4921.4909083197
----------------------------------------- 
Archival summary:
1\1\hpc0248\JobtypUnspecified\ProcedureUnspecified\6-31G**\e238\knomura\WedMar1319:43:422019WedMar1319:43:422019\0\\#,JobtypUnspecified,ProcedureUnspecified,6-31G**,\\0,1\Se\C,1,1.4\H,2,1.08743,1,122.577\H,1,1.48976,2,104.316,3,34.8761,0\C,2,1.56956,1,115.826,3,132.411,0\H,5,1.09431,2,108.969,1,67.2055,0\H,5,1.09943,2,107.275,1,-48.1202,0\C,5,1.52805,2,114.312,1,-168.717,0\H,8,1.09188,5,111.262,2,-64.1186,0\H,8,1.09417,5,109.622,2,176.083,0\H,8,1.09565,5,111.171,2,57.2005,0\Se,2,2.35545,1,116.329,3,-107.193,0\H,12,1.47816,2,89.7277,1,-33.9785,0\\\@

 Total job time:  217.43s(wall), 2565.85s(cpu) 
 Wed Mar 13 19:43:42 2019

        *************************************************************
        *                                                           *
        *  Thank you very much for using Q-Chem.  Have a nice day.  *
        *                                                           *
        *************************************************************


