
Running Job 1 of 1 halogens/Bromine/02/Br_3.xyz.data/inputs/bond_singlet_2.3.in
qchem halogens/Bromine/02/Br_3.xyz.data/inputs/bond_singlet_2.3.in_25407.0 /staging/scratch/2868759/qchem25407/ 1
/usr/usc/qchem/5.1.1/exe/qcprog.exe_s halogens/Bromine/02/Br_3.xyz.data/inputs/bond_singlet_2.3.in_25407.0 /staging/scratch/2868759/qchem25407/
Check license passed

                  Welcome to Q-Chem
     A Quantum Leap Into The Future Of Chemistry


 Q-Chem 5.1, Q-Chem, Inc., Pleasanton, CA (2018)

 Yihan Shao,  Zhengting Gan,  E. Epifanovsky,  A. T. B. Gilbert,  M. Wormit,  
 J. Kussmann,  A. W. Lange,  A. Behn,  Jia Deng,  Xintian Feng,  D. Ghosh,  
 M. Goldey,  P. R. Horn,  L. D. Jacobson,  I. Kaliman,  T. Kus,  A. Landau,  
 Jie Liu,  E. I. Proynov,  R. M. Richard,  R. P. Steele,  E. J. Sundstrom,  
 H. L. Woodcock III,  P. M. Zimmerman,  D. Zuev,  B. Albrecht,  E. Alguire,  
 S. A. Baeppler,  D. Barton,  Z. Benda,  Y. A. Bernard,  E. J. Berquist,  
 K. B. Bravaya,  H. Burton,  D. Casanova,  Chun-Min Chang,  Yunqing Chen,  
 A. Chien,  K. D. Closser,  M. P. Coons,  S. Coriani,  S. Dasgupta,  
 A. L. Dempwolff,  M. Diedenhofen,  Hainam Do,  R. G. Edgar,  Po-Tung Fang,  
 S. Faraji,  S. Fatehi,  Qingguo Feng,  K. D. Fenk,  J. Fosso-Tande,  
 Qinghui Ge,  A. Ghysels,  G. Gidofalvi,  J. Gomes,  J. Gonthier,  A. Gunina,  
 D. Hait,  M. W. D. Hanson-Heine,  P. H. P. Harbach,  A. W. Hauser,  
 J. E. Herr,  E. G. Hohenstein,  Z. C. Holden,  Kerwin Hui,  B. C. Huynh,  
 T.-C. Jagau,  Hyunjun Ji,  B. Kaduk,  K. Khistyaev,  Jaehoon Kim,  
 P. Klunzinger,  K. Koh,  D. Kosenkov,  L. Koulias,  T. Kowalczyk,  
 C. M. Krauter,  A. Kunitsa,  Ka Un Lao,  A. Laurent,  K. V. Lawler,  
 Joonho Lee,  D. Lefrancois,  S. Lehtola,  D. S. Levine,  Yi-Pei Li,  
 You-Sheng Lin,  Fenglai Liu,  E. Livshits,  A. Luenser,  P. Manohar,  
 E. Mansoor,  S. F. Manzer,  Shan-Ping Mao,  Yuezhi Mao,  N. Mardirossian,  
 A. V. Marenich,  T. Markovich,  L. A. Martinez-Martinez,  S. A. Maurer,  
 N. J. Mayhall,  S. C. McKenzie,  J.-M. Mewes,  A. F. Morrison,  
 J. W. Mullinax,  K. Nanda,  T. S. Nguyen-Beck,  R. Olivares-Amaya,  
 J. A. Parkhill,  T. M. Perrine,  F. Plasser,  P. Pokhilko,  S. Prager,  
 A. Prociuk,  E. Ramos,  D. R. Rehn,  F. Rob,  M. Schneider,  N. Sergueev,  
 S. M. Sharada,  S. Sharma,  D. W. Small,  T. Stauch,  T. Stein,  
 Yu-Chuan Su,  A. J. W. Thom,  A. Tkatchenko,  T. Tsuchimochi,  N. M. Tubman,  
 L. Vogt,  M. L. Vidal,  O. Vydrov,  M. A. Watson,  J. Wenzel,  
 M. de Wergifosse,  T. A. Wesolowski,  A. White,  J. Witte,  A. Yamada,  
 Jun Yang,  K. Yao,  S. Yeganeh,  S. R. Yost,  Zhi-Qiang You,  A. Zech,  
 Igor Ying Zhang,  Xing Zhang,  Yan Zhao,  Ying Zhu,  B. R. Brooks,  
 G. K. L. Chan,  C. J. Cramer,  M. S. Gordon,  W. J. Hehre,  A. Klamt,  
 M. W. Schmidt,  C. D. Sherrill,  D. G. Truhlar,  A. Aspuru-Guzik,  R. Baer,  
 A. T. Bell,  N. A. Besley,  Jeng-Da Chai,  A. E. DePrince, III,  
 R. A. DiStasio Jr.,  A. Dreuw,  B. D. Dunietz,  T. R. Furlani,  
 Chao-Ping Hsu,  Yousung Jung,  Jing Kong,  D. S. Lambrecht,  WanZhen Liang,  
 C. Ochsenfeld,  V. A. Rassolov,  L. V. Slipchenko,  J. E. Subotnik,  
 T. Van Voorhis,  J. M. Herbert,  A. I. Krylov,  P. M. W. Gill,  M. Head-Gordon

 Contributors to earlier versions of Q-Chem not listed above: 
 R. D. Adamson,  B. Austin,  J. Baker,  G. J. O. Beran,  K. Brandhorst,  
 S. T. Brown,  E. F. C. Byrd,  A. K. Chakraborty,  C.-L. Cheng,  
 Siu Hung Chien,  D. M. Chipman,  D. L. Crittenden,  H. Dachsel,  
 R. J. Doerksen,  A. D. Dutoi,  L. Fusti-Molnar,  W. A. Goddard III,  
 A. Golubeva-Zadorozhnaya,  S. R. Gwaltney,  G. Hawkins,  A. Heyden,  
 S. Hirata,  G. Kedziora,  F. J. Keil,  C. Kelley,  Jihan Kim,  R. A. King,  
 R. Z. Khaliullin,  P. P. Korambath,  W. Kurlancheek,  A. M. Lee,  M. S. Lee,  
 S. V. Levchenko,  Ching Yeh Lin,  D. Liotard,  R. C. Lochan,  I. Lotan,  
 P. E. Maslen,  N. Nair,  D. P. O'Neill,  D. Neuhauser,  E. Neuscamman,  
 C. M. Oana,  R. Olson,  B. Peters,  R. Peverati,  P. A. Pieniazek,  
 Y. M. Rhee,  J. Ritchie,  M. A. Rohrdanz,  E. Rosta,  N. J. Russ,  
 H. F. Schaefer III,  N. E. Schultz,  N. Shenvi,  A. C. Simmonett,  A. Sodt,  
 D. Stuck,  K. S. Thanthiriwatte,  V. Vanovschi,  Tao Wang,  A. Warshel,  
 C. F. Williams,  Q. Wu,  X. Xu,  W. Zhang

 Please cite Q-Chem as follows:
 Y. Shao et al., Mol. Phys. 113, 184-215 (2015)
 DOI: 10.1080/00268976.2014.952696

 Q-Chem 5.1.1 for Intel X86 EM64T Linux

 Parts of Q-Chem use Armadillo 8.300.2 (Tropical Shenanigans).
 http://arma.sourceforge.net/

 Q-Chem begins on Wed Mar 13 16:12:56 2019  

Host: 
0

     Scratch files written to /staging/scratch/2868759/qchem25407//
 Aug318 |scratch|qcdevops|jenkins|workspace|build_RNUM 6013   
Processing $rem in /usr/usc/qchem/5.1.1/config/preferences.
 MEM_TOTAL  2000 
Input Ideriv = 2
Curr. Ideriv = -1
Max.  Ideriv = 2

Checking the input file for inconsistencies... 	...done.

--------------------------------------------------------------
User input:
--------------------------------------------------------------

$comment
potential surface scanner
$end

$rem
JOBTYPE  PES_SCAN
UNRESTRICTED TRUE
SYM_IGNORE  TRUE
GEOM_OPT_MAX_CYCLES 400
SCF_MAX_CYCLES 400
METHOD   B3LYP
BASIS   6-31G**
PDB_PRINT 2
SCF_CONVERGENCE 6
THRESH 14
SCF_PRINT 1
$end
$molecule
0 1
Br 2.413781 0.200955 0.025433
C -0.637745 0.501200 0.006731
C 0.371870 -0.617640 0.003030
C -2.064396 -0.079968 -0.007387
H -0.495706 1.125841 0.893798
H -0.485106 1.140768 -0.867843
H 0.398321 -1.215511 -0.905191
H 0.384616 -1.234516 0.898740
H -2.801960 0.728018 -0.003752
H -2.240143 -0.689339 -0.900098
H -2.250735 -0.707209 0.870640
$end
$scan
stre 1 3 2.300000 2.301000 0.100000
$end
--------------------------------------------------------------
 ----------------------------------------------------------------
             Standard Nuclear Orientation (Angstroms)
    I     Atom           X                Y                Z
 ----------------------------------------------------------------
    1      Br      2.4137810000     0.2009550000     0.0254330000
    2      C      -0.6377450000     0.5012000000     0.0067310000
    3      C       0.3718700000    -0.6176400000     0.0030300000
    4      C      -2.0643960000    -0.0799680000    -0.0073870000
    5      H      -0.4957060000     1.1258410000     0.8937980000
    6      H      -0.4851060000     1.1407680000    -0.8678430000
    7      H       0.3983210000    -1.2155110000    -0.9051910000
    8      H       0.3846160000    -1.2345160000     0.8987400000
    9      H      -2.8019600000     0.7280180000    -0.0037520000
   10      H      -2.2401430000    -0.6893390000    -0.9000980000
   11      H      -2.2507350000    -0.7072090000     0.8706400000
 ----------------------------------------------------------------
 Nuclear Repulsion Energy =   224.4411347178 hartrees
 There are       30 alpha and       30 beta electrons
 Requested basis set is 6-31G(d,p)
 There are 41 shells and 115 basis functions

 Total QAlloc Memory Limit   2000 MB
 Mega-Array Size       188 MB
 MEM_STATIC part       192 MB
A total of 1 constraints
  
            1
    1   1.0100000
    2   1.0100000
    3   3.0100000
    4   2.3000000
    5   2.3010000
    6   0.1000000
    7   0.0000000
    8   0.0000000
    9   0.0000000
   10   0.0000000

                       Distance Matrix (Angstroms)
             Br(  1)   C (  2)   C (  3)   C (  4)   H (  5)   H (  6)
   C (  2)  3.066318
   C (  3)  2.200000  1.507030
   C (  4)  4.487100  1.540548  2.494913
   H (  5)  3.174049  1.094184  2.141467  2.174143
   H (  6)  3.175647  1.094178  2.141221  2.173646  1.761736
   H (  7)  2.633347  2.202755  1.087665  2.856656  3.085057  2.516722
   H (  8)  2.634531  2.203091  1.087656  2.855119  2.519182  3.085321
   H (  9)  5.242385  2.176093  3.447323  1.094009  2.506525  2.506956
   H ( 10)  4.827861  2.192579  2.764669  1.095058  3.091278  2.535840
   H ( 11)  4.826681  2.192790  2.763843  1.095027  2.537860  3.091082
             H (  7)   H (  8)   H (  9)   H ( 10)
   H (  8)  1.804083
   H (  9)  3.851194  3.849714
   H ( 10)  2.690423  3.228374  1.768608
   H ( 11)  3.229465  2.687735  1.768696  1.770860
 
 A cutoff of  1.0D-14 yielded    804 shell pairs
 There are      6332 function pairs
 
 -------------------------------------------------------
 OpenMP Integral Computing Module                       
 Release: version 1.0, May 2013, Q-Chem Inc. Pittsburgh 
 -------------------------------------------------------
 Integral Job Info:
 Integral job number is                      11
 Integral operator is                         1
 short-range coefficients                     0
 long-range coefficients              100000000
 Omega coefficients                           0
 if combine SR and LR in K                    0
 Integral screening is                        0
 Integral computing path is                   2
 max size of driver memory is            800000
 size of driver memory is                593474
 size of scratch memory is             15267112
 max col of scratch BK array               1296
 max len of scratch array in speh3          155
 max len of scratch index in speh4           18
 max int batch size is                      520
 min int batch size is                       52
 fixed nKL is                                52
 max L of basis functions is                  2
 order of int derivative is                   0
 number of shells is                         41
 number of basis is                         115
 number of cartesian basis is               115
 number of contracted shell pairs           804
 number of primitive shell pairs           3161
 maxK2 (contraction) of shell pair           36
 max number of K2 of shell pair               1
 max number of CS2 of shell pair             57
 max number of PS2 of shell pair            240
 mem total for path MDJ                  518460
 -------------------------------------------------------
 Smallest overlap matrix eigenvalue = 7.24E-04

 Scale SEOQF with 1.000000e-01/1.000000e+00/1.000000e+00

 Standard Electronic Orientation quadrupole field applied
 Nucleus-field energy     =     0.0000000127 hartrees
 Guess from superposition of atomic densities
 Warning:  Energy on first SCF cycle will be non-variational
 SAD guess density has 59.972873 electrons

 -----------------------------------------------------------------------
  General SCF calculation program by
  Eric Jon Sundstrom, Paul Horn, Yuezhi Mao, Dmitri Zuev, Alec White,
  David Stuck, Shaama M.S., Shane Yost, Joonho Lee, David Small,
  Daniel Levine, Susi Lehtola, Hugh Burton, Evgeny Epifanovsky
 -----------------------------------------------------------------------
 Exchange:     0.2000 Hartree-Fock + 0.0800 Slater + 0.7200 B88
 Correlation:  0.1900 VWN1RPA + 0.8100 LYP
 Using SG-1 standard quadrature grid
 using 12 threads for integral computing
 -------------------------------------------------------
 OpenMP Integral computing Module                
 Release: version 1.0, May 2013, Q-Chem Inc. Pittsburgh 
 -------------------------------------------------------
 -------------------------------------------------------
 OpenMP BLAS3 based DFT computing Module                
 Release: version 1.0, May 2013, Q-Chem Inc. Pittsburgh 
 -------------------------------------------------------
 A unrestricted SCF calculation will be
 performed using DIIS
 SCF converges when DIIS error is below 1.0e-06
 Alpha HF Exchange    Energy = -10.73314339644402
 Beta HF Exchange     Energy = -10.73314339644402
 DFT Correlation      Energy =  -3.11967411335930
 DFT Exchange         Energy = -85.01203675741199
 One-Electron (alpha) Energy = -2091.03151514993488
 One-Electron (beta)  Energy = -2091.03151514993488
 Total Coulomb        Energy = 1371.41474622598116
 ---------------------------------------
  Cycle       Energy         DIIS error
 ---------------------------------------
    1   -2695.8051470070      1.64e-01  
 Alpha HF Exchange    Energy = -10.79817419509159
 Beta HF Exchange     Energy = -10.79817419509157
 DFT Correlation      Energy =  -3.15925210851581
 DFT Exchange         Energy = -85.90996698798412
 One-Electron (alpha) Energy = -2098.17987594099395
 One-Electron (beta)  Energy = -2098.17987594099259
 Total Coulomb        Energy = 1390.26056906477970
    2   -2692.3236155734      9.53e-03  
 Alpha HF Exchange    Energy = -10.69969206688477
 Beta HF Exchange     Energy = -10.69969206688477
 DFT Correlation      Energy =  -3.12848059483054
 DFT Exchange         Energy = -85.12182702631991
 One-Electron (alpha) Energy = -2088.31955598293098
 One-Electron (beta)  Energy = -2088.31955598293143
 Total Coulomb        Energy = 1369.51879220404612
    3   -2692.3288767862      4.38e-03  
 Alpha HF Exchange    Energy = -10.77415470373687
 Beta HF Exchange     Energy = -10.77415470373688
 DFT Correlation      Energy =  -3.15042181704815
 DFT Exchange         Energy = -85.70824671198071
 One-Electron (alpha) Energy = -2095.92175208885192
 One-Electron (beta)  Energy = -2095.92175208885192
 Total Coulomb        Energy = 1385.41995007065202
    4   -2692.3893973131      2.79e-03  
 Alpha HF Exchange    Energy = -10.75084138410515
 Beta HF Exchange     Energy = -10.75084138410515
 DFT Correlation      Energy =  -3.14486921951603
 DFT Exchange         Energy = -85.53046001290882
 One-Electron (alpha) Energy = -2093.52235127365338
 One-Electron (beta)  Energy = -2093.52235127365429
 Total Coulomb        Energy = 1380.35454555630008
    5   -2692.4260342611      6.20e-04  
 Alpha HF Exchange    Energy = -10.74836869195594
 Beta HF Exchange     Energy = -10.74836869195597
 DFT Correlation      Energy =  -3.14347199619106
 DFT Exchange         Energy = -85.50758025165297
 One-Electron (alpha) Energy = -2093.39467822066217
 One-Electron (beta)  Energy = -2093.39467822066490
 Total Coulomb        Energy = 1380.06734857906508
    6   -2692.4286627635      1.06e-04  
 Alpha HF Exchange    Energy = -10.74789187530027
 Beta HF Exchange     Energy = -10.74789187530027
 DFT Correlation      Energy =  -3.14346322424067
 DFT Exchange         Energy = -85.50435241504067
 One-Electron (alpha) Energy = -2093.29038583906822
 One-Electron (beta)  Energy = -2093.29038583906822
 Total Coulomb        Energy = 1379.85448318769659
    7   -2692.4287531498      3.84e-05  
 Alpha HF Exchange    Energy = -10.74793675819380
 Beta HF Exchange     Energy = -10.74793675819381
 DFT Correlation      Energy =  -3.14341507807179
 DFT Exchange         Energy = -85.50457263126707
 One-Electron (alpha) Energy = -2093.30756533459635
 One-Electron (beta)  Energy = -2093.30756533459726
 Total Coulomb        Energy = 1379.88909512998794
    8   -2692.4287620344      6.09e-06  
 Alpha HF Exchange    Energy = -10.74797010972827
 Beta HF Exchange     Energy = -10.74797010972828
 DFT Correlation      Energy =  -3.14343036891317
 DFT Exchange         Energy = -85.50483468725767
 One-Electron (alpha) Energy = -2093.31234829855975
 One-Electron (beta)  Energy = -2093.31234829856066
 Total Coulomb        Energy = 1379.89900480957635
    9   -2692.4287623327      6.11e-07  Convergence criterion met
 ---------------------------------------
 SCF time:   CPU 26.31s  wall 3.00s 
<S^2> =          0.000000000
 Alpha HF Exchange    Energy = -10.74797010972827
 Beta HF Exchange     Energy = -10.74797010972828
 DFT Correlation      Energy =  -3.14343036891317
 DFT Exchange         Energy = -85.50483468725767
 One-Electron (alpha) Energy = -2093.31234829855975
 One-Electron (beta)  Energy = -2093.31234829856066
 Total Coulomb        Energy = 1379.89900480957635
 Nuclear repulsion Energy = 224.44113473050402
 SCF   energy in the final basis set =    -2692.4287623327
 Total energy in the final basis set =    -2692.4287623327
 
 --------------------------------------------------------------
 
                    Orbital Energies (a.u.)
 --------------------------------------------------------------
 
 Alpha MOs
 -- Occupied --
******* -62.495 -56.316 -56.313 -56.313 -10.259 -10.208 -10.198
 -8.681  -6.511  -6.499  -6.499  -2.604  -2.601  -2.601  -2.592
 -2.591  -0.816  -0.746  -0.682  -0.608  -0.492  -0.448  -0.419
 -0.412  -0.373  -0.357  -0.327  -0.268  -0.268
 -- Virtual --
 -0.050   0.084   0.118   0.122   0.138   0.164   0.167   0.181
  0.206   0.226   0.250   0.351   0.355   0.361   0.464   0.492
  0.494   0.529   0.542   0.596   0.615   0.623   0.649   0.669
  0.720   0.774   0.807   0.829   0.836   0.859   0.868   0.903
  0.906   0.934   0.986   1.083   1.280   1.344   1.349   1.521
  1.580   1.614   1.655   1.733   1.815   1.854   1.943   2.007
  2.034   2.053   2.058   2.099   2.117   2.207   2.230   2.247
  2.343   2.415   2.458   2.527   2.559   2.667   2.726   2.730
  2.798   2.824   2.863   2.896   3.165   3.222   3.305   3.332
  3.452   3.470   3.521   4.243   4.433   4.606   4.739   4.748
  4.789   4.790   4.941   6.308  90.321
 
 Beta MOs
 -- Occupied --
******* -62.495 -56.316 -56.313 -56.313 -10.259 -10.208 -10.198
 -8.681  -6.511  -6.499  -6.499  -2.604  -2.601  -2.601  -2.592
 -2.591  -0.816  -0.746  -0.682  -0.608  -0.492  -0.448  -0.419
 -0.412  -0.373  -0.357  -0.327  -0.268  -0.268
 -- Virtual --
 -0.050   0.084   0.118   0.122   0.138   0.164   0.167   0.181
  0.206   0.226   0.250   0.351   0.355   0.361   0.464   0.492
  0.494   0.529   0.542   0.596   0.615   0.623   0.649   0.669
  0.720   0.774   0.807   0.829   0.836   0.859   0.868   0.903
  0.906   0.934   0.986   1.083   1.280   1.344   1.349   1.521
  1.580   1.614   1.655   1.733   1.815   1.854   1.943   2.007
  2.034   2.053   2.058   2.099   2.117   2.207   2.230   2.247
  2.343   2.415   2.458   2.527   2.559   2.667   2.726   2.730
  2.798   2.824   2.863   2.896   3.165   3.222   3.305   3.332
  3.452   3.470   3.521   4.243   4.433   4.606   4.739   4.748
  4.789   4.790   4.941   6.308  90.321
 --------------------------------------------------------------
 
          Ground-State Mulliken Net Atomic Charges

     Atom                 Charge (a.u.)    Spin (a.u.)
  --------------------------------------------------------
      1 Br                   -0.200601       0.000000
      2 C                    -0.180971      -0.000000
      3 C                    -0.220091       0.000000
      4 C                    -0.331711       0.000000
      5 H                     0.130722      -0.000000
      6 H                     0.130631       0.000000
      7 H                     0.160863       0.000000
      8 H                     0.160801       0.000000
      9 H                     0.122522      -0.000000
     10 H                     0.113922      -0.000000
     11 H                     0.113912      -0.000000
  --------------------------------------------------------
  Sum of atomic charges =     0.000000
  Sum of spin   charges =     0.000000

 -----------------------------------------------------------------
                    Cartesian Multipole Moments
 -----------------------------------------------------------------
    Charge (ESU x 10^10)
                 0.0000
    Dipole Moment (Debye)
         X      -3.1734      Y      -0.7791      Z      -0.0306
       Tot       3.2678
    Quadrupole Moments (Debye-Ang)
        XX     -44.4225     XY      -0.5741     YY     -38.1053
        XZ      -0.0682     YZ      -0.0042     ZZ     -38.5997
    Octopole Moments (Debye-Ang^2)
       XXX     -93.9885    XXY       1.0867    XYY     -28.8666
       YYY      -7.3777    XXZ      -0.5302    XYZ       0.0376
       YYZ      -0.4579    XZZ     -29.7880    YZZ      -3.4470
       ZZZ      -1.5096
    Hexadecapole Moments (Debye-Ang^3)
      XXXX    -927.1255   XXXY      -9.8927   XXYY    -171.2360
      XYYY     -21.1462   YYYY     -98.0646   XXXZ      -3.5739
      XXYZ       0.0268   XYYZ      -1.2819   YYYZ      -0.4342
      XXZZ    -170.4630   XYZZ      -6.4553   YYZZ     -24.3810
      XZZZ      -3.8546   YZZZ      -0.2955   ZZZZ     -63.4532
 -----------------------------------------------------------------
 Calculating analytic gradient of the SCF energy
 Gradient of SCF Energy
            1           2           3           4           5           6
    1   0.0300872  -0.0000011  -0.0301022  -0.0000212  -0.0000268  -0.0000572
    2   0.0121541  -0.0000052  -0.0120512  -0.0000350   0.0000220  -0.0000083
    3   0.0003620   0.0000205  -0.0003119   0.0000163  -0.0000065  -0.0000150
            7           8           9          10          11
    1   0.0000793   0.0000144  -0.0000152   0.0000251   0.0000176
    2   0.0000738   0.0000170  -0.0000664  -0.0000441  -0.0000568
    3  -0.0000179  -0.0000109  -0.0000083  -0.0000149  -0.0000135
 Max gradient component =       3.010E-02
 RMS gradient           =       7.986E-03
 Gradient time:  CPU 10.79 s  wall 0.95 s
 Geometry Optimization Parameters
   NAtoms,    NIC,     NZ,  NCons,   NDum,   NFix, NCnnct, MaxDiis
       11      68       0       1       0       0       0       0


** CONSTRAINED OPTIMIZATION IN DELOCALIZED INTERNAL COORDINATES **
   Searching for a Minimum

   Optimization Cycle:   1

                       Coordinates (Angstroms)
     ATOM                X               Y               Z
      1  Br        2.4137810000    0.2009550000    0.0254330000
      2  C        -0.6377450000    0.5012000000    0.0067310000
      3  C         0.3718700000   -0.6176400000    0.0030300000
      4  C        -2.0643960000   -0.0799680000   -0.0073870000
      5  H        -0.4957060000    1.1258410000    0.8937980000
      6  H        -0.4851060000    1.1407680000   -0.8678430000
      7  H         0.3983210000   -1.2155110000   -0.9051910000
      8  H         0.3846160000   -1.2345160000    0.8987400000
      9  H        -2.8019600000    0.7280180000   -0.0037520000
     10  H        -2.2401430000   -0.6893390000   -0.9000980000
     11  H        -2.2507350000   -0.7072090000    0.8706400000
   Point Group: c1    Number of degrees of freedom:    27


   Energy is  -2692.428762333

              Constraints and their Current Values
                                        Value     Constraint
   Distance(Angs):        1   3             2.200000     2.300000

 Attempting to Generate Delocalized Internal Coordinates

   Using Lagrange Multiplier Algorithm


 28 Hessian modes will be used to form the next step
  Hessian Eigenvalues:
    -0.953754    0.045000    0.045000    0.070294    0.077023    0.078878
     0.082295    0.083398    0.083867    0.100220    0.129504    0.160000
     0.160000    0.160000    0.160000    0.160000    0.218995    0.221428
     0.284704    0.316509    0.342346    0.342381    0.343335    0.343342
     0.343534    0.350839    0.350850    1.048489

 Minimum Search - Taking P-RFO Step
 Searching for Lamda that Maximizes Along the Constraint modes Only
 Value Taken    Lamda =   0.02584853
 Searching for Lamda that Minimizes Along All other modes
 Value Taken    Lamda =  -0.01080039
 Step Taken.  Stepsize is  0.185185

                             Maximum     Tolerance    Cnvgd?
         Gradient            0.188973       0.000300      NO
         Displacement        0.185181       0.001200      NO
         Energy change     *********       0.000001      NO


 New Cartesian Coordinates Obtained by Inverse Iteration

 Displacement from previous Coordinates is:  0.174162
 ----------------------------------------------------------------
             Standard Nuclear Orientation (Angstroms)
    I     Atom           X                Y                Z
 ----------------------------------------------------------------
    1      Br      2.4972774696     0.2255887214     0.0258671513
    2      C      -0.6444527117     0.4978382401     0.0067364983
    3      C       0.3621213296    -0.6237404058     0.0029786117
    4      C      -2.0726401094    -0.0795119434    -0.0075231617
    5      H      -0.5007516296     1.1219837346     0.8938797384
    6      H      -0.4900086013     1.1370940549    -0.8677416564
    7      H       0.3866806228    -1.2218599187    -0.9051388310
    8      H       0.3733384656    -1.2405505963     0.8987596021
    9      H      -2.8080875976     0.7304153045    -0.0038426112
   10      H      -2.2499662778    -0.6883193590    -0.9003023179
   11      H      -2.2607139601    -0.7063388323     0.8704279763
 ----------------------------------------------------------------
 Nuclear Repulsion Energy =   219.8491614033 hartrees
 There are       30 alpha and       30 beta electrons

                       Distance Matrix (Angstroms)
             Br(  1)   C (  2)   C (  3)   C (  4)   H (  5)   H (  6)
   C (  2)  3.153562
   C (  3)  2.297994  1.507032
   C (  4)  4.580213  1.540538  2.494866
   H (  5)  3.247329  1.094180  2.141450  2.174156
   H (  6)  3.248578  1.094172  2.141219  2.173667  1.761719
   H (  7)  2.723325  2.202752  1.087671  2.856384  3.085062  2.516872
   H (  8)  2.724449  2.203089  1.087660  2.855201  2.519053  3.085302
   H (  9)  5.329412  2.176125  3.447319  1.094020  2.506597  2.507030
   H ( 10)  4.922331  2.192570  2.764614  1.095055  3.091284  2.535872
   H ( 11)  4.921408  2.192785  2.763794  1.095026  2.537869  3.091096
             H (  7)   H (  8)   H (  9)   H ( 10)
   H (  8)  1.804045
   H (  9)  3.851007  3.849788
   H ( 10)  2.690092  3.228515  1.768600
   H ( 11)  3.229102  2.687828  1.768680  1.770855
 
 Applying Cartesian multipole field
    Component          Value
    ---------          -----
     (2,0,0)        1.00000E-11
     (0,2,0)        2.00000E-10
     (0,0,2)       -3.00000E-10
 Nucleus-field energy     =     0.0000000135 hartrees
 Requested basis set is 6-31G(d,p)
 There are 41 shells and 115 basis functions
 A cutoff of  1.0D-14 yielded    804 shell pairs
 There are      6332 function pairs
 Smallest overlap matrix eigenvalue = 7.25E-04
 Guess from superposition of atomic densities
 Warning:  Energy on first SCF cycle will be non-variational
 SAD guess density has 59.972873 electrons

 -----------------------------------------------------------------------
  General SCF calculation program by
  Eric Jon Sundstrom, Paul Horn, Yuezhi Mao, Dmitri Zuev, Alec White,
  David Stuck, Shaama M.S., Shane Yost, Joonho Lee, David Small,
  Daniel Levine, Susi Lehtola, Hugh Burton, Evgeny Epifanovsky
 -----------------------------------------------------------------------
 Exchange:     0.2000 Hartree-Fock + 0.0800 Slater + 0.7200 B88
 Correlation:  0.1900 VWN1RPA + 0.8100 LYP
 Using SG-1 standard quadrature grid
 using 12 threads for integral computing
 -------------------------------------------------------
 OpenMP Integral computing Module                
 Release: version 1.0, May 2013, Q-Chem Inc. Pittsburgh 
 -------------------------------------------------------
 -------------------------------------------------------
 OpenMP BLAS3 based DFT computing Module                
 Release: version 1.0, May 2013, Q-Chem Inc. Pittsburgh 
 -------------------------------------------------------
 A unrestricted SCF calculation will be
 performed using DIIS
 SCF converges when DIIS error is below 1.0e-06
 Alpha HF Exchange    Energy = -10.72839706410652
 Beta HF Exchange     Energy = -10.72839706410652
 DFT Correlation      Energy =  -3.11777266859646
 DFT Exchange         Energy = -85.00273652497467
 One-Electron (alpha) Energy = -2086.44905865260716
 One-Electron (beta)  Energy = -2086.44905865260716
 Total Coulomb        Energy = 1366.87180252188159
 ---------------------------------------
  Cycle       Energy         DIIS error
 ---------------------------------------
    1   -2695.7544566883      1.64e-01  
 Alpha HF Exchange    Energy = -10.79674072544630
 Beta HF Exchange     Energy = -10.79674072544631
 DFT Correlation      Energy =  -3.15724239871559
 DFT Exchange         Energy = -85.89975077327466
 One-Electron (alpha) Energy = -2093.78591970289199
 One-Electron (beta)  Energy = -2093.78591970289199
 Total Coulomb        Energy = 1386.06139315327346
    2   -2692.3117594586      9.55e-03  
 Alpha HF Exchange    Energy = -10.69639892945521
 Beta HF Exchange     Energy = -10.69639892945521
 DFT Correlation      Energy =  -3.12693987340554
 DFT Exchange         Energy = -85.10304476947384
 One-Electron (alpha) Energy = -2083.30188490900946
 One-Electron (beta)  Energy = -2083.30188490900900
 Total Coulomb        Energy = 1364.07608953725980
    3   -2692.3013013657      4.71e-03  
 Alpha HF Exchange    Energy = -10.77279152013915
 Beta HF Exchange     Energy = -10.77279152013918
 DFT Correlation      Energy =  -3.14743200772829
 DFT Exchange         Energy = -85.69404270907147
 One-Electron (alpha) Energy = -2091.71227604209707
 One-Electron (beta)  Energy = -2091.71227604209935
 Total Coulomb        Energy = 1381.60143992192388
    4   -2692.3610085025      3.25e-03  
 Alpha HF Exchange    Energy = -10.75009584858218
 Beta HF Exchange     Energy = -10.75009584858217
 DFT Correlation      Energy =  -3.14394726002081
 DFT Exchange         Energy = -85.53109344276618
 One-Electron (alpha) Energy = -2088.93965787186562
 One-Electron (beta)  Energy = -2088.93965787186517
 Total Coulomb        Energy = 1375.79118939342629
    5   -2692.4141973334      9.98e-04  
 Alpha HF Exchange    Energy = -10.74625089385776
 Beta HF Exchange     Energy = -10.74625089385778
 DFT Correlation      Energy =  -3.14158536108045
 DFT Exchange         Energy = -85.49472570044023
 One-Electron (alpha) Energy = -2088.84929041038640
 One-Electron (beta)  Energy = -2088.84929041038731
 Total Coulomb        Energy = 1375.55671589129793
    6   -2692.4215163619      1.14e-04  
 Alpha HF Exchange    Energy = -10.74559522192916
 Beta HF Exchange     Energy = -10.74559522192916
 DFT Correlation      Energy =  -3.14152753839377
 DFT Exchange         Energy = -85.49012025401626
 One-Electron (alpha) Energy = -2088.70367788793601
 One-Electron (beta)  Energy = -2088.70367788793556
 Total Coulomb        Energy = 1375.25941135764356
    7   -2692.4216212377      5.44e-05  
 Alpha HF Exchange    Energy = -10.74574037032496
 Beta HF Exchange     Energy = -10.74574037032496
 DFT Correlation      Energy =  -3.14149698580821
 DFT Exchange         Energy = -85.49111923552358
 One-Electron (alpha) Energy = -2088.73679027505159
 One-Electron (beta)  Energy = -2088.73679027505068
 Total Coulomb        Energy = 1375.32687677059084
    8   -2692.4216393247      1.16e-05  
 Alpha HF Exchange    Energy = -10.74579856161059
 Beta HF Exchange     Energy = -10.74579856161057
 DFT Correlation      Energy =  -3.14152228817974
 DFT Exchange         Energy = -85.49155944723999
 One-Electron (alpha) Energy = -2088.74579807749251
 One-Electron (beta)  Energy = -2088.74579807748978
 Total Coulomb        Energy = 1375.34547314583097
    9   -2692.4216404510      6.66e-07  Convergence criterion met
 ---------------------------------------
 SCF time:   CPU 25.42s  wall 2.00s 
<S^2> =         -0.000000000
 Alpha HF Exchange    Energy = -10.74579856161059
 Beta HF Exchange     Energy = -10.74579856161057
 DFT Correlation      Energy =  -3.14152228817974
 DFT Exchange         Energy = -85.49155944723999
 One-Electron (alpha) Energy = -2088.74579807749251
 One-Electron (beta)  Energy = -2088.74579807748978
 Total Coulomb        Energy = 1375.34547314583097
 Nuclear repulsion Energy = 219.84916141683200
 SCF   energy in the final basis set =    -2692.4216404510
 Total energy in the final basis set =    -2692.4216404510
 
 --------------------------------------------------------------
 
                    Orbital Energies (a.u.)
 --------------------------------------------------------------
 
 Alpha MOs
 -- Occupied --
******* -62.492 -56.314 -56.310 -56.310 -10.266 -10.211 -10.201
 -8.678  -6.508  -6.496  -6.496  -2.601  -2.598  -2.598  -2.589
 -2.588  -0.816  -0.740  -0.686  -0.610  -0.494  -0.450  -0.421
 -0.412  -0.375  -0.359  -0.320  -0.266  -0.266
 -- Virtual --
 -0.069   0.082   0.118   0.120   0.136   0.161   0.166   0.180
  0.204   0.226   0.248   0.355   0.356   0.361   0.465   0.494
  0.496   0.528   0.541   0.594   0.615   0.628   0.645   0.651
  0.707   0.770   0.801   0.816   0.833   0.854   0.865   0.898
  0.903   0.932   0.974   1.077   1.276   1.330   1.338   1.507
  1.571   1.612   1.653   1.739   1.810   1.850   1.927   2.001
  2.031   2.043   2.049   2.094   2.112   2.204   2.222   2.243
  2.339   2.409   2.454   2.525   2.552   2.663   2.723   2.727
  2.794   2.820   2.860   2.893   3.162   3.219   3.301   3.328
  3.449   3.466   3.518   4.238   4.429   4.599   4.742   4.748
  4.780   4.780   4.922   6.304  90.294
 
 Beta MOs
 -- Occupied --
******* -62.492 -56.314 -56.310 -56.310 -10.266 -10.211 -10.201
 -8.678  -6.508  -6.496  -6.496  -2.601  -2.598  -2.598  -2.589
 -2.588  -0.816  -0.740  -0.686  -0.610  -0.494  -0.450  -0.421
 -0.412  -0.375  -0.359  -0.320  -0.266  -0.266
 -- Virtual --
 -0.069   0.082   0.118   0.120   0.136   0.161   0.166   0.180
  0.204   0.226   0.248   0.355   0.356   0.361   0.465   0.494
  0.496   0.528   0.541   0.594   0.615   0.628   0.645   0.651
  0.707   0.770   0.801   0.816   0.833   0.854   0.865   0.898
  0.903   0.932   0.974   1.077   1.276   1.330   1.338   1.507
  1.571   1.612   1.653   1.739   1.810   1.850   1.927   2.001
  2.031   2.043   2.049   2.094   2.112   2.204   2.222   2.243
  2.339   2.409   2.454   2.525   2.552   2.663   2.723   2.727
  2.794   2.820   2.860   2.893   3.162   3.219   3.301   3.328
  3.449   3.466   3.518   4.238   4.429   4.599   4.742   4.748
  4.780   4.780   4.922   6.304  90.294
 --------------------------------------------------------------
 
          Ground-State Mulliken Net Atomic Charges

     Atom                 Charge (a.u.)    Spin (a.u.)
  --------------------------------------------------------
      1 Br                   -0.228833       0.000000
      2 C                    -0.184306       0.000000
      3 C                    -0.202844      -0.000000
      4 C                    -0.332891      -0.000000
      5 H                     0.133716      -0.000000
      6 H                     0.133635       0.000000
      7 H                     0.162545      -0.000000
      8 H                     0.162486       0.000000
      9 H                     0.125559       0.000000
     10 H                     0.115473       0.000000
     11 H                     0.115460       0.000000
  --------------------------------------------------------
  Sum of atomic charges =    -0.000000
  Sum of spin   charges =     0.000000

 -----------------------------------------------------------------
                    Cartesian Multipole Moments
 -----------------------------------------------------------------
    Charge (ESU x 10^10)
                -0.0000
    Dipole Moment (Debye)
         X      -3.5408      Y      -0.8483      Z      -0.0331
       Tot       3.6411
    Quadrupole Moments (Debye-Ang)
        XX     -45.1633     XY      -0.6626     YY     -38.0753
        XZ      -0.0753     YZ      -0.0045     ZZ     -38.6488
    Octopole Moments (Debye-Ang^2)
       XXX    -101.5458    XXY       0.5850    XYY     -30.6253
       YYY      -8.7234    XXZ      -0.5605    XYZ       0.0355
       YYZ      -0.4682    XZZ     -31.5340    YZZ      -3.8801
       ZZZ      -1.5380
    Hexadecapole Moments (Debye-Ang^3)
      XXXX    -980.8904   XXXY     -14.4781   XXYY    -179.8938
      XYYY     -25.7625   YYYY     -99.2701   XXXZ      -3.8179
      XXYZ       0.0106   XYYZ      -1.3516   YYYZ      -0.4771
      XXZZ    -179.0825   XYZZ      -7.9561   YYZZ     -24.5546
      XZZZ      -4.0593   YZZZ      -0.3349   ZZZZ     -63.5545
 -----------------------------------------------------------------
 Calculating analytic gradient of the SCF energy
 Gradient of SCF Energy
            1           2           3           4           5           6
    1   0.0399302  -0.0040714  -0.0303913   0.0001602   0.0001286   0.0000982
    2   0.0161725  -0.0015279  -0.0137421   0.0013577   0.0000805   0.0000535
    3   0.0004924  -0.0000223  -0.0003471   0.0000278   0.0000049  -0.0000212
            7           8           9          10          11
    1  -0.0027959  -0.0028396  -0.0003710   0.0000798   0.0000722
    2  -0.0009625  -0.0009973  -0.0002731  -0.0000742  -0.0000871
    3   0.0004837  -0.0005782  -0.0000125  -0.0000451   0.0000176
 Max gradient component =       3.993E-02
 RMS gradient           =       9.548E-03
 Gradient time:  CPU 10.12 s  wall 0.86 s
 Geometry Optimization Parameters
   NAtoms,    NIC,     NZ,  NCons,   NDum,   NFix, NCnnct, MaxDiis
       11      68       0       1       0       0       0       0

 Cartesian Hessian Update
 Hessian Updated using BFGS Update


** CONSTRAINED OPTIMIZATION IN DELOCALIZED INTERNAL COORDINATES **
   Searching for a Minimum

   Optimization Cycle:   2

                       Coordinates (Angstroms)
     ATOM                X               Y               Z
      1  Br        2.4972774696    0.2255887214    0.0258671513
      2  C        -0.6444527117    0.4978382401    0.0067364983
      3  C         0.3621213296   -0.6237404058    0.0029786117
      4  C        -2.0726401094   -0.0795119434   -0.0075231617
      5  H        -0.5007516296    1.1219837346    0.8938797384
      6  H        -0.4900086013    1.1370940549   -0.8677416564
      7  H         0.3866806228   -1.2218599187   -0.9051388310
      8  H         0.3733384656   -1.2405505963    0.8987596021
      9  H        -2.8080875976    0.7304153045   -0.0038426112
     10  H        -2.2499662778   -0.6883193590   -0.9003023179
     11  H        -2.2607139601   -0.7063388323    0.8704279763
   Point Group: c1    Number of degrees of freedom:    27


   Energy is  -2692.421640451

              Constraints and their Current Values
                                        Value     Constraint
   Distance(Angs):        1   3             2.297994     2.300000
 Hessian Updated using BFGS Update

   Using Lagrange Multiplier Algorithm


 25 Hessian modes will be used to form the next step
  Hessian Eigenvalues:
    -0.972147    0.044999    0.045000    0.070294    0.078856    0.082247
     0.083398    0.083858    0.085015    0.100259    0.129504    0.160000
     0.163718    0.220826    0.221781    0.284774    0.319526    0.342346
     0.342381    0.343337    0.343346    0.343540    0.350842    0.350855
     1.029688

 Minimum Search - Taking P-RFO Step
 Searching for Lamda that Maximizes Along the Constraint modes Only
 Value Taken    Lamda =   0.00000057
 Searching for Lamda that Minimizes Along All other modes
 Value Taken    Lamda =  -0.00030500
 Step Taken.  Stepsize is  0.050388

                             Maximum     Tolerance    Cnvgd?
         Gradient            0.004807       0.000300      NO
         Displacement        0.039842       0.001200      NO
         Energy change      0.007122       0.000001      NO


 New Cartesian Coordinates Obtained by Inverse Iteration

 Displacement from previous Coordinates is:  0.031457
 ----------------------------------------------------------------
             Standard Nuclear Orientation (Angstroms)
    I     Atom           X                Y                Z
 ----------------------------------------------------------------
    1      Br      2.4890522268     0.2254968853     0.0249219578
    2      C      -0.6441588536     0.4986917966     0.0069665340
    3      C       0.3528720174    -0.6267090032     0.0031232876
    4      C      -2.0725196106    -0.0798232784    -0.0076693512
    5      H      -0.4996618452     1.1222634242     0.8942737320
    6      H      -0.4886717231     1.1375841578    -0.8674750600
    7      H       0.3932788327    -1.2221025214    -0.9060824775
    8      H       0.3804240319    -1.2404776558     0.9005135146
    9      H      -2.8054657421     0.7322158555    -0.0040026459
   10      H      -2.2505834484    -0.6881160893    -0.9006038986
   11      H      -2.2617688858    -0.7064245713     0.8701354071
 ----------------------------------------------------------------
 Nuclear Repulsion Energy =   220.0975317918 hartrees
 There are       30 alpha and       30 beta electrons

                       Distance Matrix (Angstroms)
             Br(  1)   C (  2)   C (  3)   C (  4)   H (  5)   H (  6)
   C (  2)  3.145150
   C (  3)  2.299999  1.503533
   C (  4)  4.571895  1.541139  2.486308
   H (  5)  3.239194  1.094091  2.140063  2.175407
   H (  6)  3.239617  1.094079  2.139829  2.174838  1.761850
   H (  7)  2.711933  2.207050  1.087557  2.862186  3.087827  2.519414
   H (  8)  2.713311  2.207466  1.087557  2.861616  2.521336  3.088088
   H (  9)  5.318789  2.173914  3.438288  1.093906  2.505149  2.505483
   H ( 10)  4.914818  2.193809  2.756533  1.095016  3.092699  2.537442
   H ( 11)  4.914587  2.194089  2.755796  1.094982  2.539627  3.092496
             H (  7)   H (  8)   H (  9)   H ( 10)
   H (  8)  1.806735
   H (  9)  3.855525  3.854810
   H ( 10)  2.697254  3.235943  1.768935
   H ( 11)  3.235761  2.695797  1.769014  1.770869
 
 Applying Cartesian multipole field
    Component          Value
    ---------          -----
     (2,0,0)        1.00000E-11
     (0,2,0)        2.00000E-10
     (0,0,2)       -3.00000E-10
 Nucleus-field energy     =     0.0000000135 hartrees
 Requested basis set is 6-31G(d,p)
 There are 41 shells and 115 basis functions
 A cutoff of  1.0D-14 yielded    804 shell pairs
 There are      6332 function pairs
 Smallest overlap matrix eigenvalue = 7.25E-04
 Guess from superposition of atomic densities
 Warning:  Energy on first SCF cycle will be non-variational
 SAD guess density has 59.972873 electrons

 -----------------------------------------------------------------------
  General SCF calculation program by
  Eric Jon Sundstrom, Paul Horn, Yuezhi Mao, Dmitri Zuev, Alec White,
  David Stuck, Shaama M.S., Shane Yost, Joonho Lee, David Small,
  Daniel Levine, Susi Lehtola, Hugh Burton, Evgeny Epifanovsky
 -----------------------------------------------------------------------
 Exchange:     0.2000 Hartree-Fock + 0.0800 Slater + 0.7200 B88
 Correlation:  0.1900 VWN1RPA + 0.8100 LYP
 Using SG-1 standard quadrature grid
 using 12 threads for integral computing
 -------------------------------------------------------
 OpenMP Integral computing Module                
 Release: version 1.0, May 2013, Q-Chem Inc. Pittsburgh 
 -------------------------------------------------------
 -------------------------------------------------------
 OpenMP BLAS3 based DFT computing Module                
 Release: version 1.0, May 2013, Q-Chem Inc. Pittsburgh 
 -------------------------------------------------------
 A unrestricted SCF calculation will be
 performed using DIIS
 SCF converges when DIIS error is below 1.0e-06
 Alpha HF Exchange    Energy = -10.72874084540304
 Beta HF Exchange     Energy = -10.72874084540304
 DFT Correlation      Energy =  -3.11787870526076
 DFT Exchange         Energy = -85.00340517301012
 One-Electron (alpha) Energy = -2086.69587728677334
 One-Electron (beta)  Energy = -2086.69587728677334
 Total Coulomb        Energy = 1367.11514263310733
 ---------------------------------------
  Cycle       Energy         DIIS error
 ---------------------------------------
    1   -2695.7578457042      1.64e-01  
 Alpha HF Exchange    Energy = -10.79703941061349
 Beta HF Exchange     Energy = -10.79703941061349
 DFT Correlation      Energy =  -3.15736697796410
 DFT Exchange         Energy = -85.90174748132624
 One-Electron (alpha) Energy = -2094.07223816294345
 One-Electron (beta)  Energy = -2094.07223816294345
 Total Coulomb        Energy = 1386.38892435087951
    2   -2692.3112134502      9.56e-03  
 Alpha HF Exchange    Energy = -10.69636608649639
 Beta HF Exchange     Energy = -10.69636608649640
 DFT Correlation      Energy =  -3.12706902824456
 DFT Exchange         Energy = -85.10301627670114
 One-Electron (alpha) Energy = -2083.51228951625717
 One-Electron (beta)  Energy = -2083.51228951625853
 Total Coulomb        Energy = 1364.25010795128219
    3   -2692.2997567539      4.73e-03  
 Alpha HF Exchange    Energy = -10.77300764261145
 Beta HF Exchange     Energy = -10.77300764261147
 DFT Correlation      Energy =  -3.14747060433754
 DFT Exchange         Energy = -85.69515842920671
 One-Electron (alpha) Energy = -2091.99772905837790
 One-Electron (beta)  Energy = -2091.99772905837926
 Total Coulomb        Energy = 1381.92652590303533
    4   -2692.3600447272      3.27e-03  
 Alpha HF Exchange    Energy = -10.75031395197550
 Beta HF Exchange     Energy = -10.75031395197551
 DFT Correlation      Energy =  -3.14411161298480
 DFT Exchange         Energy = -85.53283654429183
 One-Electron (alpha) Energy = -2089.19979916030752
 One-Electron (beta)  Energy = -2089.19979916030843
 Total Coulomb        Energy = 1376.06559156553863
    5   -2692.4140510110      1.01e-03  
 Alpha HF Exchange    Energy = -10.74640131628662
 Beta HF Exchange     Energy = -10.74640131628661
 DFT Correlation      Energy =  -3.14170157017098
 DFT Exchange         Energy = -85.49580536774278
 One-Electron (alpha) Energy = -2089.10888889265289
 One-Electron (beta)  Energy = -2089.10888889265334
 Total Coulomb        Energy = 1375.82900615830840
    6   -2692.4215493922      1.14e-04  
 Alpha HF Exchange    Energy = -10.74574306200785
 Beta HF Exchange     Energy = -10.74574306200785
 DFT Correlation      Energy =  -3.14164171605048
 DFT Exchange         Energy = -85.49118652794876
 One-Electron (alpha) Energy = -2088.96178124465951
 One-Electron (beta)  Energy = -2088.96178124465905
 Total Coulomb        Energy = 1375.52868971342878
    7   -2692.4216553386      5.50e-05  
 Alpha HF Exchange    Energy = -10.74589762457378
 Beta HF Exchange     Energy = -10.74589762457378
 DFT Correlation      Energy =  -3.14161416972908
 DFT Exchange         Energy = -85.49225964857509
 One-Electron (alpha) Energy = -2088.99632159301746
 One-Electron (beta)  Energy = -2088.99632159301700
 Total Coulomb        Energy = 1375.59910643658668
    8   -2692.4216740116      1.19e-05  
 Alpha HF Exchange    Energy = -10.74595634708045
 Beta HF Exchange     Energy = -10.74595634708045
 DFT Correlation      Energy =  -3.14163993291171
 DFT Exchange         Energy = -85.49270282062167
 One-Electron (alpha) Energy = -2089.00539787634261
 One-Electron (beta)  Energy = -2089.00539787634125
 Total Coulomb        Energy = 1375.61784419339233
    9   -2692.4216752017      6.82e-07  Convergence criterion met
 ---------------------------------------
 SCF time:   CPU 25.59s  wall 2.00s 
<S^2> =          0.000000000
 Alpha HF Exchange    Energy = -10.74595634708045
 Beta HF Exchange     Energy = -10.74595634708045
 DFT Correlation      Energy =  -3.14163993291171
 DFT Exchange         Energy = -85.49270282062167
 One-Electron (alpha) Energy = -2089.00539787634261
 One-Electron (beta)  Energy = -2089.00539787634125
 Total Coulomb        Energy = 1375.61784419339233
 Nuclear repulsion Energy = 220.09753180528901
 SCF   energy in the final basis set =    -2692.4216752017
 Total energy in the final basis set =    -2692.4216752017
 
 --------------------------------------------------------------
 
                    Orbital Energies (a.u.)
 --------------------------------------------------------------
 
 Alpha MOs
 -- Occupied --
******* -62.491 -56.312 -56.309 -56.309 -10.266 -10.212 -10.201
 -8.677  -6.507  -6.495  -6.495  -2.600  -2.597  -2.597  -2.588
 -2.588  -0.817  -0.739  -0.686  -0.611  -0.495  -0.452  -0.422
 -0.412  -0.376  -0.360  -0.319  -0.265  -0.265
 -- Virtual --
 -0.068   0.082   0.117   0.120   0.136   0.161   0.165   0.181
  0.204   0.226   0.249   0.356   0.357   0.361   0.465   0.494
  0.495   0.528   0.541   0.594   0.615   0.629   0.645   0.651
  0.706   0.770   0.801   0.816   0.833   0.854   0.864   0.900
  0.902   0.931   0.978   1.079   1.273   1.330   1.343   1.506
  1.574   1.605   1.651   1.742   1.810   1.850   1.931   1.996
  2.031   2.044   2.048   2.095   2.112   2.203   2.221   2.244
  2.344   2.408   2.455   2.528   2.549   2.663   2.724   2.725
  2.796   2.817   2.858   2.894   3.163   3.219   3.301   3.331
  3.449   3.467   3.516   4.240   4.429   4.599   4.743   4.749
  4.780   4.782   4.923   6.305  90.296
 
 Beta MOs
 -- Occupied --
******* -62.491 -56.312 -56.309 -56.309 -10.266 -10.212 -10.201
 -8.677  -6.507  -6.495  -6.495  -2.600  -2.597  -2.597  -2.588
 -2.588  -0.817  -0.739  -0.686  -0.611  -0.495  -0.452  -0.422
 -0.412  -0.376  -0.360  -0.319  -0.265  -0.265
 -- Virtual --
 -0.068   0.082   0.117   0.120   0.136   0.161   0.165   0.181
  0.204   0.226   0.249   0.356   0.357   0.361   0.465   0.494
  0.495   0.528   0.541   0.594   0.615   0.629   0.645   0.651
  0.706   0.770   0.801   0.816   0.833   0.854   0.864   0.900
  0.902   0.931   0.978   1.079   1.273   1.330   1.343   1.506
  1.574   1.605   1.651   1.742   1.810   1.850   1.931   1.996
  2.031   2.044   2.048   2.095   2.112   2.203   2.221   2.244
  2.344   2.408   2.455   2.528   2.549   2.663   2.724   2.725
  2.796   2.817   2.858   2.894   3.163   3.219   3.301   3.331
  3.449   3.467   3.516   4.240   4.429   4.599   4.743   4.749
  4.780   4.782   4.923   6.305  90.296
 --------------------------------------------------------------
 
          Ground-State Mulliken Net Atomic Charges

     Atom                 Charge (a.u.)    Spin (a.u.)
  --------------------------------------------------------
      1 Br                   -0.233923      -0.000000
      2 C                    -0.183805      -0.000000
      3 C                    -0.202488       0.000000
      4 C                    -0.333310      -0.000000
      5 H                     0.134409       0.000000
      6 H                     0.134366       0.000000
      7 H                     0.163912      -0.000000
      8 H                     0.163850       0.000000
      9 H                     0.125472      -0.000000
     10 H                     0.115768       0.000000
     11 H                     0.115750       0.000000
  --------------------------------------------------------
  Sum of atomic charges =    -0.000000
  Sum of spin   charges =    -0.000000

 -----------------------------------------------------------------
                    Cartesian Multipole Moments
 -----------------------------------------------------------------
    Charge (ESU x 10^10)
                 0.0000
    Dipole Moment (Debye)
         X      -3.5793      Y      -0.8609      Z      -0.0321
       Tot       3.6815
    Quadrupole Moments (Debye-Ang)
        XX     -45.2880     XY      -0.7020     YY     -38.0445
        XZ      -0.0747     YZ      -0.0054     ZZ     -38.6305
    Octopole Moments (Debye-Ang^2)
       XXX    -101.3949    XXY       0.4929    XYY     -30.4587
       YYY      -8.6999    XXZ      -0.5481    XYZ       0.0330
       YYZ      -0.4514    XZZ     -31.3660    YZZ      -3.8884
       ZZZ      -1.4868
    Hexadecapole Moments (Debye-Ang^3)
      XXXX    -978.0726   XXXY     -14.5998   XXYY    -179.1593
      XYYY     -25.7973   YYYY     -99.3364   XXXZ      -3.7099
      XXYZ       0.0050   XYYZ      -1.3063   YYYZ      -0.4674
      XXZZ    -178.3356   XYZZ      -7.9790   YYZZ     -24.5391
      XZZZ      -3.9180   YZZZ      -0.3240   ZZZZ     -63.5265
 -----------------------------------------------------------------
 Calculating analytic gradient of the SCF energy
 Gradient of SCF Energy
            1           2           3           4           5           6
    1   0.0387929  -0.0023604  -0.0342993   0.0005634   0.0001145   0.0000799
    2   0.0157647  -0.0006225  -0.0138163   0.0004199   0.0002239   0.0001974
    3   0.0004456  -0.0000059  -0.0003399   0.0000229  -0.0000448   0.0000335
            7           8           9          10          11
    1  -0.0014152  -0.0014709   0.0000186  -0.0000066  -0.0000168
    2  -0.0008533  -0.0009026  -0.0001019  -0.0001487  -0.0001606
    3   0.0002660  -0.0003342  -0.0000094  -0.0000257  -0.0000079
 Max gradient component =       3.879E-02
 RMS gradient           =       9.745E-03
 Gradient time:  CPU 10.41 s  wall 0.89 s
 Geometry Optimization Parameters
   NAtoms,    NIC,     NZ,  NCons,   NDum,   NFix, NCnnct, MaxDiis
       11      68       0       1       0       0       0       0

 Cartesian Hessian Update
 Hessian Updated using BFGS Update


** CONSTRAINED OPTIMIZATION IN DELOCALIZED INTERNAL COORDINATES **
   Searching for a Minimum

   Optimization Cycle:   3

                       Coordinates (Angstroms)
     ATOM                X               Y               Z
      1  Br        2.4890522268    0.2254968853    0.0249219578
      2  C        -0.6441588536    0.4986917966    0.0069665340
      3  C         0.3528720174   -0.6267090032    0.0031232876
      4  C        -2.0725196106   -0.0798232784   -0.0076693512
      5  H        -0.4996618452    1.1222634242    0.8942737320
      6  H        -0.4886717231    1.1375841578   -0.8674750600
      7  H         0.3932788327   -1.2221025214   -0.9060824775
      8  H         0.3804240319   -1.2404776558    0.9005135146
      9  H        -2.8054657421    0.7322158555   -0.0040026459
     10  H        -2.2505834484   -0.6881160893   -0.9006038986
     11  H        -2.2617688858   -0.7064245713    0.8701354071
   Point Group: c1    Number of degrees of freedom:    27


   Energy is  -2692.421675202

              Constraints and their Current Values
                                        Value     Constraint
   Distance(Angs):        1   3             2.299999     2.300000
 Hessian Updated using BFGS Update

   Using Lagrange Multiplier Algorithm


 26 Hessian modes will be used to form the next step
  Hessian Eigenvalues:
    -0.969605    0.042502    0.045000    0.045570    0.070294    0.078863
     0.082358    0.083398    0.083867    0.100164    0.129504    0.157834
     0.160000    0.164512    0.220984    0.235178    0.285075    0.312969
     0.342358    0.342416    0.343339    0.343365    0.343757    0.350844
     0.351544    1.032773

 Minimum Search - Taking P-RFO Step
 Searching for Lamda that Maximizes Along the Constraint modes Only
 Value Taken    Lamda =   0.00000000
 Searching for Lamda that Minimizes Along All other modes
 Value Taken    Lamda =  -0.00014797
 Step Taken.  Stepsize is  0.057530

                             Maximum     Tolerance    Cnvgd?
         Gradient            0.001932       0.000300      NO
         Displacement        0.045676       0.001200      NO
         Energy change     -0.000035       0.000001      NO


 New Cartesian Coordinates Obtained by Inverse Iteration

 Displacement from previous Coordinates is:  0.043867
 ----------------------------------------------------------------
             Standard Nuclear Orientation (Angstroms)
    I     Atom           X                Y                Z
 ----------------------------------------------------------------
    1      Br      2.4811592349     0.2255189536     0.0235035066
    2      C      -0.6435283303     0.4964745580     0.0072843832
    3      C       0.3465882108    -0.6307525122     0.0033727165
    4      C      -2.0756076611    -0.0784915904    -0.0079250468
    5      H      -0.4984587813     1.1182470607     0.8953766132
    6      H      -0.4869643635     1.1339840940    -0.8675817852
    7      H       0.4046413126    -1.2203144092    -0.9079298361
    8      H       0.3927013688    -1.2379835700     0.9036916288
    9      H      -2.8065381573     0.7355751620    -0.0042619767
   10      H      -2.2546959502    -0.6854368597    -0.9013210464
   11      H      -2.2664998832    -0.7042218868     0.8698918431
 ----------------------------------------------------------------
 Nuclear Repulsion Energy =   220.3475647918 hartrees
 There are       30 alpha and       30 beta electrons

                       Distance Matrix (Angstroms)
             Br(  1)   C (  2)   C (  3)   C (  4)   H (  5)   H (  6)
   C (  2)  3.136455
   C (  3)  2.300000  1.500329
   C (  4)  4.567005  1.543266  2.484382
   H (  5)  3.230364  1.093780  2.137469  2.176129
   H (  6)  3.229412  1.093765  2.137210  2.175522  1.763066
   H (  7)  2.696281  2.209896  1.086934  2.874961  3.088102  2.517799
   H (  8)  2.697819  2.210354  1.086936  2.875416  2.519138  3.088277
   H (  9)  5.312313  2.176216  3.436439  1.094065  2.506595  2.506885
   H ( 10)  4.910546  2.195072  2.754658  1.094811  3.092857  2.536988
   H ( 11)  4.911319  2.195404  2.753994  1.094779  2.539294  3.092663
             H (  7)   H (  8)   H (  9)   H ( 10)
   H (  8)  1.811747
   H (  9)  3.867013  3.867098
   H ( 10)  2.712603  3.251475  1.768762
   H ( 11)  3.249923  2.712452  1.768842  1.771352
 
 Applying Cartesian multipole field
    Component          Value
    ---------          -----
     (2,0,0)        1.00000E-11
     (0,2,0)        2.00000E-10
     (0,0,2)       -3.00000E-10
 Nucleus-field energy     =     0.0000000134 hartrees
 Requested basis set is 6-31G(d,p)
 There are 41 shells and 115 basis functions
 A cutoff of  1.0D-14 yielded    804 shell pairs
 There are      6332 function pairs
 Smallest overlap matrix eigenvalue = 7.25E-04
 Guess from superposition of atomic densities
 Warning:  Energy on first SCF cycle will be non-variational
 SAD guess density has 59.972873 electrons

 -----------------------------------------------------------------------
  General SCF calculation program by
  Eric Jon Sundstrom, Paul Horn, Yuezhi Mao, Dmitri Zuev, Alec White,
  David Stuck, Shaama M.S., Shane Yost, Joonho Lee, David Small,
  Daniel Levine, Susi Lehtola, Hugh Burton, Evgeny Epifanovsky
 -----------------------------------------------------------------------
 Exchange:     0.2000 Hartree-Fock + 0.0800 Slater + 0.7200 B88
 Correlation:  0.1900 VWN1RPA + 0.8100 LYP
 Using SG-1 standard quadrature grid
 using 12 threads for integral computing
 -------------------------------------------------------
 OpenMP Integral computing Module                
 Release: version 1.0, May 2013, Q-Chem Inc. Pittsburgh 
 -------------------------------------------------------
 -------------------------------------------------------
 OpenMP BLAS3 based DFT computing Module                
 Release: version 1.0, May 2013, Q-Chem Inc. Pittsburgh 
 -------------------------------------------------------
 A unrestricted SCF calculation will be
 performed using DIIS
 SCF converges when DIIS error is below 1.0e-06
 Alpha HF Exchange    Energy = -10.72903186695888
 Beta HF Exchange     Energy = -10.72903186695888
 DFT Correlation      Energy =  -3.11797326772550
 DFT Exchange         Energy = -85.00402293663666
 One-Electron (alpha) Energy = -2086.94410277197130
 One-Electron (beta)  Energy = -2086.94410277197130
 Total Coulomb        Energy = 1367.36004815675869
 ---------------------------------------
  Cycle       Energy         DIIS error
 ---------------------------------------
    1   -2695.7606525203      1.64e-01  
 Alpha HF Exchange    Energy = -10.79733433783686
 Beta HF Exchange     Energy = -10.79733433783685
 DFT Correlation      Energy =  -3.15748535716591
 DFT Exchange         Energy = -85.90375423575630
 One-Electron (alpha) Energy = -2094.35114676494277
 One-Electron (beta)  Energy = -2094.35114676494186
 Total Coulomb        Energy = 1386.69970643972465
    2   -2692.3109305536      9.56e-03  
 Alpha HF Exchange    Energy = -10.69640585527446
 Beta HF Exchange     Energy = -10.69640585527445
 DFT Correlation      Energy =  -3.12720465880496
 DFT Exchange         Energy = -85.10346245906123
 One-Electron (alpha) Energy = -2083.73637794858496
 One-Electron (beta)  Energy = -2083.73637794858405
 Total Coulomb        Energy = 1364.44978798718716
    3   -2692.2988819332      4.75e-03  
 Alpha HF Exchange    Energy = -10.77322615762105
 Beta HF Exchange     Energy = -10.77322615762107
 DFT Correlation      Energy =  -3.14752368438045
 DFT Exchange         Energy = -85.69639639476883
 One-Electron (alpha) Energy = -2092.27653558466363
 One-Electron (beta)  Energy = -2092.27653558466591
 Total Coulomb        Energy = 1382.23637144814916
    4   -2692.3595073104      3.29e-03  
 Alpha HF Exchange    Energy = -10.75052918308167
 Beta HF Exchange     Energy = -10.75052918308168
 DFT Correlation      Energy =  -3.14425823552381
 DFT Exchange         Energy = -85.53448881494693
 One-Electron (alpha) Energy = -2089.45887728393745
 One-Electron (beta)  Energy = -2089.45887728393654
 Total Coulomb        Energy = 1376.33596956675183
    5   -2692.4140256126      1.02e-03  
 Alpha HF Exchange    Energy = -10.74657322092931
 Beta HF Exchange     Energy = -10.74657322092933
 DFT Correlation      Energy =  -3.14181675391501
 DFT Exchange         Energy = -85.49702496530334
 One-Electron (alpha) Energy = -2089.36800882731677
 One-Electron (beta)  Energy = -2089.36800882731950
 Total Coulomb        Energy = 1376.09881453937192
    6   -2692.4216264712      1.15e-04  
 Alpha HF Exchange    Energy = -10.74591438315203
 Beta HF Exchange     Energy = -10.74591438315203
 DFT Correlation      Energy =  -3.14175541756447
 DFT Exchange         Energy = -85.49240745919995
 One-Electron (alpha) Energy = -2089.22013323223791
 One-Electron (beta)  Energy = -2089.22013323223791
 Total Coulomb        Energy = 1375.79696014076285
    7   -2692.4217331616      5.53e-05  
 Alpha HF Exchange    Energy = -10.74607587573974
 Beta HF Exchange     Energy = -10.74607587573971
 DFT Correlation      Energy =  -3.14173040786121
 DFT Exchange         Energy = -85.49353520891992
 One-Electron (alpha) Energy = -2089.25569092996466
 One-Electron (beta)  Energy = -2089.25569092996329
 Total Coulomb        Energy = 1375.86948229122640
    8   -2692.4217521318      1.22e-05  
 Alpha HF Exchange    Energy = -10.74613466338764
 Beta HF Exchange     Energy = -10.74613466338767
 DFT Correlation      Energy =  -3.14175643539038
 DFT Exchange         Energy = -85.49397811455852
 One-Electron (alpha) Energy = -2089.26473905610419
 One-Electron (beta)  Energy = -2089.26473905610646
 Total Coulomb        Energy = 1375.88816381898482
    9   -2692.4217533648      7.01e-07  Convergence criterion met
 ---------------------------------------
 SCF time:   CPU 25.62s  wall 2.00s 
<S^2> =         -0.000000000
 Alpha HF Exchange    Energy = -10.74613466338764
 Beta HF Exchange     Energy = -10.74613466338767
 DFT Correlation      Energy =  -3.14175643539038
 DFT Exchange         Energy = -85.49397811455852
 One-Electron (alpha) Energy = -2089.26473905610419
 One-Electron (beta)  Energy = -2089.26473905610646
 Total Coulomb        Energy = 1375.88816381898482
 Nuclear repulsion Energy = 220.34756480516114
 SCF   energy in the final basis set =    -2692.4217533648
 Total energy in the final basis set =    -2692.4217533648
 
 --------------------------------------------------------------
 
                    Orbital Energies (a.u.)
 --------------------------------------------------------------
 
 Alpha MOs
 -- Occupied --
******* -62.490 -56.312 -56.308 -56.308 -10.266 -10.212 -10.202
 -8.676  -6.506  -6.494  -6.494  -2.599  -2.596  -2.596  -2.587
 -2.587  -0.817  -0.739  -0.686  -0.611  -0.496  -0.453  -0.422
 -0.412  -0.377  -0.360  -0.317  -0.265  -0.264
 -- Virtual --
 -0.068   0.082   0.117   0.119   0.136   0.161   0.164   0.182
  0.204   0.226   0.249   0.357   0.358   0.362   0.464   0.494
  0.494   0.529   0.541   0.593   0.615   0.629   0.646   0.651
  0.704   0.769   0.801   0.816   0.833   0.854   0.864   0.901
  0.902   0.930   0.982   1.081   1.271   1.329   1.348   1.506
  1.577   1.599   1.650   1.745   1.809   1.851   1.934   1.991
  2.030   2.042   2.048   2.095   2.113   2.204   2.222   2.246
  2.349   2.408   2.455   2.532   2.546   2.663   2.723   2.727
  2.799   2.814   2.858   2.894   3.164   3.220   3.303   3.334
  3.449   3.468   3.514   4.240   4.429   4.599   4.744   4.750
  4.781   4.783   4.925   6.307  90.299
 
 Beta MOs
 -- Occupied --
******* -62.490 -56.312 -56.308 -56.308 -10.266 -10.212 -10.202
 -8.676  -6.506  -6.494  -6.494  -2.599  -2.596  -2.596  -2.587
 -2.587  -0.817  -0.739  -0.686  -0.611  -0.496  -0.453  -0.422
 -0.412  -0.377  -0.360  -0.317  -0.265  -0.264
 -- Virtual --
 -0.068   0.082   0.117   0.119   0.136   0.161   0.164   0.182
  0.204   0.226   0.249   0.357   0.358   0.362   0.464   0.494
  0.494   0.529   0.541   0.593   0.615   0.629   0.646   0.651
  0.704   0.769   0.801   0.816   0.833   0.854   0.864   0.901
  0.902   0.930   0.982   1.081   1.271   1.329   1.348   1.506
  1.577   1.599   1.650   1.745   1.809   1.851   1.934   1.991
  2.030   2.042   2.048   2.095   2.113   2.204   2.222   2.246
  2.349   2.408   2.455   2.532   2.546   2.663   2.723   2.727
  2.799   2.814   2.858   2.894   3.164   3.220   3.303   3.334
  3.449   3.468   3.514   4.240   4.429   4.599   4.744   4.750
  4.781   4.783   4.925   6.307  90.299
 --------------------------------------------------------------
 
          Ground-State Mulliken Net Atomic Charges

     Atom                 Charge (a.u.)    Spin (a.u.)
  --------------------------------------------------------
      1 Br                   -0.238120       0.000000
      2 C                    -0.183658      -0.000000
      3 C                    -0.202656      -0.000000
      4 C                    -0.333577      -0.000000
      5 H                     0.134927      -0.000000
      6 H                     0.134949       0.000000
      7 H                     0.165471       0.000000
      8 H                     0.165414       0.000000
      9 H                     0.125396      -0.000000
     10 H                     0.115940       0.000000
     11 H                     0.115914       0.000000
  --------------------------------------------------------
  Sum of atomic charges =    -0.000000
  Sum of spin   charges =     0.000000

 -----------------------------------------------------------------
                    Cartesian Multipole Moments
 -----------------------------------------------------------------
    Charge (ESU x 10^10)
                -0.0000
    Dipole Moment (Debye)
         X      -3.6026      Y      -0.8747      Z      -0.0302
       Tot       3.7074
    Quadrupole Moments (Debye-Ang)
        XX     -45.3797     XY      -0.7495     YY     -38.0418
        XZ      -0.0725     YZ      -0.0067     ZZ     -38.5986
    Octopole Moments (Debye-Ang^2)
       XXX    -101.2310    XXY       0.4227    XYY     -30.2689
       YYY      -8.6491    XXZ      -0.5257    XYZ       0.0295
       YYZ      -0.4266    XZZ     -31.1864    YZZ      -3.8969
       ZZZ      -1.4083
    Hexadecapole Moments (Debye-Ang^3)
      XXXX    -975.7658   XXXY     -14.7026   XXYY    -178.5477
      XYYY     -25.7576   YYYY     -99.2884   XXXZ      -3.5446
      XXYZ      -0.0021   XYYZ      -1.2409   YYYZ      -0.4503
      XXZZ    -177.7220   XYZZ      -7.9914   YYZZ     -24.5055
      XZZZ      -3.7139   YZZZ      -0.3068   ZZZZ     -63.4856
 -----------------------------------------------------------------
 Calculating analytic gradient of the SCF energy
 Gradient of SCF Energy
            1           2           3           4           5           6
    1   0.0375101   0.0000851  -0.0375735   0.0001204   0.0000226  -0.0000058
    2   0.0151918  -0.0001428  -0.0144359  -0.0001823   0.0000583   0.0000348
    3   0.0003870   0.0000160  -0.0003304   0.0000124  -0.0000585   0.0000474
            7           8           9          10          11
    1   0.0000095  -0.0000535  -0.0001115   0.0000041  -0.0000074
    2  -0.0001551  -0.0002100  -0.0000789  -0.0000341  -0.0000459
    3   0.0000571  -0.0000877  -0.0000113   0.0000000  -0.0000319
 Max gradient component =       3.757E-02
 RMS gradient           =       9.937E-03
 Gradient time:  CPU 10.66 s  wall 0.93 s
 Geometry Optimization Parameters
   NAtoms,    NIC,     NZ,  NCons,   NDum,   NFix, NCnnct, MaxDiis
       11      68       0       1       0       0       0       0

 Cartesian Hessian Update
 Hessian Updated using BFGS Update


** CONSTRAINED OPTIMIZATION IN DELOCALIZED INTERNAL COORDINATES **
   Searching for a Minimum

   Optimization Cycle:   4

                       Coordinates (Angstroms)
     ATOM                X               Y               Z
      1  Br        2.4811592349    0.2255189536    0.0235035066
      2  C        -0.6435283303    0.4964745580    0.0072843832
      3  C         0.3465882108   -0.6307525122    0.0033727165
      4  C        -2.0756076611   -0.0784915904   -0.0079250468
      5  H        -0.4984587813    1.1182470607    0.8953766132
      6  H        -0.4869643635    1.1339840940   -0.8675817852
      7  H         0.4046413126   -1.2203144092   -0.9079298361
      8  H         0.3927013688   -1.2379835700    0.9036916288
      9  H        -2.8065381573    0.7355751620   -0.0042619767
     10  H        -2.2546959502   -0.6854368597   -0.9013210464
     11  H        -2.2664998832   -0.7042218868    0.8698918431
   Point Group: c1    Number of degrees of freedom:    27


   Energy is  -2692.421753365

              Constraints and their Current Values
                                        Value     Constraint
   Distance(Angs):        1   3             2.300000     2.300000
 Hessian Updated using BFGS Update

 25 Hessian modes will be used to form the next step
  Hessian Eigenvalues:
     0.038589    0.045000    0.045639    0.070294    0.078863    0.082359
     0.083398    0.083869    0.100147    0.129504    0.159415    0.160000
     0.160513    0.164907    0.221003    0.236384    0.285760    0.317177
     0.342359    0.342430    0.343338    0.343354    0.343831    0.350844
     0.351357

 Minimum Search - Taking Simple RFO Step
 Searching for Lamda that Minimizes Along All modes
 Value Taken    Lamda =  -0.00000207
 Step Taken.  Stepsize is  0.005870

                             Maximum     Tolerance    Cnvgd?
         Gradient           0.000245      0.000300     YES
         Displacement       0.003874      0.001200      NO
         Energy change     -0.000078      0.000001      NO


 New Cartesian Coordinates Obtained by Inverse Iteration

 Displacement from previous Coordinates is:  0.006711
 ----------------------------------------------------------------
             Standard Nuclear Orientation (Angstroms)
    I     Atom           X                Y                Z
 ----------------------------------------------------------------
    1      Br      2.4809463657     0.2256799455     0.0230086942
    2      C      -0.6437435850     0.4958259163     0.0073869596
    3      C       0.3467323204    -0.6314946315     0.0034720089
    4      C      -2.0761544156    -0.0782450668    -0.0080364909
    5      H      -0.4990398075     1.1172925060     0.8957662478
    6      H      -0.4873302290     1.1332504218    -0.8675818925
    7      H       0.4058968146    -1.2200840907    -0.9082532042
    8      H       0.3944095390    -1.2373477265     0.9044997572
    9      H      -2.8060728508     0.7366137425    -0.0043306595
   10      H      -2.2554313821    -0.6849500546    -0.9015864345
   11      H      -2.2674157695    -0.7039419618     0.8697560138
 ----------------------------------------------------------------
 Nuclear Repulsion Energy =   220.3457118223 hartrees
 There are       30 alpha and       30 beta electrons

                       Distance Matrix (Angstroms)
             Br(  1)   C (  2)   C (  3)   C (  4)   H (  5)   H (  6)
   C (  2)  3.136385
   C (  3)  2.300000  1.500636
   C (  4)  4.567330  1.543242  2.485276
   H (  5)  3.230634  1.093791  2.137703  2.175652
   H (  6)  3.229164  1.093776  2.137457  2.175064  1.763459
   H (  7)  2.695053  2.210088  1.086821  2.876589  3.088159  2.517477
   H (  8)  2.696500  2.210535  1.086822  2.877486  2.518464  3.088280
   H (  9)  5.311720  2.175726  3.436853  1.093979  2.505492  2.505811
   H ( 10)  4.910947  2.194995  2.755584  1.094835  3.092485  2.536374
   H ( 11)  4.912038  2.195321  2.754899  1.094805  2.538646  3.092301
             H (  7)   H (  8)   H (  9)   H ( 10)
   H (  8)  1.812872
   H (  9)  3.868138  3.868538
   H ( 10)  2.714605  3.254036  1.768931
   H ( 11)  3.251818  2.714966  1.769005  1.771485
 
 Applying Cartesian multipole field
    Component          Value
    ---------          -----
     (2,0,0)        1.00000E-11
     (0,2,0)        2.00000E-10
     (0,0,2)       -3.00000E-10
 Nucleus-field energy     =     0.0000000134 hartrees
 Requested basis set is 6-31G(d,p)
 There are 41 shells and 115 basis functions
 A cutoff of  1.0D-14 yielded    804 shell pairs
 There are      6332 function pairs
 Smallest overlap matrix eigenvalue = 7.25E-04
 Guess from superposition of atomic densities
 Warning:  Energy on first SCF cycle will be non-variational
 SAD guess density has 59.972873 electrons

 -----------------------------------------------------------------------
  General SCF calculation program by
  Eric Jon Sundstrom, Paul Horn, Yuezhi Mao, Dmitri Zuev, Alec White,
  David Stuck, Shaama M.S., Shane Yost, Joonho Lee, David Small,
  Daniel Levine, Susi Lehtola, Hugh Burton, Evgeny Epifanovsky
 -----------------------------------------------------------------------
 Exchange:     0.2000 Hartree-Fock + 0.0800 Slater + 0.7200 B88
 Correlation:  0.1900 VWN1RPA + 0.8100 LYP
 Using SG-1 standard quadrature grid
 using 12 threads for integral computing
 -------------------------------------------------------
 OpenMP Integral computing Module                
 Release: version 1.0, May 2013, Q-Chem Inc. Pittsburgh 
 -------------------------------------------------------
 -------------------------------------------------------
 OpenMP BLAS3 based DFT computing Module                
 Release: version 1.0, May 2013, Q-Chem Inc. Pittsburgh 
 -------------------------------------------------------
 A unrestricted SCF calculation will be
 performed using DIIS
 SCF converges when DIIS error is below 1.0e-06
 Alpha HF Exchange    Energy = -10.72901221056421
 Beta HF Exchange     Energy = -10.72901221056421
 DFT Correlation      Energy =  -3.11796863790527
 DFT Exchange         Energy = -85.00399000656402
 One-Electron (alpha) Energy = -2086.94225206735928
 One-Electron (beta)  Energy = -2086.94225206735928
 Total Coulomb        Energy = 1367.35832839693853
 ---------------------------------------
  Cycle       Energy         DIIS error
 ---------------------------------------
    1   -2695.7604469677      1.64e-01  
 Alpha HF Exchange    Energy = -10.79734407435348
 Beta HF Exchange     Energy = -10.79734407435347
 DFT Correlation      Energy =  -3.15748288033800
 DFT Exchange         Energy = -85.90381174192574
 One-Electron (alpha) Energy = -2094.35091276194817
 One-Electron (beta)  Energy = -2094.35091276194680
 Total Coulomb        Energy = 1386.70120816876283
    2   -2692.3108882905      9.56e-03  
 Alpha HF Exchange    Energy = -10.69639882176414
 Beta HF Exchange     Energy = -10.69639882176414
 DFT Correlation      Energy =  -3.12720447613117
 DFT Exchange         Energy = -85.10342655425681
 One-Electron (alpha) Energy = -2083.73261203852508
 One-Electron (beta)  Energy = -2083.73261203852417
 Total Coulomb        Energy = 1364.44423530031486
    3   -2692.2987056150      4.75e-03  
 Alpha HF Exchange    Energy = -10.77322834195123
 Beta HF Exchange     Energy = -10.77322834195124
 DFT Correlation      Energy =  -3.14751397099190
 DFT Exchange         Energy = -85.69636861940430
 One-Electron (alpha) Energy = -2092.27664514009393
 One-Electron (beta)  Energy = -2092.27664514009484
 Total Coulomb        Energy = 1382.23856597148279
    4   -2692.3593517474      3.29e-03  
 Alpha HF Exchange    Energy = -10.75053856769323
 Beta HF Exchange     Energy = -10.75053856769323
 DFT Correlation      Energy =  -3.14425968613783
 DFT Exchange         Energy = -85.53456969777541
 One-Electron (alpha) Energy = -2089.45781957023155
 One-Electron (beta)  Energy = -2089.45781957023109
 Total Coulomb        Energy = 1376.33582450125073
    5   -2692.4140093229      1.02e-03  
 Alpha HF Exchange    Energy = -10.74657408944704
 Beta HF Exchange     Energy = -10.74657408944703
 DFT Correlation      Energy =  -3.14181410588271
 DFT Exchange         Energy = -85.49702854211128
 One-Electron (alpha) Energy = -2089.36677894041395
 One-Electron (beta)  Energy = -2089.36677894041395
 Total Coulomb        Energy = 1376.09820927855799
    6   -2692.4216275935      1.15e-04  
 Alpha HF Exchange    Energy = -10.74591474960326
 Beta HF Exchange     Energy = -10.74591474960327
 DFT Correlation      Energy =  -3.14175266940490
 DFT Exchange         Energy = -85.49240785074542
 One-Electron (alpha) Energy = -2089.21874338023417
 One-Electron (beta)  Energy = -2089.21874338023463
 Total Coulomb        Energy = 1375.79603061497801
    7   -2692.4217343292      5.54e-05  
 Alpha HF Exchange    Energy = -10.74607712125614
 Beta HF Exchange     Energy = -10.74607712125613
 DFT Correlation      Energy =  -3.14172783749422
 DFT Exchange         Energy = -85.49354223632682
 One-Electron (alpha) Energy = -2089.25443501118571
 One-Electron (beta)  Energy = -2089.25443501118480
 Total Coulomb        Energy = 1375.86882912245778
    8   -2692.4217533806      1.22e-05  
 Alpha HF Exchange    Energy = -10.74613600738483
 Beta HF Exchange     Energy = -10.74613600738484
 DFT Correlation      Energy =  -3.14175391934742
 DFT Exchange         Energy = -85.49398584200462
 One-Electron (alpha) Energy = -2089.26349919739869
 One-Electron (beta)  Energy = -2089.26349919739960
 Total Coulomb        Energy = 1375.88754371620416
    9   -2692.4217546191      7.00e-07  Convergence criterion met
 ---------------------------------------
 SCF time:   CPU 24.98s  wall 2.00s 
<S^2> =         -0.000000000
 Alpha HF Exchange    Energy = -10.74613600738483
 Beta HF Exchange     Energy = -10.74613600738484
 DFT Correlation      Energy =  -3.14175391934742
 DFT Exchange         Energy = -85.49398584200462
 One-Electron (alpha) Energy = -2089.26349919739869
 One-Electron (beta)  Energy = -2089.26349919739960
 Total Coulomb        Energy = 1375.88754371620416
 Nuclear repulsion Energy = 220.34571183564972
 SCF   energy in the final basis set =    -2692.4217546191
 Total energy in the final basis set =    -2692.4217546191
 
 --------------------------------------------------------------
 
                    Orbital Energies (a.u.)
 --------------------------------------------------------------
 
 Alpha MOs
 -- Occupied --
******* -62.490 -56.312 -56.308 -56.308 -10.266 -10.212 -10.202
 -8.676  -6.506  -6.494  -6.494  -2.599  -2.596  -2.596  -2.587
 -2.587  -0.817  -0.739  -0.686  -0.611  -0.496  -0.453  -0.423
 -0.412  -0.377  -0.360  -0.317  -0.265  -0.264
 -- Virtual --
 -0.068   0.082   0.116   0.120   0.136   0.161   0.164   0.182
  0.204   0.226   0.249   0.357   0.358   0.362   0.464   0.494
  0.494   0.529   0.541   0.593   0.615   0.629   0.646   0.651
  0.704   0.769   0.801   0.816   0.833   0.854   0.864   0.901
  0.902   0.930   0.982   1.081   1.271   1.329   1.348   1.506
  1.577   1.599   1.650   1.746   1.809   1.851   1.934   1.990
  2.030   2.042   2.047   2.095   2.113   2.204   2.222   2.247
  2.350   2.408   2.456   2.532   2.545   2.662   2.723   2.726
  2.798   2.814   2.858   2.894   3.164   3.221   3.303   3.334
  3.449   3.467   3.514   4.240   4.429   4.599   4.744   4.750
  4.781   4.783   4.925   6.307  90.299
 
 Beta MOs
 -- Occupied --
******* -62.490 -56.312 -56.308 -56.308 -10.266 -10.212 -10.202
 -8.676  -6.506  -6.494  -6.494  -2.599  -2.596  -2.596  -2.587
 -2.587  -0.817  -0.739  -0.686  -0.611  -0.496  -0.453  -0.423
 -0.412  -0.377  -0.360  -0.317  -0.265  -0.264
 -- Virtual --
 -0.068   0.082   0.116   0.120   0.136   0.161   0.164   0.182
  0.204   0.226   0.249   0.357   0.358   0.362   0.464   0.494
  0.494   0.529   0.541   0.593   0.615   0.629   0.646   0.651
  0.704   0.769   0.801   0.816   0.833   0.854   0.864   0.901
  0.902   0.930   0.982   1.081   1.271   1.329   1.348   1.506
  1.577   1.599   1.650   1.746   1.809   1.851   1.934   1.990
  2.030   2.042   2.047   2.095   2.113   2.204   2.222   2.247
  2.350   2.408   2.456   2.532   2.545   2.662   2.723   2.726
  2.798   2.814   2.858   2.894   3.164   3.221   3.303   3.334
  3.449   3.467   3.514   4.240   4.429   4.599   4.744   4.750
  4.781   4.783   4.925   6.307  90.299
 --------------------------------------------------------------
 
          Ground-State Mulliken Net Atomic Charges

     Atom                 Charge (a.u.)    Spin (a.u.)
  --------------------------------------------------------
      1 Br                   -0.238341      -0.000000
      2 C                    -0.183708       0.000000
      3 C                    -0.202700       0.000000
      4 C                    -0.333490      -0.000000
      5 H                     0.134905      -0.000000
      6 H                     0.134955       0.000000
      7 H                     0.165612      -0.000000
      8 H                     0.165566       0.000000
      9 H                     0.125410       0.000000
     10 H                     0.115910       0.000000
     11 H                     0.115880       0.000000
  --------------------------------------------------------
  Sum of atomic charges =    -0.000000
  Sum of spin   charges =    -0.000000

 -----------------------------------------------------------------
                    Cartesian Multipole Moments
 -----------------------------------------------------------------
    Charge (ESU x 10^10)
                -0.0000
    Dipole Moment (Debye)
         X      -3.6030      Y      -0.8760      Z      -0.0294
       Tot       3.7080
    Quadrupole Moments (Debye-Ang)
        XX     -45.3880     XY      -0.7553     YY     -38.0443
        XZ      -0.0712     YZ      -0.0070     ZZ     -38.5935
    Octopole Moments (Debye-Ang^2)
       XXX    -101.2252    XXY       0.4229    XYY     -30.2629
       YYY      -8.6419    XXZ      -0.5161    XYZ       0.0284
       YYZ      -0.4183    XZZ     -31.1786    YZZ      -3.8997
       ZZZ      -1.3803
    Hexadecapole Moments (Debye-Ang^3)
      XXXX    -975.9220   XXXY     -14.7149   XXYY    -178.5398
      XYYY     -25.7644   YYYY     -99.2935   XXXZ      -3.4868
      XXYZ      -0.0039   XYYZ      -1.2194   YYYZ      -0.4440
      XXZZ    -177.7236   XYZZ      -7.9983   YYZZ     -24.5030
      XZZZ      -3.6462   YZZZ      -0.3009   ZZZZ     -63.4822
 -----------------------------------------------------------------
 Calculating analytic gradient of the SCF energy
 Gradient of SCF Energy
            1           2           3           4           5           6
    1   0.0374292   0.0000434  -0.0375307   0.0000196  -0.0000335  -0.0000569
    2   0.0151517  -0.0000412  -0.0148474  -0.0000761   0.0000320   0.0000132
    3   0.0003741   0.0000165  -0.0003264   0.0000103  -0.0000150   0.0000054
            7           8           9          10          11
    1   0.0000890   0.0000309  -0.0000436   0.0000318   0.0000208
    2   0.0000002  -0.0000503  -0.0000810  -0.0000444  -0.0000566
    3   0.0000087  -0.0000323  -0.0000108  -0.0000204  -0.0000100
 Max gradient component =       3.753E-02
 RMS gradient           =       9.939E-03
 Gradient time:  CPU 10.68 s  wall 0.93 s
 Geometry Optimization Parameters
   NAtoms,    NIC,     NZ,  NCons,   NDum,   NFix, NCnnct, MaxDiis
       11      68       0       1       0       0       0       0

 Cartesian Hessian Update
 Hessian Updated using BFGS Update


** CONSTRAINED OPTIMIZATION IN DELOCALIZED INTERNAL COORDINATES **
   Searching for a Minimum

   Optimization Cycle:   5

                       Coordinates (Angstroms)
     ATOM                X               Y               Z
      1  Br        2.4809463657    0.2256799455    0.0230086942
      2  C        -0.6437435850    0.4958259163    0.0073869596
      3  C         0.3467323204   -0.6314946315    0.0034720089
      4  C        -2.0761544156   -0.0782450668   -0.0080364909
      5  H        -0.4990398075    1.1172925060    0.8957662478
      6  H        -0.4873302290    1.1332504218   -0.8675818925
      7  H         0.4058968146   -1.2200840907   -0.9082532042
      8  H         0.3944095390   -1.2373477265    0.9044997572
      9  H        -2.8060728508    0.7366137425   -0.0043306595
     10  H        -2.2554313821   -0.6849500546   -0.9015864345
     11  H        -2.2674157695   -0.7039419618    0.8697560138
   Point Group: c1    Number of degrees of freedom:    27


   Energy is  -2692.421754619

              Constraints and their Current Values
                                        Value     Constraint
   Distance(Angs):        1   3             2.300000     2.300000
 Hessian Updated using BFGS Update

 25 Hessian modes will be used to form the next step
  Hessian Eigenvalues:
     0.033446    0.045000    0.049039    0.070290    0.078823    0.082359
     0.083396    0.083814    0.101329    0.129504    0.142837    0.159996
     0.161430    0.164544    0.220582    0.225638    0.286802    0.308329
     0.342361    0.342481    0.343294    0.343339    0.344014    0.349754
     0.350844

 Minimum Search - Taking Simple RFO Step
 Searching for Lamda that Minimizes Along All modes
 Value Taken    Lamda =   0.00000000
 Step Taken.  Stepsize is  0.002145

                             Maximum     Tolerance    Cnvgd?
         Gradient           0.000073      0.000300     YES
         Displacement       0.000926      0.001200     YES
         Energy change     -0.000001      0.000001      NO


                       Distance Matrix (Angstroms)
             Br(  1)   C (  2)   C (  3)   C (  4)   H (  5)   H (  6)
   C (  2)  3.136385
   C (  3)  2.300000  1.500636
   C (  4)  4.567330  1.543242  2.485276
   H (  5)  3.230634  1.093791  2.137703  2.175652
   H (  6)  3.229164  1.093776  2.137457  2.175064  1.763459
   H (  7)  2.695053  2.210088  1.086821  2.876589  3.088159  2.517477
   H (  8)  2.696500  2.210535  1.086822  2.877486  2.518464  3.088280
   H (  9)  5.311720  2.175726  3.436853  1.093979  2.505492  2.505811
   H ( 10)  4.910947  2.194995  2.755584  1.094835  3.092485  2.536374
   H ( 11)  4.912038  2.195321  2.754899  1.094805  2.538646  3.092301
             H (  7)   H (  8)   H (  9)   H ( 10)
   H (  8)  1.812872
   H (  9)  3.868138  3.868538
   H ( 10)  2.714605  3.254036  1.768931
   H ( 11)  3.251818  2.714966  1.769005  1.771485
 
 Final energy is   -2692.42175461907     


 ******************************
 **  OPTIMIZATION CONVERGED  **
 ******************************

                       Coordinates (Angstroms)
     ATOM                X               Y               Z
      1  Br        2.4809463657    0.2256799455    0.0230086942
      2  C        -0.6437435850    0.4958259163    0.0073869596
      3  C         0.3467323204   -0.6314946315    0.0034720089
      4  C        -2.0761544156   -0.0782450668   -0.0080364909
      5  H        -0.4990398075    1.1172925060    0.8957662478
      6  H        -0.4873302290    1.1332504218   -0.8675818925
      7  H         0.4058968146   -1.2200840907   -0.9082532042
      8  H         0.3944095390   -1.2373477265    0.9044997572
      9  H        -2.8060728508    0.7366137425   -0.0043306595
     10  H        -2.2554313821   -0.6849500546   -0.9015864345
     11  H        -2.2674157695   -0.7039419618    0.8697560138

Z-matrix Print:
$molecule
0 1
Br
C  1 2.300000
H  2 1.086821 1 99.116721
H  2 1.086822 1 99.207242 3 115.301479 0
C  2 1.500636 1 109.418632 3 -122.303719 0
H  5 1.093776 2 109.957453 1 58.999954 0
H  5 1.093791 2 109.976182 1 -59.114925 0
C  5 1.543242 2 109.460662 1 179.908588 0
H  8 1.093979 5 110.009946 2 179.945776 0
H  8 1.094805 5 111.514545 2 60.336369 0
H  8 1.094835 5 111.486627 2 -60.473694 0
$end

PES scan, value:    2.3000 energy: -2692.4217546191
------- Summary of potential scan: ------ 
    2.3000     -2692.4217546191
----------------------------------------- 
Archival summary:
1\1\hpc0242\JobtypUnspecified\ProcedureUnspecified\6-31G**\r137\knomura\WedMar1316:13:142019WedMar1316:13:142019\0\\#,JobtypUnspecified,ProcedureUnspecified,6-31G**,\\0,1\Br\C,1,2.3\H,2,1.08682,1,99.1167\H,2,1.08682,1,99.2072,3,115.301,0\C,2,1.50064,1,109.419,3,-122.304,0\H,5,1.09378,2,109.957,1,59,0\H,5,1.09379,2,109.976,1,-59.1149,0\C,5,1.54324,2,109.461,1,179.909,0\H,8,1.09398,5,110.01,2,179.946,0\H,8,1.0948,5,111.515,2,60.3364,0\H,8,1.09483,5,111.487,2,-60.4737,0\\\@

 Total job time:  18.29s(wall), 205.11s(cpu) 
 Wed Mar 13 16:13:14 2019

        *************************************************************
        *                                                           *
        *  Thank you very much for using Q-Chem.  Have a nice day.  *
        *                                                           *
        *************************************************************


