
Running Job 1 of 1 halogens/Bromine/02/Br_3.xyz.data/inputs/bond_singlet_1.6.in
qchem halogens/Bromine/02/Br_3.xyz.data/inputs/bond_singlet_1.6.in_24713.0 /staging/scratch/2868759/qchem24713/ 1
/usr/usc/qchem/5.1.1/exe/qcprog.exe_s halogens/Bromine/02/Br_3.xyz.data/inputs/bond_singlet_1.6.in_24713.0 /staging/scratch/2868759/qchem24713/
Check license passed

                  Welcome to Q-Chem
     A Quantum Leap Into The Future Of Chemistry


 Q-Chem 5.1, Q-Chem, Inc., Pleasanton, CA (2018)

 Yihan Shao,  Zhengting Gan,  E. Epifanovsky,  A. T. B. Gilbert,  M. Wormit,  
 J. Kussmann,  A. W. Lange,  A. Behn,  Jia Deng,  Xintian Feng,  D. Ghosh,  
 M. Goldey,  P. R. Horn,  L. D. Jacobson,  I. Kaliman,  T. Kus,  A. Landau,  
 Jie Liu,  E. I. Proynov,  R. M. Richard,  R. P. Steele,  E. J. Sundstrom,  
 H. L. Woodcock III,  P. M. Zimmerman,  D. Zuev,  B. Albrecht,  E. Alguire,  
 S. A. Baeppler,  D. Barton,  Z. Benda,  Y. A. Bernard,  E. J. Berquist,  
 K. B. Bravaya,  H. Burton,  D. Casanova,  Chun-Min Chang,  Yunqing Chen,  
 A. Chien,  K. D. Closser,  M. P. Coons,  S. Coriani,  S. Dasgupta,  
 A. L. Dempwolff,  M. Diedenhofen,  Hainam Do,  R. G. Edgar,  Po-Tung Fang,  
 S. Faraji,  S. Fatehi,  Qingguo Feng,  K. D. Fenk,  J. Fosso-Tande,  
 Qinghui Ge,  A. Ghysels,  G. Gidofalvi,  J. Gomes,  J. Gonthier,  A. Gunina,  
 D. Hait,  M. W. D. Hanson-Heine,  P. H. P. Harbach,  A. W. Hauser,  
 J. E. Herr,  E. G. Hohenstein,  Z. C. Holden,  Kerwin Hui,  B. C. Huynh,  
 T.-C. Jagau,  Hyunjun Ji,  B. Kaduk,  K. Khistyaev,  Jaehoon Kim,  
 P. Klunzinger,  K. Koh,  D. Kosenkov,  L. Koulias,  T. Kowalczyk,  
 C. M. Krauter,  A. Kunitsa,  Ka Un Lao,  A. Laurent,  K. V. Lawler,  
 Joonho Lee,  D. Lefrancois,  S. Lehtola,  D. S. Levine,  Yi-Pei Li,  
 You-Sheng Lin,  Fenglai Liu,  E. Livshits,  A. Luenser,  P. Manohar,  
 E. Mansoor,  S. F. Manzer,  Shan-Ping Mao,  Yuezhi Mao,  N. Mardirossian,  
 A. V. Marenich,  T. Markovich,  L. A. Martinez-Martinez,  S. A. Maurer,  
 N. J. Mayhall,  S. C. McKenzie,  J.-M. Mewes,  A. F. Morrison,  
 J. W. Mullinax,  K. Nanda,  T. S. Nguyen-Beck,  R. Olivares-Amaya,  
 J. A. Parkhill,  T. M. Perrine,  F. Plasser,  P. Pokhilko,  S. Prager,  
 A. Prociuk,  E. Ramos,  D. R. Rehn,  F. Rob,  M. Schneider,  N. Sergueev,  
 S. M. Sharada,  S. Sharma,  D. W. Small,  T. Stauch,  T. Stein,  
 Yu-Chuan Su,  A. J. W. Thom,  A. Tkatchenko,  T. Tsuchimochi,  N. M. Tubman,  
 L. Vogt,  M. L. Vidal,  O. Vydrov,  M. A. Watson,  J. Wenzel,  
 M. de Wergifosse,  T. A. Wesolowski,  A. White,  J. Witte,  A. Yamada,  
 Jun Yang,  K. Yao,  S. Yeganeh,  S. R. Yost,  Zhi-Qiang You,  A. Zech,  
 Igor Ying Zhang,  Xing Zhang,  Yan Zhao,  Ying Zhu,  B. R. Brooks,  
 G. K. L. Chan,  C. J. Cramer,  M. S. Gordon,  W. J. Hehre,  A. Klamt,  
 M. W. Schmidt,  C. D. Sherrill,  D. G. Truhlar,  A. Aspuru-Guzik,  R. Baer,  
 A. T. Bell,  N. A. Besley,  Jeng-Da Chai,  A. E. DePrince, III,  
 R. A. DiStasio Jr.,  A. Dreuw,  B. D. Dunietz,  T. R. Furlani,  
 Chao-Ping Hsu,  Yousung Jung,  Jing Kong,  D. S. Lambrecht,  WanZhen Liang,  
 C. Ochsenfeld,  V. A. Rassolov,  L. V. Slipchenko,  J. E. Subotnik,  
 T. Van Voorhis,  J. M. Herbert,  A. I. Krylov,  P. M. W. Gill,  M. Head-Gordon

 Contributors to earlier versions of Q-Chem not listed above: 
 R. D. Adamson,  B. Austin,  J. Baker,  G. J. O. Beran,  K. Brandhorst,  
 S. T. Brown,  E. F. C. Byrd,  A. K. Chakraborty,  C.-L. Cheng,  
 Siu Hung Chien,  D. M. Chipman,  D. L. Crittenden,  H. Dachsel,  
 R. J. Doerksen,  A. D. Dutoi,  L. Fusti-Molnar,  W. A. Goddard III,  
 A. Golubeva-Zadorozhnaya,  S. R. Gwaltney,  G. Hawkins,  A. Heyden,  
 S. Hirata,  G. Kedziora,  F. J. Keil,  C. Kelley,  Jihan Kim,  R. A. King,  
 R. Z. Khaliullin,  P. P. Korambath,  W. Kurlancheek,  A. M. Lee,  M. S. Lee,  
 S. V. Levchenko,  Ching Yeh Lin,  D. Liotard,  R. C. Lochan,  I. Lotan,  
 P. E. Maslen,  N. Nair,  D. P. O'Neill,  D. Neuhauser,  E. Neuscamman,  
 C. M. Oana,  R. Olson,  B. Peters,  R. Peverati,  P. A. Pieniazek,  
 Y. M. Rhee,  J. Ritchie,  M. A. Rohrdanz,  E. Rosta,  N. J. Russ,  
 H. F. Schaefer III,  N. E. Schultz,  N. Shenvi,  A. C. Simmonett,  A. Sodt,  
 D. Stuck,  K. S. Thanthiriwatte,  V. Vanovschi,  Tao Wang,  A. Warshel,  
 C. F. Williams,  Q. Wu,  X. Xu,  W. Zhang

 Please cite Q-Chem as follows:
 Y. Shao et al., Mol. Phys. 113, 184-215 (2015)
 DOI: 10.1080/00268976.2014.952696

 Q-Chem 5.1.1 for Intel X86 EM64T Linux

 Parts of Q-Chem use Armadillo 8.300.2 (Tropical Shenanigans).
 http://arma.sourceforge.net/

 Q-Chem begins on Wed Mar 13 15:59:54 2019  

Host: 
0

     Scratch files written to /staging/scratch/2868759/qchem24713//
 Aug318 |scratch|qcdevops|jenkins|workspace|build_RNUM 6013   
Processing $rem in /usr/usc/qchem/5.1.1/config/preferences.
 MEM_TOTAL  2000 
Input Ideriv = 2
Curr. Ideriv = -1
Max.  Ideriv = 2

Checking the input file for inconsistencies... 	...done.

--------------------------------------------------------------
User input:
--------------------------------------------------------------

$comment
potential surface scanner
$end

$rem
JOBTYPE  PES_SCAN
UNRESTRICTED TRUE
SYM_IGNORE  TRUE
GEOM_OPT_MAX_CYCLES 400
SCF_MAX_CYCLES 400
METHOD   B3LYP
BASIS   6-31G**
PDB_PRINT 2
SCF_CONVERGENCE 6
THRESH 14
SCF_PRINT 1
$end
$molecule
0 1
Br 2.210600 0.183000 -0.010500
C -0.617000 0.498300 0.014000
C 0.429200 -0.601700 0.010200
C -2.022700 -0.079700 -0.013600
H -0.503100 1.127200 0.905100
H -0.483600 1.153700 -0.855200
H 0.357400 -1.232600 -0.880100
H 0.371000 -1.225900 0.906000
H -2.764000 0.725600 -0.009200
H -2.181500 -0.682500 -0.913600
H -2.203500 -0.712800 0.861000
$end
$scan
stre 1 3 1.600000 1.601000 0.100000
$end
--------------------------------------------------------------
 ----------------------------------------------------------------
             Standard Nuclear Orientation (Angstroms)
    I     Atom           X                Y                Z
 ----------------------------------------------------------------
    1      Br      2.2106000000     0.1830000000    -0.0105000000
    2      C      -0.6170000000     0.4983000000     0.0140000000
    3      C       0.4292000000    -0.6017000000     0.0102000000
    4      C      -2.0227000000    -0.0797000000    -0.0136000000
    5      H      -0.5031000000     1.1272000000     0.9051000000
    6      H      -0.4836000000     1.1537000000    -0.8552000000
    7      H       0.3574000000    -1.2326000000    -0.8801000000
    8      H       0.3710000000    -1.2259000000     0.9060000000
    9      H      -2.7640000000     0.7256000000    -0.0092000000
   10      H      -2.1815000000    -0.6825000000    -0.9136000000
   11      H      -2.2035000000    -0.7128000000     0.8610000000
 ----------------------------------------------------------------
 Nuclear Repulsion Energy =   237.5037137111 hartrees
 There are       30 alpha and       30 beta electrons
 Requested basis set is 6-31G(d,p)
 There are 41 shells and 115 basis functions

 Total QAlloc Memory Limit   2000 MB
 Mega-Array Size       188 MB
 MEM_STATIC part       192 MB
A total of 1 constraints
  
            1
    1   1.0100000
    2   1.0100000
    3   3.0100000
    4   1.6000000
    5   1.6010000
    6   0.1000000
    7   0.0000000
    8   0.0000000
    9   0.0000000
   10   0.0000000

                       Distance Matrix (Angstroms)
             Br(  1)   C (  2)   C (  3)   C (  4)   H (  5)   H (  6)
   C (  2)  2.845230
   C (  3)  1.946681  1.518074
   C (  4)  4.241444  1.520144  2.506963
   H (  5)  3.015627  1.096607  2.158501  2.147045
   H (  6)  2.985714  1.096747  2.159525  2.144387  1.760607
   H (  7)  2.488871  2.178276  1.093537  2.782962  3.081567  2.530282
   H (  8)  2.491806  2.178227  1.093376  2.808779  2.510205  3.081341
   H (  9)  5.004104  2.159123  3.458125  1.094556  2.471618  2.469658
   H ( 10)  4.566752  2.168500  2.770503  1.094799  3.065895  2.501581
   H ( 11)  4.587619  2.168215  2.768991  1.094728  2.505774  3.063857
             H (  7)   H (  8)   H (  9)   H ( 10)
   H (  8)  1.786164
   H (  9)  3.786311  3.804493
   H ( 10)  2.598027  3.181428  1.772002
   H ( 11)  3.140037  2.625518  1.772118  1.774995
 
 A cutoff of  1.0D-14 yielded    814 shell pairs
 There are      6422 function pairs
 
 -------------------------------------------------------
 OpenMP Integral Computing Module                       
 Release: version 1.0, May 2013, Q-Chem Inc. Pittsburgh 
 -------------------------------------------------------
 Integral Job Info:
 Integral job number is                      11
 Integral operator is                         1
 short-range coefficients                     0
 long-range coefficients              100000000
 Omega coefficients                           0
 if combine SR and LR in K                    0
 Integral screening is                        0
 Integral computing path is                   2
 max size of driver memory is            800000
 size of driver memory is                593474
 size of scratch memory is             15267112
 max col of scratch BK array               1296
 max len of scratch array in speh3          155
 max len of scratch index in speh4           18
 max int batch size is                      520
 min int batch size is                       52
 fixed nKL is                                52
 max L of basis functions is                  2
 order of int derivative is                   0
 number of shells is                         41
 number of basis is                         115
 number of cartesian basis is               115
 number of contracted shell pairs           814
 number of primitive shell pairs           3219
 maxK2 (contraction) of shell pair           36
 max number of K2 of shell pair               1
 max number of CS2 of shell pair             57
 max number of PS2 of shell pair            240
 mem total for path MDJ                  519084
 -------------------------------------------------------
 Smallest overlap matrix eigenvalue = 7.23E-04

 Scale SEOQF with 1.000000e-01/1.000000e+00/1.000000e+00

 Standard Electronic Orientation quadrupole field applied
 Nucleus-field energy     =     0.0000000113 hartrees
 Guess from superposition of atomic densities
 Warning:  Energy on first SCF cycle will be non-variational
 SAD guess density has 59.972873 electrons

 -----------------------------------------------------------------------
  General SCF calculation program by
  Eric Jon Sundstrom, Paul Horn, Yuezhi Mao, Dmitri Zuev, Alec White,
  David Stuck, Shaama M.S., Shane Yost, Joonho Lee, David Small,
  Daniel Levine, Susi Lehtola, Hugh Burton, Evgeny Epifanovsky
 -----------------------------------------------------------------------
 Exchange:     0.2000 Hartree-Fock + 0.0800 Slater + 0.7200 B88
 Correlation:  0.1900 VWN1RPA + 0.8100 LYP
 Using SG-1 standard quadrature grid
 using 12 threads for integral computing
 -------------------------------------------------------
 OpenMP Integral computing Module                
 Release: version 1.0, May 2013, Q-Chem Inc. Pittsburgh 
 -------------------------------------------------------
 -------------------------------------------------------
 OpenMP BLAS3 based DFT computing Module                
 Release: version 1.0, May 2013, Q-Chem Inc. Pittsburgh 
 -------------------------------------------------------
 A unrestricted SCF calculation will be
 performed using DIIS
 SCF converges when DIIS error is below 1.0e-06
 Alpha HF Exchange    Energy = -10.75116131180963
 Beta HF Exchange     Energy = -10.75116131180963
 DFT Correlation      Energy =  -3.12553974463983
 DFT Exchange         Energy = -85.04693672809560
 One-Electron (alpha) Energy = -2104.04846455118195
 One-Electron (beta)  Energy = -2104.04846455118195
 Total Coulomb        Energy = 1384.26546275815099
 ---------------------------------------
  Cycle       Energy         DIIS error
 ---------------------------------------
    1   -2696.0025517182      1.65e-01  
 Alpha HF Exchange    Energy = -10.80426657489113
 Beta HF Exchange     Energy = -10.80426657489113
 DFT Correlation      Energy =  -3.16563122924080
 DFT Exchange         Energy = -85.95158398921339
 One-Electron (alpha) Energy = -2110.80858455185580
 One-Electron (beta)  Energy = -2110.80858455185580
 Total Coulomb        Energy = 1402.50751648147616
    2   -2692.3316872682      9.52e-03  
 Alpha HF Exchange    Energy = -10.70800501736163
 Beta HF Exchange     Energy = -10.70800501736161
 DFT Correlation      Energy =  -3.13297170361108
 DFT Exchange         Energy = -85.17038135665280
 One-Electron (alpha) Energy = -2101.83324324109662
 One-Electron (beta)  Energy = -2101.83324324109572
 Total Coulomb        Energy = 1383.54438325168599
    3   -2692.3377526032      4.22e-03  
 Alpha HF Exchange    Energy = -10.78025930755341
 Beta HF Exchange     Energy = -10.78025930755343
 DFT Correlation      Energy =  -3.15831522122913
 DFT Exchange         Energy = -85.75507720761908
 One-Electron (alpha) Energy = -2108.34244354004613
 One-Electron (beta)  Energy = -2108.34244354004750
 Total Coulomb        Energy = 1397.25758019946147
    4   -2692.3975042023      2.59e-03  
 Alpha HF Exchange    Energy = -10.75711166230037
 Beta HF Exchange     Energy = -10.75711166230036
 DFT Correlation      Energy =  -3.14936490291456
 DFT Exchange         Energy = -85.56515626134835
 One-Electron (alpha) Energy = -2106.59292772402159
 One-Electron (beta)  Energy = -2106.59292772401977
 Total Coulomb        Energy = 1393.47663635360846
    5   -2692.4342498610      4.36e-04  
 Alpha HF Exchange    Energy = -10.75522223501858
 Beta HF Exchange     Energy = -10.75522223501858
 DFT Correlation      Energy =  -3.14947933416972
 DFT Exchange         Energy = -85.55187363651891
 One-Electron (alpha) Energy = -2106.27122748747479
 One-Electron (beta)  Energy = -2106.27122748747433
 Total Coulomb        Energy = 1392.81518334957468
    6   -2692.4353553438      7.80e-05  
 Alpha HF Exchange    Energy = -10.75484352496757
 Beta HF Exchange     Energy = -10.75484352496757
 DFT Correlation      Energy =  -3.14923294739929
 DFT Exchange         Energy = -85.54849776039158
 One-Electron (alpha) Energy = -2106.23729330737524
 One-Electron (beta)  Energy = -2106.23729330737524
 Total Coulomb        Energy = 1392.74290161427643
    7   -2692.4353890359      2.67e-05  
 Alpha HF Exchange    Energy = -10.75489535287188
 Beta HF Exchange     Energy = -10.75489535287190
 DFT Correlation      Energy =  -3.14924650558947
 DFT Exchange         Energy = -85.54894816219488
 One-Electron (alpha) Energy = -2106.24538084134292
 One-Electron (beta)  Energy = -2106.24538084134429
 Total Coulomb        Energy = 1392.75964003692411
    8   -2692.4353932970      6.46e-06  
 Alpha HF Exchange    Energy = -10.75491206979163
 Beta HF Exchange     Energy = -10.75491206979163
 DFT Correlation      Energy =  -3.14925234704224
 DFT Exchange         Energy = -85.54907461389946
 One-Electron (alpha) Energy = -2106.24799678880663
 One-Electron (beta)  Energy = -2106.24799678880618
 Total Coulomb        Energy = 1392.76503734308926
    9   -2692.4353936127      6.13e-07  Convergence criterion met
 ---------------------------------------
 SCF time:   CPU 26.72s  wall 2.00s 
<S^2> =          0.000000000
 Alpha HF Exchange    Energy = -10.75491206979163
 Beta HF Exchange     Energy = -10.75491206979163
 DFT Correlation      Energy =  -3.14925234704224
 DFT Exchange         Energy = -85.54907461389946
 One-Electron (alpha) Energy = -2106.24799678880663
 One-Electron (beta)  Energy = -2106.24799678880618
 Total Coulomb        Energy = 1392.76503734308926
 Nuclear repulsion Energy = 237.50371372232067
 SCF   energy in the final basis set =    -2692.4353936127
 Total energy in the final basis set =    -2692.4353936127
 
 --------------------------------------------------------------
 
                    Orbital Energies (a.u.)
 --------------------------------------------------------------
 
 Alpha MOs
 -- Occupied --
******* -62.505 -56.326 -56.322 -56.322 -10.242 -10.198 -10.187
 -8.692  -6.522  -6.509  -6.509  -2.616  -2.612  -2.612  -2.602
 -2.602  -0.828  -0.763  -0.668  -0.600  -0.487  -0.442  -0.420
 -0.414  -0.363  -0.349  -0.348  -0.273  -0.273
 -- Virtual --
  0.004   0.091   0.122   0.123   0.143   0.169   0.172   0.181
  0.208   0.230   0.255   0.341   0.349   0.362   0.469   0.491
  0.493   0.538   0.539   0.601   0.604   0.626   0.663   0.691
  0.774   0.799   0.809   0.843   0.858   0.878   0.878   0.905
  0.922   0.948   1.011   1.087   1.304   1.360   1.371   1.557
  1.601   1.641   1.677   1.742   1.835   1.868   1.965   2.031
  2.046   2.063   2.093   2.101   2.154   2.211   2.253   2.261
  2.335   2.440   2.468   2.514   2.573   2.686   2.725   2.739
  2.796   2.839   2.885   2.907   3.169   3.225   3.310   3.323
  3.460   3.469   3.543   4.248   4.439   4.617   4.731   4.751
  4.821   4.823   4.993   6.304  90.365
 
 Beta MOs
 -- Occupied --
******* -62.505 -56.326 -56.322 -56.322 -10.242 -10.198 -10.187
 -8.692  -6.522  -6.509  -6.509  -2.616  -2.612  -2.612  -2.602
 -2.602  -0.828  -0.763  -0.668  -0.600  -0.487  -0.442  -0.420
 -0.414  -0.363  -0.349  -0.348  -0.273  -0.273
 -- Virtual --
  0.004   0.091   0.122   0.123   0.143   0.169   0.172   0.181
  0.208   0.230   0.255   0.341   0.349   0.362   0.469   0.491
  0.493   0.538   0.539   0.601   0.604   0.626   0.663   0.691
  0.774   0.799   0.809   0.843   0.858   0.878   0.878   0.905
  0.922   0.948   1.011   1.087   1.304   1.360   1.371   1.557
  1.601   1.641   1.677   1.742   1.835   1.868   1.965   2.031
  2.046   2.063   2.093   2.101   2.154   2.211   2.253   2.261
  2.335   2.440   2.468   2.514   2.573   2.686   2.725   2.739
  2.796   2.839   2.885   2.907   3.169   3.225   3.310   3.323
  3.460   3.469   3.543   4.248   4.439   4.617   4.731   4.751
  4.821   4.823   4.993   6.304  90.365
 --------------------------------------------------------------
 
          Ground-State Mulliken Net Atomic Charges

     Atom                 Charge (a.u.)    Spin (a.u.)
  --------------------------------------------------------
      1 Br                   -0.118673       0.000000
      2 C                    -0.180273      -0.000000
      3 C                    -0.243110       0.000000
      4 C                    -0.326154       0.000000
      5 H                     0.120443      -0.000000
      6 H                     0.121367       0.000000
      7 H                     0.147507      -0.000000
      8 H                     0.147859       0.000000
      9 H                     0.114669       0.000000
     10 H                     0.108349      -0.000000
     11 H                     0.108016      -0.000000
  --------------------------------------------------------
  Sum of atomic charges =     0.000000
  Sum of spin   charges =     0.000000

 -----------------------------------------------------------------
                    Cartesian Multipole Moments
 -----------------------------------------------------------------
    Charge (ESU x 10^10)
                 0.0000
    Dipole Moment (Debye)
         X      -2.2140      Y      -0.6220      Z       0.0195
       Tot       2.2998
    Quadrupole Moments (Debye-Ang)
        XX     -42.6612     XY      -0.3522     YY     -38.1351
        XZ       0.0059     YZ      -0.0201     ZZ     -38.5198
    Octopole Moments (Debye-Ang^2)
       XXX     -76.3947    XXY       1.9483    XYY     -24.7197
       YYY      -6.3196    XXZ       0.0795    XYZ      -0.0432
       YYZ       0.1357    XZZ     -25.7953    YZZ      -3.0599
       ZZZ       0.4620
    Hexadecapole Moments (Debye-Ang^3)
      XXXX    -803.0170   XXXY      -4.5501   XXYY    -150.3121
      XYYY     -15.7124   YYYY     -97.1830   XXXZ       0.2734
      XXYZ      -0.1545   XYYZ       0.1841   YYYZ      -0.0321
      XXZZ    -149.8203   XYZZ      -4.7396   YYZZ     -24.4458
      XZZZ       0.8036   YZZZ       0.0807   ZZZZ     -63.2351
 -----------------------------------------------------------------
 Calculating analytic gradient of the SCF energy
 Gradient of SCF Energy
            1           2           3           4           5           6
    1  -0.0118472   0.0028217   0.0057353   0.0052718  -0.0026178  -0.0027407
    2  -0.0008389  -0.0043145   0.0004371   0.0017572   0.0006653   0.0009000
    3  -0.0002073   0.0002818   0.0002888  -0.0002508   0.0007793  -0.0008598
            7           8           9          10          11
    1  -0.0003007  -0.0004575   0.0009282   0.0015148   0.0016919
    2  -0.0007174  -0.0005919   0.0011454   0.0007512   0.0008066
    3  -0.0017267   0.0016789  -0.0000162  -0.0001161   0.0001481
 Max gradient component =       1.185E-02
 RMS gradient           =       2.830E-03
 Gradient time:  CPU 13.13 s  wall 1.79 s
 Geometry Optimization Parameters
   NAtoms,    NIC,     NZ,  NCons,   NDum,   NFix, NCnnct, MaxDiis
       11      68       0       1       0       0       0       0


** CONSTRAINED OPTIMIZATION IN DELOCALIZED INTERNAL COORDINATES **
   Searching for a Minimum

   Optimization Cycle:   1

                       Coordinates (Angstroms)
     ATOM                X               Y               Z
      1  Br        2.2106000000    0.1830000000   -0.0105000000
      2  C        -0.6170000000    0.4983000000    0.0140000000
      3  C         0.4292000000   -0.6017000000    0.0102000000
      4  C        -2.0227000000   -0.0797000000   -0.0136000000
      5  H        -0.5031000000    1.1272000000    0.9051000000
      6  H        -0.4836000000    1.1537000000   -0.8552000000
      7  H         0.3574000000   -1.2326000000   -0.8801000000
      8  H         0.3710000000   -1.2259000000    0.9060000000
      9  H        -2.7640000000    0.7256000000   -0.0092000000
     10  H        -2.1815000000   -0.6825000000   -0.9136000000
     11  H        -2.2035000000   -0.7128000000    0.8610000000
   Point Group: c1    Number of degrees of freedom:    27


   Energy is  -2692.435393613

              Constraints and their Current Values
                                        Value     Constraint
   Distance(Angs):        1   3             1.946681     1.600000

 Attempting to Generate Delocalized Internal Coordinates
**WARNING** Constraint Gradient Reduced for constraint   1

   Using Lagrange Multiplier Algorithm


 28 Hessian modes will be used to form the next step
  Hessian Eigenvalues:
    -0.917300    0.045000    0.045000    0.069291    0.078532    0.082918
     0.083457    0.083615    0.084034    0.101895    0.130769    0.160000
     0.160000    0.160000    0.160000    0.160000    0.219121    0.222986
     0.303527    0.305528    0.340445    0.340601    0.342639    0.342719
     0.342914    0.344070    0.344254    1.090156

 Minimum Search - Taking P-RFO Step
 Searching for Lamda that Maximizes Along the Constraint modes Only
 Value Taken    Lamda =   0.05383592


 ********************************************
 ** ERROR IN DETERMINING Lamda IN CONFormD **
 ********************************************


 ** Scaling Hessian by  2.392707 **


 28 Hessian modes will be used to form the next step
  Hessian Eigenvalues:
    -0.814362    0.107672    0.107672    0.165792    0.187904    0.198398
     0.199688    0.200066    0.201069    0.243805    0.312892    0.382833
     0.382833    0.382833    0.382833    0.382833    0.524293    0.533540
     0.726251    0.731040    0.814584    0.814959    0.819834    0.820027
     0.820492    0.823259    0.823700    1.227955

 Minimum Search - Taking P-RFO Step
 Searching for Lamda that Maximizes Along the Constraint modes Only
 Value Taken    Lamda =   0.06531458
 Searching for Lamda that Minimizes Along All other modes
 Value Taken    Lamda =  -0.02660224
 Step Taken.  Stepsize is  0.285786

                             Maximum     Tolerance    Cnvgd?
         Gradient            0.300000       0.000300      NO
         Displacement        0.283780       0.001200      NO
         Energy change     *********       0.000001      NO


 New Cartesian Coordinates Obtained by Inverse Iteration

 Displacement from previous Coordinates is:  0.259349
 ----------------------------------------------------------------
             Standard Nuclear Orientation (Angstroms)
    I     Atom           X                Y                Z
 ----------------------------------------------------------------
    1      Br      2.1003903181     0.1240116319    -0.0076721123
    2      C      -0.6083413620     0.5087064354     0.0134020637
    3      C       0.4492292020    -0.5836815496     0.0094022806
    4      C      -2.0165991728    -0.0823404297    -0.0133148914
    5      H      -0.4923322694     1.1371632454     0.9039674000
    6      H      -0.4728581661     1.1637183873    -0.8550636335
    7      H       0.3791842437    -1.2150859158    -0.8792569076
    8      H       0.3925945902    -1.2089026287     0.9032513090
    9      H      -2.7666036496     0.7146463089    -0.0086996372
   10      H      -2.1752789202    -0.6876806349    -0.9120567545
   11      H      -2.1965848139    -0.7179548501     0.8601408832
 ----------------------------------------------------------------
 Nuclear Repulsion Energy =   245.9925661576 hartrees
 There are       30 alpha and       30 beta electrons

                       Distance Matrix (Angstroms)
             Br(  1)   C (  2)   C (  3)   C (  4)   H (  5)   H (  6)
   C (  2)  2.735994
   C (  3)  1.796512  1.520455
   C (  4)  4.122162  1.527495  2.516380
   H (  5)  2.929125  1.096140  2.155943  2.156846
   H (  6)  2.901839  1.096188  2.156607  2.155073  1.759339
   H (  7)  2.348487  2.177959  1.092379  2.787965  3.077744  2.526909
   H (  8)  2.350108  2.178046  1.092280  2.813086  2.507413  3.077338
   H (  9)  4.902701  2.168178  3.468078  1.094402  2.486723  2.485813
   H ( 10)  4.445009  2.177868  2.783513  1.095150  3.075761  2.515783
   H ( 11)  4.463855  2.178114  2.782466  1.095137  2.519496  3.074712
             H (  7)   H (  8)   H (  9)   H ( 10)
   H (  8)  1.782569
   H (  9)  3.791796  3.809492
   H ( 10)  2.608546  3.187631  1.769814
   H ( 11)  3.147575  2.635667  1.769789  1.772584
 
 Applying Cartesian multipole field
    Component          Value
    ---------          -----
     (2,0,0)        1.00000E-11
     (0,2,0)        2.00000E-10
     (0,0,2)       -3.00000E-10
 Nucleus-field energy     =     0.0000000101 hartrees
 Requested basis set is 6-31G(d,p)
 There are 41 shells and 115 basis functions
 A cutoff of  1.0D-14 yielded    817 shell pairs
 There are      6486 function pairs
 Smallest overlap matrix eigenvalue = 7.22E-04
 Guess from superposition of atomic densities
 Warning:  Energy on first SCF cycle will be non-variational
 SAD guess density has 59.972873 electrons

 -----------------------------------------------------------------------
  General SCF calculation program by
  Eric Jon Sundstrom, Paul Horn, Yuezhi Mao, Dmitri Zuev, Alec White,
  David Stuck, Shaama M.S., Shane Yost, Joonho Lee, David Small,
  Daniel Levine, Susi Lehtola, Hugh Burton, Evgeny Epifanovsky
 -----------------------------------------------------------------------
 Exchange:     0.2000 Hartree-Fock + 0.0800 Slater + 0.7200 B88
 Correlation:  0.1900 VWN1RPA + 0.8100 LYP
 Using SG-1 standard quadrature grid
 using 12 threads for integral computing
 -------------------------------------------------------
 OpenMP Integral computing Module                
 Release: version 1.0, May 2013, Q-Chem Inc. Pittsburgh 
 -------------------------------------------------------
 -------------------------------------------------------
 OpenMP BLAS3 based DFT computing Module                
 Release: version 1.0, May 2013, Q-Chem Inc. Pittsburgh 
 -------------------------------------------------------
 A unrestricted SCF calculation will be
 performed using DIIS
 SCF converges when DIIS error is below 1.0e-06
 Alpha HF Exchange    Energy = -10.76583196986082
 Beta HF Exchange     Energy = -10.76583196986082
 DFT Correlation      Energy =  -3.12941890537795
 DFT Exchange         Energy = -85.07657426638592
 One-Electron (alpha) Energy = -2112.47276733395620
 One-Electron (beta)  Energy = -2112.47276733395620
 Total Coulomb        Energy = 1392.51941173937507
 ---------------------------------------
  Cycle       Energy         DIIS error
 ---------------------------------------
    1   -2696.1712138722      1.66e-01  
 Alpha HF Exchange    Energy = -10.81017237037350
 Beta HF Exchange     Energy = -10.81017237037350
 DFT Correlation      Energy =  -3.17007780051964
 DFT Exchange         Energy = -85.99342851409824
 One-Electron (alpha) Energy = -2119.22712918327852
 One-Electron (beta)  Energy = -2119.22712918327807
 Total Coulomb        Energy = 1410.92976335669755
    2   -2692.3157798974      9.55e-03  
 Alpha HF Exchange    Energy = -10.71288536115451
 Beta HF Exchange     Energy = -10.71288536115451
 DFT Correlation      Energy =  -3.13618907173664
 DFT Exchange         Energy = -85.20152591800439
 One-Electron (alpha) Energy = -2110.20890999870653
 One-Electron (beta)  Energy = -2110.20890999870608
 Total Coulomb        Energy = 1391.87298357729355
    3   -2692.3157559644      4.32e-03  
 Alpha HF Exchange    Energy = -10.78611232220118
 Beta HF Exchange     Energy = -10.78611232220118
 DFT Correlation      Energy =  -3.16301275732292
 DFT Exchange         Energy = -85.79702236683710
 One-Electron (alpha) Energy = -2116.78581401699103
 One-Electron (beta)  Energy = -2116.78581401698966
 Total Coulomb        Energy = 1405.73326086814222
    4   -2692.3780607666      2.72e-03  
 Alpha HF Exchange    Energy = -10.76284136128511
 Beta HF Exchange     Energy = -10.76284136128513
 DFT Correlation      Energy =  -3.15336655674385
 DFT Exchange         Energy = -85.60454162581487
 One-Electron (alpha) Energy = -2115.00791586375271
 One-Electron (beta)  Energy = -2115.00791586375317
 Total Coulomb        Energy = 1401.88581814486565
    5   -2692.4210383200      5.10e-04  
 Alpha HF Exchange    Energy = -10.76071910172125
 Beta HF Exchange     Energy = -10.76071910172126
 DFT Correlation      Energy =  -3.15347547747314
 DFT Exchange         Energy = -85.58945589349391
 One-Electron (alpha) Energy = -2114.69807053068098
 One-Electron (beta)  Energy = -2114.69807053068098
 Total Coulomb        Energy = 1401.24549154482156
    6   -2692.4224529232      6.79e-05  
 Alpha HF Exchange    Energy = -10.76033462957041
 Beta HF Exchange     Energy = -10.76033462957040
 DFT Correlation      Energy =  -3.15326505923440
 DFT Exchange         Energy = -85.58617525158573
 One-Electron (alpha) Energy = -2114.65218984154581
 One-Electron (beta)  Energy = -2114.65218984154535
 Total Coulomb        Energy = 1401.14944468040176
    7   -2692.4224784049      2.36e-05  
 Alpha HF Exchange    Energy = -10.76039769278639
 Beta HF Exchange     Energy = -10.76039769278638
 DFT Correlation      Energy =  -3.15327012383185
 DFT Exchange         Energy = -85.58666771349620
 One-Electron (alpha) Energy = -2114.66465756788011
 One-Electron (beta)  Energy = -2114.66465756787920
 Total Coulomb        Energy = 1401.17500049664113
    8   -2692.4224816942      6.47e-06  
 Alpha HF Exchange    Energy = -10.76041059615608
 Beta HF Exchange     Energy = -10.76041059615609
 DFT Correlation      Energy =  -3.15327745097837
 DFT Exchange         Energy = -85.58677319976070
 One-Electron (alpha) Energy = -2114.66591778727479
 One-Electron (beta)  Energy = -2114.66591778727525
 Total Coulomb        Energy = 1401.17765927694177
    9   -2692.4224819729      5.81e-07  Convergence criterion met
 ---------------------------------------
 SCF time:   CPU 26.41s  wall 2.00s 
<S^2> =         -0.000000000
 Alpha HF Exchange    Energy = -10.76041059615608
 Beta HF Exchange     Energy = -10.76041059615609
 DFT Correlation      Energy =  -3.15327745097837
 DFT Exchange         Energy = -85.58677319976070
 One-Electron (alpha) Energy = -2114.66591778727479
 One-Electron (beta)  Energy = -2114.66591778727525
 Total Coulomb        Energy = 1401.17765927694177
 Nuclear repulsion Energy = 245.99256616777853
 SCF   energy in the final basis set =    -2692.4224819729
 Total energy in the final basis set =    -2692.4224819729
 
 --------------------------------------------------------------
 
                    Orbital Energies (a.u.)
 --------------------------------------------------------------
 
 Alpha MOs
 -- Occupied --
******* -62.507 -56.327 -56.324 -56.324 -10.231 -10.195 -10.184
 -8.695  -6.525  -6.512  -6.512  -2.619  -2.615  -2.615  -2.605
 -2.605  -0.852  -0.766  -0.660  -0.599  -0.488  -0.442  -0.427
 -0.415  -0.363  -0.355  -0.347  -0.270  -0.270
 -- Virtual --
  0.039   0.097   0.120   0.122   0.145   0.171   0.173   0.183
  0.205   0.231   0.258   0.345   0.349   0.366   0.477   0.493
  0.503   0.537   0.539   0.596   0.601   0.635   0.673   0.693
  0.772   0.798   0.829   0.848   0.867   0.882   0.896   0.906
  0.934   0.981   1.031   1.088   1.315   1.374   1.399   1.565
  1.614   1.641   1.675   1.785   1.832   1.868   1.969   2.035
  2.049   2.070   2.102   2.107   2.192   2.218   2.262   2.264
  2.342   2.447   2.479   2.514   2.583   2.691   2.732   2.744
  2.799   2.844   2.883   2.906   3.173   3.232   3.315   3.328
  3.463   3.471   3.543   4.252   4.442   4.616   4.731   4.758
  4.846   4.851   4.995   6.301  90.376
 
 Beta MOs
 -- Occupied --
******* -62.507 -56.327 -56.324 -56.324 -10.231 -10.195 -10.184
 -8.695  -6.525  -6.512  -6.512  -2.619  -2.615  -2.615  -2.605
 -2.605  -0.852  -0.766  -0.660  -0.599  -0.488  -0.442  -0.427
 -0.415  -0.363  -0.355  -0.347  -0.270  -0.270
 -- Virtual --
  0.039   0.097   0.120   0.122   0.145   0.171   0.173   0.183
  0.205   0.231   0.258   0.345   0.349   0.366   0.477   0.493
  0.503   0.537   0.539   0.596   0.601   0.635   0.673   0.693
  0.772   0.798   0.829   0.848   0.867   0.882   0.896   0.906
  0.934   0.981   1.031   1.088   1.315   1.374   1.399   1.565
  1.614   1.641   1.675   1.785   1.832   1.868   1.969   2.035
  2.049   2.070   2.102   2.107   2.192   2.218   2.262   2.264
  2.342   2.447   2.479   2.514   2.583   2.691   2.732   2.744
  2.799   2.844   2.883   2.906   3.173   3.232   3.315   3.328
  3.463   3.471   3.543   4.252   4.442   4.616   4.731   4.758
  4.846   4.851   4.995   6.301  90.376
 --------------------------------------------------------------
 
          Ground-State Mulliken Net Atomic Charges

     Atom                 Charge (a.u.)    Spin (a.u.)
  --------------------------------------------------------
      1 Br                   -0.097853       0.000000
      2 C                    -0.185589      -0.000000
      3 C                    -0.236717      -0.000000
      4 C                    -0.325403      -0.000000
      5 H                     0.117723       0.000000
      6 H                     0.118433      -0.000000
      7 H                     0.141669       0.000000
      8 H                     0.142085       0.000000
      9 H                     0.111187      -0.000000
     10 H                     0.107349      -0.000000
     11 H                     0.107116       0.000000
  --------------------------------------------------------
  Sum of atomic charges =    -0.000000
  Sum of spin   charges =     0.000000

 -----------------------------------------------------------------
                    Cartesian Multipole Moments
 -----------------------------------------------------------------
    Charge (ESU x 10^10)
                -0.0000
    Dipole Moment (Debye)
         X      -1.8869      Y      -0.5556      Z       0.0161
       Tot       1.9670
    Quadrupole Moments (Debye-Ang)
        XX     -42.1735     XY      -0.3754     YY     -38.1577
        XZ       0.0025     YZ      -0.0155     ZZ     -38.3770
    Octopole Moments (Debye-Ang^2)
       XXX     -69.1667    XXY       2.3805    XYY     -22.5684
       YYY      -3.4749    XXZ       0.0472    XYZ      -0.0364
       YYZ       0.0890    XZZ     -23.5037    YZZ      -2.1235
       ZZZ       0.3159
    Hexadecapole Moments (Debye-Ang^3)
      XXXX    -748.0414   XXXY       2.0490   XXYY    -141.0453
      XYYY      -7.9247   YYYY     -94.8353   XXXZ      -0.0567
      XXYZ      -0.1434   XYYZ       0.0586   YYYZ      -0.0918
      XXZZ    -140.2173   XYZZ      -2.1755   YYZZ     -24.0655
      XZZZ       0.4054   YZZZ       0.0217   ZZZZ     -62.8724
 -----------------------------------------------------------------
 Calculating analytic gradient of the SCF energy
 Gradient of SCF Energy
            1           2           3           4           5           6
    1  -0.0827107   0.0113941   0.0568025   0.0032529  -0.0021452  -0.0021711
    2  -0.0337950   0.0011176   0.0264459  -0.0009279   0.0004363   0.0006396
    3   0.0007619   0.0001924  -0.0005879  -0.0002533   0.0003249  -0.0003350
            7           8           9          10          11
    1   0.0067124   0.0066297   0.0009330   0.0006129   0.0006896
    2   0.0021632   0.0022672   0.0008131   0.0004077   0.0004324
    3  -0.0019686   0.0018482  -0.0000027  -0.0000751   0.0000953
 Max gradient component =       8.271E-02
 RMS gradient           =       1.921E-02
 Gradient time:  CPU 11.06 s  wall 0.95 s
 Geometry Optimization Parameters
   NAtoms,    NIC,     NZ,  NCons,   NDum,   NFix, NCnnct, MaxDiis
       11      68       0       1       0       0       0       0

 Cartesian Hessian Update
 Hessian Updated using BFGS Update


** CONSTRAINED OPTIMIZATION IN DELOCALIZED INTERNAL COORDINATES **
   Searching for a Minimum

   Optimization Cycle:   2

                       Coordinates (Angstroms)
     ATOM                X               Y               Z
      1  Br        2.1003903181    0.1240116319   -0.0076721123
      2  C        -0.6083413620    0.5087064354    0.0134020637
      3  C         0.4492292020   -0.5836815496    0.0094022806
      4  C        -2.0165991728   -0.0823404297   -0.0133148914
      5  H        -0.4923322694    1.1371632454    0.9039674000
      6  H        -0.4728581661    1.1637183873   -0.8550636335
      7  H         0.3791842437   -1.2150859158   -0.8792569076
      8  H         0.3925945902   -1.2089026287    0.9032513090
      9  H        -2.7666036496    0.7146463089   -0.0086996372
     10  H        -2.1752789202   -0.6876806349   -0.9120567545
     11  H        -2.1965848139   -0.7179548501    0.8601408832
   Point Group: c1    Number of degrees of freedom:    27


   Energy is  -2692.422481973

              Constraints and their Current Values
                                        Value     Constraint
   Distance(Angs):        1   3             1.796512     1.600000
 Hessian Updated using BFGS Update
**WARNING** Constraint Gradient Reduced for constraint   1

   Using Lagrange Multiplier Algorithm


 25 Hessian modes will be used to form the next step
  Hessian Eigenvalues:
    -0.871108    0.107671    0.107672    0.165792    0.187901    0.198398
     0.200066    0.201063    0.202718    0.243301    0.312890    0.382411
     0.385666    0.524671    0.530679    0.723607    0.731330    0.814573
     0.814953    0.819830    0.820023    0.820496    0.823326    0.823800
     1.153035

 Minimum Search - Taking P-RFO Step
 Searching for Lamda that Maximizes Along the Constraint modes Only
 Value Taken    Lamda =   0.04588630
 Searching for Lamda that Minimizes Along All other modes
 Value Taken    Lamda =  -0.04374805
 Calculated Step too Large.  Step scaled by  0.982995
 Step Taken.  Stepsize is  0.300000

                             Maximum     Tolerance    Cnvgd?
         Gradient            0.300000       0.000300      NO
         Displacement        0.281879       0.001200      NO
         Energy change      0.012912       0.000001      NO


 New Cartesian Coordinates Obtained by Inverse Iteration

 Displacement from previous Coordinates is:  0.230241
 ----------------------------------------------------------------
             Standard Nuclear Orientation (Angstroms)
    I     Atom           X                Y                Z
 ----------------------------------------------------------------
    1      Br      2.0080085367     0.0712500069    -0.0058251855
    2      C      -0.6002355566     0.5144562633     0.0129706465
    3      C       0.4870338868    -0.5613438221     0.0088574339
    4      C      -2.0125321388    -0.0854721483    -0.0130697298
    5      H      -0.4814221762     1.1422142074     0.9032335897
    6      H      -0.4621414525     1.1687738734    -0.8550064590
    7      H       0.3873760447    -1.1951669240    -0.8753668943
    8      H       0.4009652700    -1.1895861124     0.8984479897
    9      H      -2.7710949857     0.7035302396    -0.0083192728
   10      H      -2.1709878539    -0.6926554743    -0.9109525759
   11      H      -2.1921695745    -0.7234001096     0.8591304575
 ----------------------------------------------------------------
 Nuclear Repulsion Energy =   254.7739494153 hartrees
 There are       30 alpha and       30 beta electrons

                       Distance Matrix (Angstroms)
             Br(  1)   C (  2)   C (  3)   C (  4)   H (  5)   H (  6)
   C (  2)  2.645699
   C (  3)  1.647348  1.529548
   C (  4)  4.023601  1.534658  2.544556
   H (  5)  2.858429  1.095794  2.154049  2.165900
   H (  6)  2.833251  1.095712  2.154182  2.164648  1.758546
   H (  7)  2.233017  2.165025  1.092482  2.781104  3.062937  2.512033
   H (  8)  2.233832  2.165695  1.092459  2.806226  2.493175  3.062910
   H (  9)  4.820748  2.179182  3.495083  1.094516  2.503193  2.502918
   H ( 10)  4.343595  2.185867  2.815737  1.095433  3.084258  2.527490
   H ( 11)  4.361320  2.186899  2.815556  1.095425  2.531624  3.084086
             H (  7)   H (  8)   H (  9)   H ( 10)
   H (  8)  1.773876
   H (  9)  3.785863  3.803693
   H ( 10)  2.607491  3.183679  1.767543
   H ( 11)  3.144058  2.635000  1.767414  1.770477
 
 Applying Cartesian multipole field
    Component          Value
    ---------          -----
     (2,0,0)        1.00000E-11
     (0,2,0)        2.00000E-10
     (0,0,2)       -3.00000E-10
 Nucleus-field energy     =     0.0000000093 hartrees
 Requested basis set is 6-31G(d,p)
 There are 41 shells and 115 basis functions
 A cutoff of  1.0D-14 yielded    822 shell pairs
 There are      6507 function pairs
 Smallest overlap matrix eigenvalue = 7.22E-04
 Guess from superposition of atomic densities
 Warning:  Energy on first SCF cycle will be non-variational
 SAD guess density has 59.972873 electrons

 -----------------------------------------------------------------------
  General SCF calculation program by
  Eric Jon Sundstrom, Paul Horn, Yuezhi Mao, Dmitri Zuev, Alec White,
  David Stuck, Shaama M.S., Shane Yost, Joonho Lee, David Small,
  Daniel Levine, Susi Lehtola, Hugh Burton, Evgeny Epifanovsky
 -----------------------------------------------------------------------
 Exchange:     0.2000 Hartree-Fock + 0.0800 Slater + 0.7200 B88
 Correlation:  0.1900 VWN1RPA + 0.8100 LYP
 Using SG-1 standard quadrature grid
 using 12 threads for integral computing
 -------------------------------------------------------
 OpenMP Integral computing Module                
 Release: version 1.0, May 2013, Q-Chem Inc. Pittsburgh 
 -------------------------------------------------------
 -------------------------------------------------------
 OpenMP BLAS3 based DFT computing Module                
 Release: version 1.0, May 2013, Q-Chem Inc. Pittsburgh 
 -------------------------------------------------------
 A unrestricted SCF calculation will be
 performed using DIIS
 SCF converges when DIIS error is below 1.0e-06
 Alpha HF Exchange    Energy = -10.78403638304355
 Beta HF Exchange     Energy = -10.78403638304355
 DFT Correlation      Energy =  -3.13361373818484
 DFT Exchange         Energy = -85.11524995591969
 One-Electron (alpha) Energy = -2121.13699490463432
 One-Electron (beta)  Energy = -2121.13699490463432
 Total Coulomb        Energy = 1400.92260877985609
 ---------------------------------------
  Cycle       Energy         DIIS error
 ---------------------------------------
    1   -2696.3943680650      1.68e-01  
 Alpha HF Exchange    Energy = -10.81759649830592
 Beta HF Exchange     Energy = -10.81759649830592
 DFT Correlation      Energy =  -3.17509185996433
 DFT Exchange         Energy = -86.04948644637493
 One-Electron (alpha) Energy = -2128.00459383025054
 One-Electron (beta)  Energy = -2128.00459383024918
 Total Coulomb        Energy = 1419.82554231612494
    2   -2692.2694672227      9.61e-03  
 Alpha HF Exchange    Energy = -10.71752591328486
 Beta HF Exchange     Energy = -10.71752591328487
 DFT Correlation      Energy =  -3.13951093844266
 DFT Exchange         Energy = -85.23388152199850
 One-Electron (alpha) Energy = -2118.59463074952055
 One-Electron (beta)  Energy = -2118.59463074952100
 Total Coulomb        Energy = 1399.96258573180694
    3   -2692.2611706296      4.55e-03  
 Alpha HF Exchange    Energy = -10.79320086070421
 Beta HF Exchange     Energy = -10.79320086070419
 DFT Correlation      Energy =  -3.16791576535683
 DFT Exchange         Energy = -85.85039647369319
 One-Electron (alpha) Energy = -2125.59778279396050
 One-Electron (beta)  Energy = -2125.59778279396005
 Total Coulomb        Energy = 1414.69323511564130
    4   -2692.3330950081      2.85e-03  
 Alpha HF Exchange    Energy = -10.76935765869686
 Beta HF Exchange     Energy = -10.76935765869688
 DFT Correlation      Energy =  -3.15786701291300
 DFT Exchange         Energy = -85.65307383104715
 One-Electron (alpha) Energy = -2123.63482835630839
 One-Electron (beta)  Energy = -2123.63482835631157
 Total Coulomb        Energy = 1410.46374237135751
    5   -2692.3816210780      4.97e-04  
 Alpha HF Exchange    Energy = -10.76706081367331
 Beta HF Exchange     Energy = -10.76706081367331
 DFT Correlation      Energy =  -3.15784978798542
 DFT Exchange         Energy = -85.63631329091783
 One-Electron (alpha) Energy = -2123.35073466642689
 One-Electron (beta)  Energy = -2123.35073466642643
 Total Coulomb        Energy = 1409.87293325120982
    6   -2692.3828713632      6.42e-05  
 Alpha HF Exchange    Energy = -10.76674459329010
 Beta HF Exchange     Energy = -10.76674459329011
 DFT Correlation      Energy =  -3.15766796472198
 DFT Exchange         Energy = -85.63362829817694
 One-Electron (alpha) Energy = -2123.30720330646136
 One-Electron (beta)  Energy = -2123.30720330646182
 Total Coulomb        Energy = 1409.78234965110300
    7   -2692.3828929867      2.08e-05  
 Alpha HF Exchange    Energy = -10.76681284614567
 Beta HF Exchange     Energy = -10.76681284614566
 DFT Correlation      Energy =  -3.15767122329856
 DFT Exchange         Energy = -85.63414301353325
 One-Electron (alpha) Energy = -2123.32170300610323
 One-Electron (beta)  Energy = -2123.32170300610323
 Total Coulomb        Energy = 1409.81200093108350
    8   -2692.3828955856      6.98e-06  
 Alpha HF Exchange    Energy = -10.76682247278424
 Beta HF Exchange     Energy = -10.76682247278427
 DFT Correlation      Energy =  -3.15767988737513
 DFT Exchange         Energy = -85.63422903064330
 One-Electron (alpha) Energy = -2123.32179327368840
 One-Electron (beta)  Energy = -2123.32179327369113
 Total Coulomb        Energy = 1409.81229510157095
    9   -2692.3828958847      5.83e-07  Convergence criterion met
 ---------------------------------------
 SCF time:   CPU 26.73s  wall 2.00s 
<S^2> =          0.000000000
 Alpha HF Exchange    Energy = -10.76682247278424
 Beta HF Exchange     Energy = -10.76682247278427
 DFT Correlation      Energy =  -3.15767988737513
 DFT Exchange         Energy = -85.63422903064330
 One-Electron (alpha) Energy = -2123.32179327368840
 One-Electron (beta)  Energy = -2123.32179327369113
 Total Coulomb        Energy = 1409.81229510157095
 Nuclear repulsion Energy = 254.77394942464608
 SCF   energy in the final basis set =    -2692.3828958847
 Total energy in the final basis set =    -2692.3828958847
 
 --------------------------------------------------------------
 
                    Orbital Energies (a.u.)
 --------------------------------------------------------------
 
 Alpha MOs
 -- Occupied --
******* -62.508 -56.329 -56.326 -56.326 -10.221 -10.193 -10.183
 -8.699  -6.529  -6.516  -6.516  -2.624  -2.619  -2.619  -2.609
 -2.609  -0.888  -0.766  -0.652  -0.597  -0.494  -0.443  -0.436
 -0.419  -0.368  -0.357  -0.347  -0.264  -0.264
 -- Virtual --
  0.063   0.108   0.118   0.123   0.147   0.168   0.175   0.185
  0.200   0.230   0.259   0.349   0.352   0.375   0.482   0.502
  0.516   0.539   0.543   0.586   0.603   0.645   0.683   0.695
  0.765   0.781   0.846   0.852   0.869   0.886   0.898   0.916
  0.938   1.041   1.048   1.104   1.328   1.374   1.436   1.571
  1.623   1.651   1.675   1.823   1.825   1.867   1.967   2.041
  2.054   2.078   2.106   2.108   2.224   2.234   2.265   2.269
  2.344   2.450   2.494   2.507   2.592   2.697   2.732   2.751
  2.797   2.849   2.882   2.905   3.172   3.236   3.320   3.327
  3.464   3.466   3.547   4.254   4.449   4.615   4.731   4.764
  4.869   4.874   4.979   6.304  90.410
 
 Beta MOs
 -- Occupied --
******* -62.508 -56.329 -56.326 -56.326 -10.221 -10.193 -10.183
 -8.699  -6.529  -6.516  -6.516  -2.624  -2.619  -2.619  -2.609
 -2.609  -0.888  -0.766  -0.652  -0.597  -0.494  -0.443  -0.436
 -0.419  -0.368  -0.357  -0.347  -0.264  -0.264
 -- Virtual --
  0.063   0.108   0.118   0.123   0.147   0.168   0.175   0.185
  0.200   0.230   0.259   0.349   0.352   0.375   0.482   0.502
  0.516   0.539   0.543   0.586   0.603   0.645   0.683   0.695
  0.765   0.781   0.846   0.852   0.869   0.886   0.898   0.916
  0.938   1.041   1.048   1.104   1.328   1.374   1.436   1.571
  1.623   1.651   1.675   1.823   1.825   1.867   1.967   2.041
  2.054   2.078   2.106   2.108   2.224   2.234   2.265   2.269
  2.344   2.450   2.494   2.507   2.592   2.697   2.732   2.751
  2.797   2.849   2.882   2.905   3.172   3.236   3.320   3.327
  3.464   3.466   3.547   4.254   4.449   4.615   4.731   4.764
  4.869   4.874   4.979   6.304  90.410
 --------------------------------------------------------------
 
          Ground-State Mulliken Net Atomic Charges

     Atom                 Charge (a.u.)    Spin (a.u.)
  --------------------------------------------------------
      1 Br                   -0.081974       0.000000
      2 C                    -0.194783      -0.000000
      3 C                    -0.215312      -0.000000
      4 C                    -0.325036       0.000000
      5 H                     0.114751       0.000000
      6 H                     0.115272       0.000000
      7 H                     0.131892       0.000000
      8 H                     0.132364      -0.000000
      9 H                     0.109459       0.000000
     10 H                     0.106749      -0.000000
     11 H                     0.106619      -0.000000
  --------------------------------------------------------
  Sum of atomic charges =     0.000000
  Sum of spin   charges =     0.000000

 -----------------------------------------------------------------
                    Cartesian Multipole Moments
 -----------------------------------------------------------------
    Charge (ESU x 10^10)
                 0.0000
    Dipole Moment (Debye)
         X      -1.6515      Y      -0.5181      Z       0.0139
       Tot       1.7309
    Quadrupole Moments (Debye-Ang)
        XX     -41.7940     XY      -0.4327     YY     -38.1933
        XZ       0.0021     YZ      -0.0131     ZZ     -38.2304
    Octopole Moments (Debye-Ang^2)
       XXX     -64.0040    XXY       2.6565    XYY     -20.8438
       YYY      -1.0552    XXZ       0.0299    XYZ      -0.0301
       YYZ       0.0597    XZZ     -21.6398    YZZ      -1.3054
       ZZZ       0.2199
    Hexadecapole Moments (Debye-Ang^3)
      XXXX    -705.5980   XXXY       6.8438   XXYY    -133.7477
      XYYY      -1.6953   YYYY     -93.0422   XXXZ      -0.2583
      XXYZ      -0.1381   XYYZ      -0.0208   YYYZ      -0.1277
      XXZZ    -132.6099   XYZZ      -0.1308   YYZZ     -23.8334
      XZZZ       0.1581   YZZZ      -0.0107   ZZZZ     -62.5052
 -----------------------------------------------------------------
 Calculating analytic gradient of the SCF energy
 Gradient of SCF Energy
            1           2           3           4           5           6
    1  -0.2072477   0.0161080   0.1706575   0.0001498  -0.0014747  -0.0014429
    2  -0.0858596   0.0039591   0.0727500  -0.0018590  -0.0001599  -0.0000140
    3   0.0018596   0.0000215  -0.0015763  -0.0002004  -0.0000618   0.0001347
            7           8           9          10          11
    1   0.0115490   0.0115751   0.0002876  -0.0000632  -0.0000985
    2   0.0051989   0.0052328   0.0003156   0.0002186   0.0002176
    3  -0.0018772   0.0017188  -0.0000067  -0.0000302   0.0000179
 Max gradient component =       2.072E-01
 RMS gradient           =       5.086E-02
 Gradient time:  CPU 11.43 s  wall 1.01 s
 Geometry Optimization Parameters
   NAtoms,    NIC,     NZ,  NCons,   NDum,   NFix, NCnnct, MaxDiis
       11      68       0       1       0       0       0       0

 Cartesian Hessian Update
 Hessian Updated using BFGS Update


** CONSTRAINED OPTIMIZATION IN DELOCALIZED INTERNAL COORDINATES **
   Searching for a Minimum

   Optimization Cycle:   3

                       Coordinates (Angstroms)
     ATOM                X               Y               Z
      1  Br        2.0080085367    0.0712500069   -0.0058251855
      2  C        -0.6002355566    0.5144562633    0.0129706465
      3  C         0.4870338868   -0.5613438221    0.0088574339
      4  C        -2.0125321388   -0.0854721483   -0.0130697298
      5  H        -0.4814221762    1.1422142074    0.9032335897
      6  H        -0.4621414525    1.1687738734   -0.8550064590
      7  H         0.3873760447   -1.1951669240   -0.8753668943
      8  H         0.4009652700   -1.1895861124    0.8984479897
      9  H        -2.7710949857    0.7035302396   -0.0083192728
     10  H        -2.1709878539   -0.6926554743   -0.9109525759
     11  H        -2.1921695745   -0.7234001096    0.8591304575
   Point Group: c1    Number of degrees of freedom:    27


   Energy is  -2692.382895885

              Constraints and their Current Values
                                        Value     Constraint
   Distance(Angs):        1   3             1.647348     1.600000
 Hessian Updated using BFGS Update

   Using Lagrange Multiplier Algorithm


 26 Hessian modes will be used to form the next step
  Hessian Eigenvalues:
    -0.777865    0.107671    0.107672    0.165792    0.187871    0.198395
     0.200066    0.200395    0.201071    0.243032    0.312890    0.381413
     0.382838    0.384449    0.522341    0.529769    0.722177    0.730041
     0.814582    0.814960    0.819829    0.820022    0.820496    0.823358
     0.823862    1.305729

 Minimum Search - Taking P-RFO Step
 Searching for Lamda that Maximizes Along the Constraint modes Only
 Value Taken    Lamda =   0.01429402
 Searching for Lamda that Minimizes Along All other modes
 Value Taken    Lamda =  -0.00365957
 Step Taken.  Stepsize is  0.158479

                             Maximum     Tolerance    Cnvgd?
         Gradient            0.089474       0.000300      NO
         Displacement        0.098165       0.001200      NO
         Energy change      0.039586       0.000001      NO


 New Cartesian Coordinates Obtained by Inverse Iteration

 Displacement from previous Coordinates is:  0.113771
 ----------------------------------------------------------------
             Standard Nuclear Orientation (Angstroms)
    I     Atom           X                Y                Z
 ----------------------------------------------------------------
    1      Br      2.0002422487     0.0465652496    -0.0043853683
    2      C      -0.5977984393     0.5189897010     0.0125327269
    3      C       0.5128823980    -0.5452562663     0.0082475123
    4      C      -2.0076191213    -0.0901718109    -0.0128396360
    5      H      -0.4784974939     1.1471221553     0.9026818575
    6      H      -0.4595377164     1.1738743044    -0.8551626059
    7      H       0.3644748083    -1.1827662047    -0.8690041604
    8      H       0.3773155212    -1.1777199800     0.8911831173
    9      H      -2.7738855719     0.6913393815    -0.0077874426
   10      H      -2.1622615015    -0.6991803489    -0.9103220021
   11      H      -2.1825151319    -0.7301961809     0.8589560014
 ----------------------------------------------------------------
 Nuclear Repulsion Energy =   256.9257407932 hartrees
 There are       30 alpha and       30 beta electrons

                       Distance Matrix (Angstroms)
             Br(  1)   C (  2)   C (  3)   C (  4)   H (  5)   H (  6)
   C (  2)  2.640698
   C (  3)  1.600828  1.538262
   C (  4)  4.010202  1.536006  2.561342
   H (  5)  2.859746  1.095969  2.155688  2.169629
   H (  6)  2.836400  1.095849  2.155571  2.168842  1.758150
   H (  7)  2.221386  2.144540  1.094538  2.748383  3.045957  2.496586
   H (  8)  2.221443  2.145157  1.094515  2.772712  2.477386  3.046316
   H (  9)  4.817473  2.182996  3.511733  1.094509  2.511075  2.511392
   H ( 10)  4.324731  2.187040  2.832641  1.095573  3.087212  2.531925
   H ( 11)  4.340988  2.188201  2.832503  1.095558  2.535727  3.087448
             H (  7)   H (  8)   H (  9)   H ( 10)
   H (  8)  1.760241
   H (  9)  3.755432  3.772479
   H ( 10)  2.572928  3.150218  1.766974
   H ( 11)  3.110920  2.598855  1.766841  1.769666
 
 Applying Cartesian multipole field
    Component          Value
    ---------          -----
     (2,0,0)        1.00000E-11
     (0,2,0)        2.00000E-10
     (0,0,2)       -3.00000E-10
 Nucleus-field energy     =     0.0000000091 hartrees
 Requested basis set is 6-31G(d,p)
 There are 41 shells and 115 basis functions
 A cutoff of  1.0D-14 yielded    822 shell pairs
 There are      6507 function pairs
 Smallest overlap matrix eigenvalue = 7.22E-04
 Guess from superposition of atomic densities
 Warning:  Energy on first SCF cycle will be non-variational
 SAD guess density has 59.972873 electrons

 -----------------------------------------------------------------------
  General SCF calculation program by
  Eric Jon Sundstrom, Paul Horn, Yuezhi Mao, Dmitri Zuev, Alec White,
  David Stuck, Shaama M.S., Shane Yost, Joonho Lee, David Small,
  Daniel Levine, Susi Lehtola, Hugh Burton, Evgeny Epifanovsky
 -----------------------------------------------------------------------
 Exchange:     0.2000 Hartree-Fock + 0.0800 Slater + 0.7200 B88
 Correlation:  0.1900 VWN1RPA + 0.8100 LYP
 Using SG-1 standard quadrature grid
 using 12 threads for integral computing
 -------------------------------------------------------
 OpenMP Integral computing Module                
 Release: version 1.0, May 2013, Q-Chem Inc. Pittsburgh 
 -------------------------------------------------------
 -------------------------------------------------------
 OpenMP BLAS3 based DFT computing Module                
 Release: version 1.0, May 2013, Q-Chem Inc. Pittsburgh 
 -------------------------------------------------------
 A unrestricted SCF calculation will be
 performed using DIIS
 SCF converges when DIIS error is below 1.0e-06
 Alpha HF Exchange    Energy = -10.78946511472230
 Beta HF Exchange     Energy = -10.78946511472230
 DFT Correlation      Energy =  -3.13473155063119
 DFT Exchange         Energy = -85.12726688752204
 One-Electron (alpha) Energy = -2123.23907525747381
 One-Electron (beta)  Energy = -2123.23907525747381
 Total Coulomb        Energy = 1402.92626151161471
 ---------------------------------------
  Cycle       Energy         DIIS error
 ---------------------------------------
    1   -2696.4670768686      1.68e-01  
 Alpha HF Exchange    Energy = -10.81968983673891
 Beta HF Exchange     Energy = -10.81968983673893
 DFT Correlation      Energy =  -3.17645680251590
 DFT Exchange         Energy = -86.06614010758040
 One-Electron (alpha) Energy = -2130.13194612563802
 One-Electron (beta)  Energy = -2130.13194612564121
 Total Coulomb        Energy = 1421.97311258110153
    2   -2692.2470154514      9.63e-03  
 Alpha HF Exchange    Energy = -10.71866841093992
 Beta HF Exchange     Energy = -10.71866841093990
 DFT Correlation      Energy =  -3.14029975776772
 DFT Exchange         Energy = -85.24231077775841
 One-Electron (alpha) Energy = -2120.56790913548957
 One-Electron (beta)  Energy = -2120.56790913548821
 Total Coulomb        Energy = 1401.79447635989982
    3   -2692.2355484661      4.64e-03  
 Alpha HF Exchange    Energy = -10.79517666572936
 Beta HF Exchange     Energy = -10.79517666572936
 DFT Correlation      Energy =  -3.16920278946290
 DFT Exchange         Energy = -85.86610802503526
 One-Electron (alpha) Energy = -2127.74189761362913
 One-Electron (beta)  Energy = -2127.74189761362913
 Total Coulomb        Energy = 1416.87183282330307
    4   -2692.3118857476      2.89e-03  
 Alpha HF Exchange    Energy = -10.77114643539957
 Beta HF Exchange     Energy = -10.77114643539956
 DFT Correlation      Energy =  -3.15907046529618
 DFT Exchange         Energy = -85.66716433404592
 One-Electron (alpha) Energy = -2125.70788937968337
 One-Electron (beta)  Energy = -2125.70788937968109
 Total Coulomb        Energy = 1412.49663101561691
    5   -2692.3619346115      4.86e-04  
 Alpha HF Exchange    Energy = -10.76880734747396
 Beta HF Exchange     Energy = -10.76880734747395
 DFT Correlation      Energy =  -3.15900088444746
 DFT Exchange         Energy = -85.64998007760124
 One-Electron (alpha) Energy = -2125.43233385788062
 One-Electron (beta)  Energy = -2125.43233385788017
 Total Coulomb        Energy = 1411.92240911421936
    6   -2692.3631134562      6.42e-05  
 Alpha HF Exchange    Energy = -10.76851719219265
 Beta HF Exchange     Energy = -10.76851719219264
 DFT Correlation      Energy =  -3.15882826731339
 DFT Exchange         Energy = -85.64751073965662
 One-Electron (alpha) Energy = -2125.39019129916551
 One-Electron (beta)  Energy = -2125.39019129916369
 Total Coulomb        Energy = 1411.83488056008287
    7   -2692.3631346272      2.05e-05  
 Alpha HF Exchange    Energy = -10.76858699728278
 Beta HF Exchange     Energy = -10.76858699728278
 DFT Correlation      Energy =  -3.15883134190715
 DFT Exchange         Energy = -85.64803395652373
 One-Electron (alpha) Energy = -2125.40527152061668
 One-Electron (beta)  Energy = -2125.40527152061713
 Total Coulomb        Energy = 1411.86570432597978
    8   -2692.3631372059      7.08e-06  
 Alpha HF Exchange    Energy = -10.76859630641129
 Beta HF Exchange     Energy = -10.76859630641128
 DFT Correlation      Energy =  -3.15884067249162
 DFT Exchange         Energy = -85.64811919569453
 One-Electron (alpha) Energy = -2125.40512282341251
 One-Electron (beta)  Energy = -2125.40512282341160
 Total Coulomb        Energy = 1411.86551981723460
    9   -2692.3631375082      6.20e-07  Convergence criterion met
 ---------------------------------------
 SCF time:   CPU 26.31s  wall 2.00s 
<S^2> =         -0.000000000
 Alpha HF Exchange    Energy = -10.76859630641129
 Beta HF Exchange     Energy = -10.76859630641128
 DFT Correlation      Energy =  -3.15884067249162
 DFT Exchange         Energy = -85.64811919569453
 One-Electron (alpha) Energy = -2125.40512282341251
 One-Electron (beta)  Energy = -2125.40512282341160
 Total Coulomb        Energy = 1411.86551981723460
 Nuclear repulsion Energy = 256.92574080235278
 SCF   energy in the final basis set =    -2692.3631375082
 Total energy in the final basis set =    -2692.3631375082
 
 --------------------------------------------------------------
 
                    Orbital Energies (a.u.)
 --------------------------------------------------------------
 
 Alpha MOs
 -- Occupied --
******* -62.510 -56.331 -56.328 -56.328 -10.218 -10.193 -10.183
 -8.701  -6.532  -6.519  -6.519  -2.627  -2.622  -2.621  -2.611
 -2.611  -0.900  -0.766  -0.651  -0.596  -0.494  -0.446  -0.437
 -0.419  -0.372  -0.357  -0.347  -0.262  -0.261
 -- Virtual --
  0.066   0.110   0.116   0.126   0.148   0.167   0.176   0.186
  0.196   0.231   0.257   0.348   0.353   0.379   0.482   0.507
  0.520   0.544   0.545   0.583   0.603   0.649   0.685   0.697
  0.763   0.774   0.851   0.854   0.870   0.888   0.894   0.917
  0.938   1.041   1.057   1.126   1.336   1.377   1.433   1.569
  1.623   1.658   1.682   1.821   1.829   1.867   1.963   2.043
  2.057   2.088   2.101   2.109   2.229   2.257   2.262   2.269
  2.340   2.448   2.494   2.498   2.591   2.703   2.736   2.753
  2.793   2.850   2.883   2.904   3.169   3.234   3.319   3.323
  3.459   3.463   3.552   4.253   4.451   4.615   4.729   4.762
  4.875   4.876   4.981   6.305  90.428
 
 Beta MOs
 -- Occupied --
******* -62.510 -56.331 -56.328 -56.328 -10.218 -10.193 -10.183
 -8.701  -6.532  -6.519  -6.519  -2.627  -2.622  -2.621  -2.611
 -2.611  -0.900  -0.766  -0.651  -0.596  -0.494  -0.446  -0.437
 -0.419  -0.372  -0.357  -0.347  -0.262  -0.261
 -- Virtual --
  0.066   0.110   0.116   0.126   0.148   0.167   0.176   0.186
  0.196   0.231   0.257   0.348   0.353   0.379   0.482   0.507
  0.520   0.544   0.545   0.583   0.603   0.649   0.685   0.697
  0.763   0.774   0.851   0.854   0.870   0.888   0.894   0.917
  0.938   1.041   1.057   1.126   1.336   1.377   1.433   1.569
  1.623   1.658   1.682   1.821   1.829   1.867   1.963   2.043
  2.057   2.088   2.101   2.109   2.229   2.257   2.262   2.269
  2.340   2.448   2.494   2.498   2.591   2.703   2.736   2.753
  2.793   2.850   2.883   2.904   3.169   3.234   3.319   3.323
  3.459   3.463   3.552   4.253   4.451   4.615   4.729   4.762
  4.875   4.876   4.981   6.305  90.428
 --------------------------------------------------------------
 
          Ground-State Mulliken Net Atomic Charges

     Atom                 Charge (a.u.)    Spin (a.u.)
  --------------------------------------------------------
      1 Br                   -0.070735      -0.000000
      2 C                    -0.197949      -0.000000
      3 C                    -0.208799       0.000000
      4 C                    -0.325259      -0.000000
      5 H                     0.112641       0.000000
      6 H                     0.113043       0.000000
      7 H                     0.126557       0.000000
      8 H                     0.127005      -0.000000
      9 H                     0.110009      -0.000000
     10 H                     0.106797       0.000000
     11 H                     0.106689       0.000000
  --------------------------------------------------------
  Sum of atomic charges =    -0.000000
  Sum of spin   charges =    -0.000000

 -----------------------------------------------------------------
                    Cartesian Multipole Moments
 -----------------------------------------------------------------
    Charge (ESU x 10^10)
                -0.0000
    Dipole Moment (Debye)
         X      -1.5796      Y      -0.4884      Z       0.0121
       Tot       1.6535
    Quadrupole Moments (Debye-Ang)
        XX     -41.5416     XY      -0.3715     YY     -38.2573
        XZ       0.0008     YZ      -0.0121     ZZ     -38.2299
    Octopole Moments (Debye-Ang^2)
       XXX     -63.5447    XXY       2.9106    XYY     -20.8125
       YYY       0.0465    XXZ       0.0118    XYZ      -0.0239
       YYZ       0.0384    XZZ     -21.5048    YZZ      -0.8746
       ZZZ       0.1462
    Hexadecapole Moments (Debye-Ang^3)
      XXXX    -699.2904   XXXY       8.6653   XXYY    -133.0749
      XYYY       0.9057   YYYY     -92.4830   XXXZ      -0.3737
      XXYZ      -0.1260   XYYZ      -0.0699   YYYZ      -0.1459
      XXZZ    -131.6890   XYZZ       0.7905   YYZZ     -23.8239
      XZZZ      -0.0005   YZZZ      -0.0275   ZZZZ     -62.4283
 -----------------------------------------------------------------
 Calculating analytic gradient of the SCF energy
 Gradient of SCF Energy
            1           2           3           4           5           6
    1  -0.2631431   0.0123485   0.2371558  -0.0015027  -0.0008095  -0.0007377
    2  -0.1055871   0.0020223   0.0955993  -0.0012744  -0.0005591  -0.0004421
    3   0.0022897  -0.0000380  -0.0021176  -0.0001465  -0.0001383   0.0002531
            7           8           9          10          11
    1   0.0085570   0.0086980  -0.0001796  -0.0001574  -0.0002291
    2   0.0049077   0.0049569   0.0000358   0.0001711   0.0001695
    3  -0.0014867   0.0014263  -0.0000166   0.0000024  -0.0000279
 Max gradient component =       2.631E-01
 RMS gradient           =       6.655E-02
 Gradient time:  CPU 11.21 s  wall 0.96 s
 Geometry Optimization Parameters
   NAtoms,    NIC,     NZ,  NCons,   NDum,   NFix, NCnnct, MaxDiis
       11      68       0       1       0       0       0       0

 Cartesian Hessian Update
 Hessian Updated using BFGS Update


** CONSTRAINED OPTIMIZATION IN DELOCALIZED INTERNAL COORDINATES **
   Searching for a Minimum

   Optimization Cycle:   4

                       Coordinates (Angstroms)
     ATOM                X               Y               Z
      1  Br        2.0002422487    0.0465652496   -0.0043853683
      2  C        -0.5977984393    0.5189897010    0.0125327269
      3  C         0.5128823980   -0.5452562663    0.0082475123
      4  C        -2.0076191213   -0.0901718109   -0.0128396360
      5  H        -0.4784974939    1.1471221553    0.9026818575
      6  H        -0.4595377164    1.1738743044   -0.8551626059
      7  H         0.3644748083   -1.1827662047   -0.8690041604
      8  H         0.3773155212   -1.1777199800    0.8911831173
      9  H        -2.7738855719    0.6913393815   -0.0077874426
     10  H        -2.1622615015   -0.6991803489   -0.9103220021
     11  H        -2.1825151319   -0.7301961809    0.8589560014
   Point Group: c1    Number of degrees of freedom:    27


   Energy is  -2692.363137508

              Constraints and their Current Values
                                        Value     Constraint
   Distance(Angs):        1   3             1.600828     1.600000
 Hessian Updated using BFGS Update

   Using Lagrange Multiplier Algorithm


 27 Hessian modes will be used to form the next step
  Hessian Eigenvalues:
    -0.649173    0.107651    0.107672    0.143286    0.165794    0.187944
     0.198402    0.200066    0.201069    0.242916    0.312890    0.364341
     0.382673    0.382834    0.382871    0.521682    0.529484    0.718100
     0.725389    0.814562    0.814938    0.819825    0.820019    0.820497
     0.821346    0.823503    1.587548

 Minimum Search - Taking P-RFO Step
 Searching for Lamda that Maximizes Along the Constraint modes Only
 Value Taken    Lamda =   0.00035983
 Searching for Lamda that Minimizes Along All other modes
 Value Taken    Lamda =  -0.00188795
 Step Taken.  Stepsize is  0.100851

                             Maximum     Tolerance    Cnvgd?
         Gradient            0.029425       0.000300      NO
         Displacement        0.076973       0.001200      NO
         Energy change      0.019758       0.000001      NO


 New Cartesian Coordinates Obtained by Inverse Iteration

 Displacement from previous Coordinates is:  0.093214
 ----------------------------------------------------------------
             Standard Nuclear Orientation (Angstroms)
    I     Atom           X                Y                Z
 ----------------------------------------------------------------
    1      Br      2.0190310379     0.0393732746    -0.0039735677
    2      C      -0.5981218351     0.5223064663     0.0123743526
    3      C       0.5264949374    -0.5370149159     0.0079989744
    4      C      -2.0033836604    -0.0938378392    -0.0126921645
    5      H      -0.4790539024     1.1514369742     0.9023469309
    6      H      -0.4603694218     1.1782145542    -0.8551449700
    7      H       0.3393749412    -1.1780096680    -0.8622583691
    8      H       0.3514217977    -1.1734527893     0.8840445806
    9      H      -2.7742706785     0.6829639192    -0.0074849378
   10      H      -2.1543315482    -0.7040643476    -0.9100932010
   11      H      -2.1739916678    -0.7353156285     0.8589823716
 ----------------------------------------------------------------
 Nuclear Repulsion Energy =   256.2032134576 hartrees
 There are       30 alpha and       30 beta electrons

                       Distance Matrix (Angstroms)
             Br(  1)   C (  2)   C (  3)   C (  4)   H (  5)   H (  6)
   C (  2)  2.661387
   C (  3)  1.600010  1.544974
   C (  4)  4.024629  1.534608  2.568486
   H (  5)  2.880717  1.096373  2.159133  2.170619
   H (  6)  2.858125  1.096258  2.158919  2.169962  1.757795
   H (  7)  2.244976  2.129544  1.096921  2.717666  3.034795  2.488259
   H (  8)  2.245093  2.130033  1.096886  2.741316  2.468833  3.035478
   H (  9)  4.836317  2.182162  3.519040  1.094402  2.513022  2.513551
   H ( 10)  4.334825  2.185571  2.838596  1.095669  3.087779  2.532884
   H ( 11)  4.350434  2.186715  2.838331  1.095636  2.536638  3.088095
             H (  7)   H (  8)   H (  9)   H ( 10)
   H (  8)  1.746350
   H (  9)  3.726748  3.743135
   H ( 10)  2.538796  3.117380  1.767165
   H ( 11)  3.078256  2.563261  1.767093  1.769461
 
 Applying Cartesian multipole field
    Component          Value
    ---------          -----
     (2,0,0)        1.00000E-11
     (0,2,0)        2.00000E-10
     (0,0,2)       -3.00000E-10
 Nucleus-field energy     =     0.0000000092 hartrees
 Requested basis set is 6-31G(d,p)
 There are 41 shells and 115 basis functions
 A cutoff of  1.0D-14 yielded    822 shell pairs
 There are      6507 function pairs
 Smallest overlap matrix eigenvalue = 7.22E-04
 Guess from superposition of atomic densities
 Warning:  Energy on first SCF cycle will be non-variational
 SAD guess density has 59.972873 electrons

 -----------------------------------------------------------------------
  General SCF calculation program by
  Eric Jon Sundstrom, Paul Horn, Yuezhi Mao, Dmitri Zuev, Alec White,
  David Stuck, Shaama M.S., Shane Yost, Joonho Lee, David Small,
  Daniel Levine, Susi Lehtola, Hugh Burton, Evgeny Epifanovsky
 -----------------------------------------------------------------------
 Exchange:     0.2000 Hartree-Fock + 0.0800 Slater + 0.7200 B88
 Correlation:  0.1900 VWN1RPA + 0.8100 LYP
 Using SG-1 standard quadrature grid
 using 12 threads for integral computing
 -------------------------------------------------------
 OpenMP Integral computing Module                
 Release: version 1.0, May 2013, Q-Chem Inc. Pittsburgh 
 -------------------------------------------------------
 -------------------------------------------------------
 OpenMP BLAS3 based DFT computing Module                
 Release: version 1.0, May 2013, Q-Chem Inc. Pittsburgh 
 -------------------------------------------------------
 A unrestricted SCF calculation will be
 performed using DIIS
 SCF converges when DIIS error is below 1.0e-06
 Alpha HF Exchange    Energy = -10.78825493416135
 Beta HF Exchange     Energy = -10.78825493416135
 DFT Correlation      Energy =  -3.13446134254991
 DFT Exchange         Energy = -85.12506673500394
 One-Electron (alpha) Energy = -2122.52124643652542
 One-Electron (beta)  Energy = -2122.52124643652542
 Total Coulomb        Energy = 1402.21914680401915
 ---------------------------------------
  Cycle       Energy         DIIS error
 ---------------------------------------
    1   -2696.4561705481      1.68e-01  
 Alpha HF Exchange    Energy = -10.81892429277386
 Beta HF Exchange     Energy = -10.81892429277386
 DFT Correlation      Energy =  -3.17609013999010
 DFT Exchange         Energy = -86.06083654182353
 One-Electron (alpha) Energy = -2129.36479842093013
 One-Electron (beta)  Energy = -2129.36479842092967
 Total Coulomb        Energy = 1421.15293563001615
    2   -2692.2482230124      9.63e-03  
 Alpha HF Exchange    Energy = -10.71832452292442
 Beta HF Exchange     Energy = -10.71832452292441
 DFT Correlation      Energy =  -3.14002947755608
 DFT Exchange         Energy = -85.24009526145429
 One-Electron (alpha) Energy = -2119.85806475355002
 One-Electron (beta)  Energy = -2119.85806475355002
 Total Coulomb        Energy = 1401.09305535333988
    3   -2692.2366344718      4.63e-03  
 Alpha HF Exchange    Energy = -10.79454842398701
 Beta HF Exchange     Energy = -10.79454842398702
 DFT Correlation      Energy =  -3.16888991176966
 DFT Exchange         Energy = -85.86198326992263
 One-Electron (alpha) Energy = -2126.99635441979535
 One-Electron (beta)  Energy = -2126.99635441979626
 Total Coulomb        Energy = 1416.09699001288118
    4   -2692.3124753896      2.89e-03  
 Alpha HF Exchange    Energy = -10.77056372678565
 Beta HF Exchange     Energy = -10.77056372678564
 DFT Correlation      Energy =  -3.15875417544019
 DFT Exchange         Energy = -85.66323708569760
 One-Electron (alpha) Energy = -2124.96711645609275
 One-Electron (beta)  Energy = -2124.96711645609139
 Total Coulomb        Energy = 1411.73146865484068
    5   -2692.3626695052      4.85e-04  
 Alpha HF Exchange    Energy = -10.76822423165065
 Beta HF Exchange     Energy = -10.76822423165065
 DFT Correlation      Energy =  -3.15867903301947
 DFT Exchange         Energy = -85.64605569695091
 One-Electron (alpha) Energy = -2124.69295403211390
 One-Electron (beta)  Energy = -2124.69295403211481
 Total Coulomb        Energy = 1411.16003559499131
    6   -2692.3638421957      6.39e-05  
 Alpha HF Exchange    Energy = -10.76793624799892
 Beta HF Exchange     Energy = -10.76793624799893
 DFT Correlation      Energy =  -3.15850885706778
 DFT Exchange         Energy = -85.64360566933149
 One-Electron (alpha) Energy = -2124.65084573377089
 One-Electron (beta)  Energy = -2124.65084573377180
 Total Coulomb        Energy = 1411.07260186035091
    7   -2692.3638631628      2.10e-05  
 Alpha HF Exchange    Energy = -10.76800616316313
 Beta HF Exchange     Energy = -10.76800616316314
 DFT Correlation      Energy =  -3.15851176547396
 DFT Exchange         Energy = -85.64412943745516
 One-Electron (alpha) Energy = -2124.66607556602958
 One-Electron (beta)  Energy = -2124.66607556603140
 Total Coulomb        Energy = 1411.10372533121904
    8   -2692.3638658633      7.02e-06  
 Alpha HF Exchange    Energy = -10.76801584224130
 Beta HF Exchange     Energy = -10.76801584224127
 DFT Correlation      Energy =  -3.15852118643215
 DFT Exchange         Energy = -85.64421749411875
 One-Electron (alpha) Energy = -2124.66597149554445
 One-Electron (beta)  Energy = -2124.66597149554309
 Total Coulomb        Energy = 1411.10363372887377
    9   -2692.3638661604      6.61e-07  Convergence criterion met
 ---------------------------------------
 SCF time:   CPU 25.61s  wall 2.00s 
<S^2> =         -0.000000000
 Alpha HF Exchange    Energy = -10.76801584224130
 Beta HF Exchange     Energy = -10.76801584224127
 DFT Correlation      Energy =  -3.15852118643215
 DFT Exchange         Energy = -85.64421749411875
 One-Electron (alpha) Energy = -2124.66597149554445
 One-Electron (beta)  Energy = -2124.66597149554309
 Total Coulomb        Energy = 1411.10363372887377
 Nuclear repulsion Energy = 256.20321346680322
 SCF   energy in the final basis set =    -2692.3638661604
 Total energy in the final basis set =    -2692.3638661604
 
 --------------------------------------------------------------
 
                    Orbital Energies (a.u.)
 --------------------------------------------------------------
 
 Alpha MOs
 -- Occupied --
******* -62.512 -56.332 -56.329 -56.329 -10.219 -10.192 -10.183
 -8.703  -6.533  -6.520  -6.520  -2.628  -2.623  -2.623  -2.613
 -2.613  -0.898  -0.766  -0.652  -0.595  -0.491  -0.448  -0.434
 -0.417  -0.373  -0.357  -0.346  -0.263  -0.262
 -- Virtual --
  0.066   0.109   0.116   0.128   0.147   0.166   0.175   0.186
  0.194   0.233   0.255   0.347   0.352   0.380   0.483   0.509
  0.521   0.544   0.546   0.582   0.602   0.648   0.685   0.699
[...]
   Point Group: c1    Number of degrees of freedom:    27


   Energy is  -2692.364245019

              Constraints and their Current Values
                                        Value     Constraint
   Distance(Angs):        1   3             1.600000     1.600000
 Hessian Updated using BFGS Update

 26 Hessian modes will be used to form the next step
  Hessian Eigenvalues:
     0.072913    0.107582    0.107686    0.165791    0.187488    0.198176
     0.200066    0.200739    0.216632    0.244828    0.312897    0.382684
     0.382815    0.382833    0.384383    0.488720    0.528924    0.667621
     0.721588    0.809082    0.814763    0.815980    0.819845    0.820035
     0.820635    0.823485

 Minimum Search - Taking Simple RFO Step
 Searching for Lamda that Minimizes Along All modes
 Value Taken    Lamda =  -0.00002321
 Step Taken.  Stepsize is  0.011800

                             Maximum     Tolerance    Cnvgd?
         Gradient           0.001277      0.000300      NO
         Displacement       0.005977      0.001200      NO
         Energy change     -0.000027      0.000001      NO


 New Cartesian Coordinates Obtained by Inverse Iteration

 Displacement from previous Coordinates is:  0.017604
 ----------------------------------------------------------------
             Standard Nuclear Orientation (Angstroms)
    I     Atom           X                Y                Z
 ----------------------------------------------------------------
    1      Br      2.0322468106     0.0297790807    -0.0026737428
    2      C      -0.6015163151     0.5333765000     0.0120678398
    3      C       0.5333196004    -0.5297807738     0.0078135321
    4      C      -1.9947921225    -0.0963448972    -0.0123214463
    5      H      -0.4834818925     1.1655560693     0.9011156144
    6      H      -0.4654739428     1.1916723207    -0.8551118080
    7      H       0.3165135719    -1.1837437573    -0.8509694051
    8      H       0.3260442242    -1.1806961828     0.8711750450
    9      H      -2.7735982911     0.6720658735    -0.0067940533
   10      H      -2.1391494150    -0.7089072426    -0.9094868641
   11      H      -2.1573122281    -0.7403769904     0.8592852883
 ----------------------------------------------------------------
 Nuclear Repulsion Energy =   255.5804395689 hartrees
 There are       30 alpha and       30 beta electrons

                       Distance Matrix (Angstroms)
             Br(  1)   C (  2)   C (  3)   C (  4)   H (  5)   H (  6)
   C (  2)  2.681517
   C (  3)  1.600000  1.555048
   C (  4)  4.029025  1.529170  2.565077
   H (  5)  2.904430  1.097264  2.169341  2.170442
   H (  6)  2.883618  1.097206  2.169246  2.169815  1.756514
   H (  7)  2.266271  2.129816  1.100991  2.688476  3.037928  2.500824
   H (  8)  2.267154  2.129901  1.100930  2.709735  2.482162  3.038865
   H (  9)  4.848577  2.176587  3.518573  1.094086  2.512462  2.513379
   H ( 10)  4.332264  2.181020  2.831186  1.095891  3.087577  2.533051
   H ( 11)  4.346092  2.181909  2.829992  1.095851  2.536935  3.087764
             H (  7)   H (  8)   H (  9)   H ( 10)
   H (  8)  1.722174
   H (  9)  3.702088  3.716361
   H ( 10)  2.501834  3.077421  1.767616
   H ( 11)  3.039960  2.522118  1.767738  1.769145
 
 Applying Cartesian multipole field
    Component          Value
    ---------          -----
     (2,0,0)        1.00000E-11
     (0,2,0)        2.00000E-10
     (0,0,2)       -3.00000E-10
 Nucleus-field energy     =     0.0000000094 hartrees
 Requested basis set is 6-31G(d,p)
 There are 41 shells and 115 basis functions
 A cutoff of  1.0D-14 yielded    822 shell pairs
 There are      6507 function pairs
 Smallest overlap matrix eigenvalue = 7.22E-04
 Guess from superposition of atomic densities
 Warning:  Energy on first SCF cycle will be non-variational
 SAD guess density has 59.972873 electrons

 -----------------------------------------------------------------------
  General SCF calculation program by
  Eric Jon Sundstrom, Paul Horn, Yuezhi Mao, Dmitri Zuev, Alec White,
  David Stuck, Shaama M.S., Shane Yost, Joonho Lee, David Small,
  Daniel Levine, Susi Lehtola, Hugh Burton, Evgeny Epifanovsky
 -----------------------------------------------------------------------
 Exchange:     0.2000 Hartree-Fock + 0.0800 Slater + 0.7200 B88
 Correlation:  0.1900 VWN1RPA + 0.8100 LYP
 Using SG-1 standard quadrature grid
 using 12 threads for integral computing
 -------------------------------------------------------
 OpenMP Integral computing Module                
 Release: version 1.0, May 2013, Q-Chem Inc. Pittsburgh 
 -------------------------------------------------------
 -------------------------------------------------------
 OpenMP BLAS3 based DFT computing Module                
 Release: version 1.0, May 2013, Q-Chem Inc. Pittsburgh 
 -------------------------------------------------------
 A unrestricted SCF calculation will be
 performed using DIIS
 SCF converges when DIIS error is below 1.0e-06
 Alpha HF Exchange    Energy = -10.78682405190350
 Beta HF Exchange     Energy = -10.78682405190350
 DFT Correlation      Energy =  -3.13417228804273
 DFT Exchange         Energy = -85.12235981449570
 One-Electron (alpha) Energy = -2121.90578447970938
 One-Electron (beta)  Energy = -2121.90578447970938
 Total Coulomb        Energy = 1401.61761897210340
 ---------------------------------------
  Cycle       Energy         DIIS error
 ---------------------------------------
    1   -2696.4436906154      1.68e-01  
 Alpha HF Exchange    Energy = -10.81801825783938
 Beta HF Exchange     Energy = -10.81801825783936
 DFT Correlation      Energy =  -3.17569823037144
 DFT Exchange         Energy = -86.05453931298726
 One-Electron (alpha) Energy = -2128.71174744511063
 One-Electron (beta)  Energy = -2128.71174744510836
 Total Coulomb        Energy = 1420.46029604598721
    2   -2692.2490333250      9.62e-03  
 Alpha HF Exchange    Energy = -10.71776627349700
 Beta HF Exchange     Energy = -10.71776627349699
 DFT Correlation      Energy =  -3.13969694722757
 DFT Exchange         Energy = -85.23634576021878
 One-Electron (alpha) Energy = -2119.24019135006165
 One-Electron (beta)  Energy = -2119.24019135006074
 Total Coulomb        Energy = 1400.47453512387119
    3   -2692.2369832524      4.62e-03  
 Alpha HF Exchange    Energy = -10.79382435440443
 Beta HF Exchange     Energy = -10.79382435440443
 DFT Correlation      Energy =  -3.16857100582016
 DFT Exchange         Energy = -85.85722610943527
 One-Electron (alpha) Energy = -2126.36487388006935
 One-Electron (beta)  Energy = -2126.36487388006981
 Total Coulomb        Energy = 1415.45021818986265
    4   -2692.3125358161      2.89e-03  
 Alpha HF Exchange    Energy = -10.76983634781053
 Beta HF Exchange     Energy = -10.76983634781053
 DFT Correlation      Energy =  -3.15840252417192
 DFT Exchange         Energy = -85.65829347107388
 One-Electron (alpha) Energy = -2124.33272192323602
 One-Electron (beta)  Energy = -2124.33272192323557
 Total Coulomb        Energy = 1411.07831568920460
    5   -2692.3630572699      4.86e-04  
 Alpha HF Exchange    Energy = -10.76749960870477
 Beta HF Exchange     Energy = -10.76749960870476
 DFT Correlation      Energy =  -3.15832777605949
 DFT Exchange         Energy = -85.64115329694356
 One-Electron (alpha) Energy = -2124.06019211045668
 One-Electron (beta)  Energy = -2124.06019211045577
 Total Coulomb        Energy = 1410.51019199179882
    6   -2692.3642329413      6.39e-05  
 Alpha HF Exchange    Energy = -10.76720812283269
 Beta HF Exchange     Energy = -10.76720812283267
 DFT Correlation      Energy =  -3.15815785042198
 DFT Exchange         Energy = -85.63867615165407
 One-Electron (alpha) Energy = -2124.01741597464616
 One-Electron (beta)  Energy = -2124.01741597464525
 Total Coulomb        Energy = 1410.42138871914949
    7   -2692.3642538996      2.15e-05  
 Alpha HF Exchange    Energy = -10.76727903696680
 Beta HF Exchange     Energy = -10.76727903696682
 DFT Correlation      Energy =  -3.15816081465338
 DFT Exchange         Energy = -85.63920775718448
 One-Electron (alpha) Energy = -2124.03291021253972
 One-Electron (beta)  Energy = -2124.03291021254063
 Total Coulomb        Energy = 1410.45305073058762
    8   -2692.3642567620      6.97e-06  
 Alpha HF Exchange    Energy = -10.76728931968425
 Beta HF Exchange     Energy = -10.76728931968424
 DFT Correlation      Energy =  -3.15817035477436
 DFT Exchange         Energy = -85.63930036291691
 One-Electron (alpha) Energy = -2124.03289500642995
 One-Electron (beta)  Energy = -2124.03289500642904
 Total Coulomb        Energy = 1410.45314273705208
    9   -2692.3642570546      7.11e-07  Convergence criterion met
 ---------------------------------------
 SCF time:   CPU 26.52s  wall 2.00s 
<S^2> =         -0.000000000
 Alpha HF Exchange    Energy = -10.76728931968425
 Beta HF Exchange     Energy = -10.76728931968424
 DFT Correlation      Energy =  -3.15817035477436
 DFT Exchange         Energy = -85.63930036291691
 One-Electron (alpha) Energy = -2124.03289500642995
 One-Electron (beta)  Energy = -2124.03289500642904
 Total Coulomb        Energy = 1410.45314273705208
 Nuclear repulsion Energy = 255.58043957825180
 SCF   energy in the final basis set =    -2692.3642570546
 Total energy in the final basis set =    -2692.3642570546
 
 --------------------------------------------------------------
 
                    Orbital Energies (a.u.)
 --------------------------------------------------------------
 
 Alpha MOs
 -- Occupied --
******* -62.513 -56.333 -56.330 -56.330 -10.219 -10.193 -10.183
 -8.704  -6.534  -6.521  -6.521  -2.630  -2.624  -2.624  -2.614
 -2.614  -0.897  -0.767  -0.651  -0.595  -0.487  -0.450  -0.434
 -0.416  -0.374  -0.358  -0.345  -0.263  -0.262
 -- Virtual --
  0.066   0.108   0.115   0.130   0.147   0.166   0.175   0.187
  0.192   0.236   0.252   0.346   0.352   0.380   0.483   0.512
  0.521   0.544   0.548   0.582   0.601   0.647   0.684   0.702
  0.765   0.772   0.852   0.855   0.871   0.889   0.890   0.914
  0.938   1.031   1.053   1.121   1.338   1.391   1.408   1.563
  1.615   1.662   1.691   1.815   1.822   1.867   1.956   2.043
  2.057   2.093   2.101   2.108   2.227   2.260   2.263   2.275
  2.336   2.441   2.483   2.488   2.585   2.699   2.741   2.755
  2.787   2.846   2.881   2.905   3.164   3.229   3.314   3.321
  3.451   3.463   3.553   4.254   4.450   4.616   4.725   4.755
  4.871   4.873   4.978   6.303  90.422
 
 Beta MOs
 -- Occupied --
******* -62.513 -56.333 -56.330 -56.330 -10.219 -10.193 -10.183
 -8.704  -6.534  -6.521  -6.521  -2.630  -2.624  -2.624  -2.614
 -2.614  -0.897  -0.767  -0.651  -0.595  -0.487  -0.450  -0.434
 -0.416  -0.374  -0.358  -0.345  -0.263  -0.262
 -- Virtual --
  0.066   0.108   0.115   0.130   0.147   0.166   0.175   0.187
  0.192   0.236   0.252   0.346   0.352   0.380   0.483   0.512
  0.521   0.544   0.548   0.582   0.601   0.647   0.684   0.702
  0.765   0.772   0.852   0.855   0.871   0.889   0.890   0.914
  0.938   1.031   1.053   1.121   1.338   1.391   1.408   1.563
  1.615   1.662   1.691   1.815   1.822   1.867   1.956   2.043
  2.057   2.093   2.101   2.108   2.227   2.260   2.263   2.275
  2.336   2.441   2.483   2.488   2.585   2.699   2.741   2.755
  2.787   2.846   2.881   2.905   3.164   3.229   3.314   3.321
  3.451   3.463   3.553   4.254   4.450   4.616   4.725   4.755
  4.871   4.873   4.978   6.303  90.422
 --------------------------------------------------------------
 
          Ground-State Mulliken Net Atomic Charges

     Atom                 Charge (a.u.)    Spin (a.u.)
  --------------------------------------------------------
      1 Br                   -0.059266       0.000000
      2 C                    -0.196166       0.000000
      3 C                    -0.212915      -0.000000
      4 C                    -0.325814      -0.000000
      5 H                     0.110939       0.000000
      6 H                     0.111200      -0.000000
      7 H                     0.123211       0.000000
      8 H                     0.123563       0.000000
      9 H                     0.110994      -0.000000
     10 H                     0.107209      -0.000000
     11 H                     0.107044       0.000000
  --------------------------------------------------------
  Sum of atomic charges =    -0.000000
  Sum of spin   charges =    -0.000000

 -----------------------------------------------------------------
                    Cartesian Multipole Moments
 -----------------------------------------------------------------
    Charge (ESU x 10^10)
                 0.0000
    Dipole Moment (Debye)
         X      -1.5350      Y      -0.4366      Z       0.0087
       Tot       1.5959
    Quadrupole Moments (Debye-Ang)
        XX     -41.2202     XY      -0.2042     YY     -38.2927
        XZ      -0.0042     YZ      -0.0118     ZZ     -38.3823
    Octopole Moments (Debye-Ang^2)
       XXX     -64.6988    XXY       3.2512    XYY     -21.5939
       YYY       0.6942    XXZ      -0.0245    XYZ      -0.0166
       YYZ       0.0127    XZZ     -22.1948    YZZ      -0.4871
       ZZZ       0.0442
    Hexadecapole Moments (Debye-Ang^3)
      XXXX    -706.7275   XXXY      10.0769   XXYY    -135.3009
      XYYY       2.7741   YYYY     -92.9363   XXXZ      -0.4946
      XXYZ      -0.1085   XYYZ      -0.1228   YYYZ      -0.1611
      XXZZ    -133.5057   XYZZ       1.5474   YYZZ     -24.0250
      XZZZ      -0.1691   YZZZ      -0.0376   ZZZZ     -62.5096
 -----------------------------------------------------------------
 Calculating analytic gradient of the SCF energy
 Gradient of SCF Energy
            1           2           3           4           5           6
    1  -0.2566733   0.0000029   0.2568940  -0.0001230  -0.0001570  -0.0000860
    2  -0.0957389   0.0000384   0.0954765  -0.0000617   0.0000251   0.0001360
    3   0.0017982  -0.0000062  -0.0018063  -0.0000560   0.0000714   0.0000390
            7           8           9          10          11
    1  -0.0000155   0.0000050   0.0001034   0.0000463   0.0000033
    2   0.0000496   0.0000813   0.0000281  -0.0000172  -0.0000171
    3   0.0000276   0.0000240  -0.0000383  -0.0000368  -0.0000166
 Max gradient component =       2.569E-01
 RMS gradient           =       6.746E-02
 Gradient time:  CPU 11.15 s  wall 0.96 s
 Geometry Optimization Parameters
   NAtoms,    NIC,     NZ,  NCons,   NDum,   NFix, NCnnct, MaxDiis
       11      68       0       1       0       0       0       0

 Cartesian Hessian Update
 Hessian Updated using BFGS Update


** CONSTRAINED OPTIMIZATION IN DELOCALIZED INTERNAL COORDINATES **
   Searching for a Minimum

   Optimization Cycle:   8

                       Coordinates (Angstroms)
     ATOM                X               Y               Z
      1  Br        2.0322468106    0.0297790807   -0.0026737428
      2  C        -0.6015163151    0.5333765000    0.0120678398
      3  C         0.5333196004   -0.5297807738    0.0078135321
      4  C        -1.9947921225   -0.0963448972   -0.0123214463
      5  H        -0.4834818925    1.1655560693    0.9011156144
      6  H        -0.4654739428    1.1916723207   -0.8551118080
      7  H         0.3165135719   -1.1837437573   -0.8509694051
      8  H         0.3260442242   -1.1806961828    0.8711750450
      9  H        -2.7735982911    0.6720658735   -0.0067940533
     10  H        -2.1391494150   -0.7089072426   -0.9094868641
     11  H        -2.1573122281   -0.7403769904    0.8592852883
   Point Group: c1    Number of degrees of freedom:    27


   Energy is  -2692.364257055

              Constraints and their Current Values
                                        Value     Constraint
   Distance(Angs):        1   3             1.600000     1.600000
 Hessian Updated using BFGS Update

 26 Hessian modes will be used to form the next step
  Hessian Eigenvalues:
     0.071878    0.105690    0.107674    0.165774    0.185204    0.195735
     0.200063    0.200914    0.207360    0.251918    0.312895    0.382676
     0.382815    0.382833    0.386622    0.491500    0.529167    0.681126
     0.721816    0.808343    0.814762    0.816031    0.819848    0.820037
     0.820765    0.823484

 Minimum Search - Taking Simple RFO Step
 Searching for Lamda that Minimizes Along All modes
 Value Taken    Lamda =   0.00000000
 Step Taken.  Stepsize is  0.001715

                             Maximum     Tolerance    Cnvgd?
         Gradient           0.000225      0.000300     YES
         Displacement       0.000642      0.001200     YES
         Energy change     -0.000012      0.000001      NO


                       Distance Matrix (Angstroms)
             Br(  1)   C (  2)   C (  3)   C (  4)   H (  5)   H (  6)
   C (  2)  2.681517
   C (  3)  1.600000  1.555048
   C (  4)  4.029025  1.529170  2.565077
   H (  5)  2.904430  1.097264  2.169341  2.170442
   H (  6)  2.883618  1.097206  2.169246  2.169815  1.756514
   H (  7)  2.266271  2.129816  1.100991  2.688476  3.037928  2.500824
   H (  8)  2.267154  2.129901  1.100930  2.709735  2.482162  3.038865
   H (  9)  4.848577  2.176587  3.518573  1.094086  2.512462  2.513379
   H ( 10)  4.332264  2.181020  2.831186  1.095891  3.087577  2.533051
   H ( 11)  4.346092  2.181909  2.829992  1.095851  2.536935  3.087764
             H (  7)   H (  8)   H (  9)   H ( 10)
   H (  8)  1.722174
   H (  9)  3.702088  3.716361
   H ( 10)  2.501834  3.077421  1.767616
   H ( 11)  3.039960  2.522118  1.767738  1.769145
 
 Final energy is   -2692.36425705461     


 ******************************
 **  OPTIMIZATION CONVERGED  **
 ******************************

                       Coordinates (Angstroms)
     ATOM                X               Y               Z
      1  Br        2.0322468106    0.0297790807   -0.0026737428
      2  C        -0.6015163151    0.5333765000    0.0120678398
      3  C         0.5333196004   -0.5297807738    0.0078135321
      4  C        -1.9947921225   -0.0963448972   -0.0123214463
      5  H        -0.4834818925    1.1655560693    0.9011156144
      6  H        -0.4654739428    1.1916723207   -0.8551118080
      7  H         0.3165135719   -1.1837437573   -0.8509694051
      8  H         0.3260442242   -1.1806961828    0.8711750450
      9  H        -2.7735982911    0.6720658735   -0.0067940533
     10  H        -2.1391494150   -0.7089072426   -0.9094868641
     11  H        -2.1573122281   -0.7403769904    0.8592852883

Z-matrix Print:
$molecule
0 1
Br
C  1 1.600000
H  2 1.100930 1 112.848243
H  2 1.100991 1 112.773890 3 -116.094462 0
C  2 1.555048 1 116.397288 3 121.990816 0
H  5 1.097206 2 108.514489 1 56.213035 0
H  5 1.097264 2 108.518498 1 -58.943720 0
C  5 1.529170 2 112.540359 1 178.604002 0
H  8 1.094086 5 111.055288 2 179.887000 0
H  8 1.095851 5 111.374256 2 59.918258 0
H  8 1.095891 5 111.300605 2 -60.210873 0
$end

PES scan, value:    1.6000 energy: -2692.3642570546
------- Summary of potential scan: ------ 
    1.6000     -2692.3642570546
----------------------------------------- 
Archival summary:
1\1\hpc0242\JobtypUnspecified\ProcedureUnspecified\6-31G**\r137\knomura\WedMar1316:00:292019WedMar1316:00:292019\0\\#,JobtypUnspecified,ProcedureUnspecified,6-31G**,\\0,1\Br\C,1,1.6\H,2,1.10093,1,112.848\H,2,1.10099,1,112.774,3,-116.094,0\C,2,1.55505,1,116.397,3,121.991,0\H,5,1.09721,2,108.514,1,56.213,0\H,5,1.09726,2,108.518,1,-58.9437,0\C,5,1.52917,2,112.54,1,178.604,0\H,8,1.09409,5,111.055,2,179.887,0\H,8,1.09585,5,111.374,2,59.9183,0\H,8,1.09589,5,111.301,2,-60.2109,0\\\@

 Total job time:  35.54s(wall), 336.94s(cpu) 
 Wed Mar 13 16:00:29 2019

        *************************************************************
        *                                                           *
        *  Thank you very much for using Q-Chem.  Have a nice day.  *
        *                                                           *
        *************************************************************


