
Running Job 1 of 1 halogens/Bromine/02/Br_3.xyz.data/inputs/bond_triplet_5.1.in
qchem halogens/Bromine/02/Br_3.xyz.data/inputs/bond_triplet_5.1.in_27743.0 /staging/scratch/2868759/qchem27743/ 1
/usr/usc/qchem/5.1.1/exe/qcprog.exe_s halogens/Bromine/02/Br_3.xyz.data/inputs/bond_triplet_5.1.in_27743.0 /staging/scratch/2868759/qchem27743/
Check license passed

                  Welcome to Q-Chem
     A Quantum Leap Into The Future Of Chemistry


 Q-Chem 5.1, Q-Chem, Inc., Pleasanton, CA (2018)

 Yihan Shao,  Zhengting Gan,  E. Epifanovsky,  A. T. B. Gilbert,  M. Wormit,  
 J. Kussmann,  A. W. Lange,  A. Behn,  Jia Deng,  Xintian Feng,  D. Ghosh,  
 M. Goldey,  P. R. Horn,  L. D. Jacobson,  I. Kaliman,  T. Kus,  A. Landau,  
 Jie Liu,  E. I. Proynov,  R. M. Richard,  R. P. Steele,  E. J. Sundstrom,  
 H. L. Woodcock III,  P. M. Zimmerman,  D. Zuev,  B. Albrecht,  E. Alguire,  
 S. A. Baeppler,  D. Barton,  Z. Benda,  Y. A. Bernard,  E. J. Berquist,  
 K. B. Bravaya,  H. Burton,  D. Casanova,  Chun-Min Chang,  Yunqing Chen,  
 A. Chien,  K. D. Closser,  M. P. Coons,  S. Coriani,  S. Dasgupta,  
 A. L. Dempwolff,  M. Diedenhofen,  Hainam Do,  R. G. Edgar,  Po-Tung Fang,  
 S. Faraji,  S. Fatehi,  Qingguo Feng,  K. D. Fenk,  J. Fosso-Tande,  
 Qinghui Ge,  A. Ghysels,  G. Gidofalvi,  J. Gomes,  J. Gonthier,  A. Gunina,  
 D. Hait,  M. W. D. Hanson-Heine,  P. H. P. Harbach,  A. W. Hauser,  
 J. E. Herr,  E. G. Hohenstein,  Z. C. Holden,  Kerwin Hui,  B. C. Huynh,  
 T.-C. Jagau,  Hyunjun Ji,  B. Kaduk,  K. Khistyaev,  Jaehoon Kim,  
 P. Klunzinger,  K. Koh,  D. Kosenkov,  L. Koulias,  T. Kowalczyk,  
 C. M. Krauter,  A. Kunitsa,  Ka Un Lao,  A. Laurent,  K. V. Lawler,  
 Joonho Lee,  D. Lefrancois,  S. Lehtola,  D. S. Levine,  Yi-Pei Li,  
 You-Sheng Lin,  Fenglai Liu,  E. Livshits,  A. Luenser,  P. Manohar,  
 E. Mansoor,  S. F. Manzer,  Shan-Ping Mao,  Yuezhi Mao,  N. Mardirossian,  
 A. V. Marenich,  T. Markovich,  L. A. Martinez-Martinez,  S. A. Maurer,  
 N. J. Mayhall,  S. C. McKenzie,  J.-M. Mewes,  A. F. Morrison,  
 J. W. Mullinax,  K. Nanda,  T. S. Nguyen-Beck,  R. Olivares-Amaya,  
 J. A. Parkhill,  T. M. Perrine,  F. Plasser,  P. Pokhilko,  S. Prager,  
 A. Prociuk,  E. Ramos,  D. R. Rehn,  F. Rob,  M. Schneider,  N. Sergueev,  
 S. M. Sharada,  S. Sharma,  D. W. Small,  T. Stauch,  T. Stein,  
 Yu-Chuan Su,  A. J. W. Thom,  A. Tkatchenko,  T. Tsuchimochi,  N. M. Tubman,  
 L. Vogt,  M. L. Vidal,  O. Vydrov,  M. A. Watson,  J. Wenzel,  
 M. de Wergifosse,  T. A. Wesolowski,  A. White,  J. Witte,  A. Yamada,  
 Jun Yang,  K. Yao,  S. Yeganeh,  S. R. Yost,  Zhi-Qiang You,  A. Zech,  
 Igor Ying Zhang,  Xing Zhang,  Yan Zhao,  Ying Zhu,  B. R. Brooks,  
 G. K. L. Chan,  C. J. Cramer,  M. S. Gordon,  W. J. Hehre,  A. Klamt,  
 M. W. Schmidt,  C. D. Sherrill,  D. G. Truhlar,  A. Aspuru-Guzik,  R. Baer,  
 A. T. Bell,  N. A. Besley,  Jeng-Da Chai,  A. E. DePrince, III,  
 R. A. DiStasio Jr.,  A. Dreuw,  B. D. Dunietz,  T. R. Furlani,  
 Chao-Ping Hsu,  Yousung Jung,  Jing Kong,  D. S. Lambrecht,  WanZhen Liang,  
 C. Ochsenfeld,  V. A. Rassolov,  L. V. Slipchenko,  J. E. Subotnik,  
 T. Van Voorhis,  J. M. Herbert,  A. I. Krylov,  P. M. W. Gill,  M. Head-Gordon

 Contributors to earlier versions of Q-Chem not listed above: 
 R. D. Adamson,  B. Austin,  J. Baker,  G. J. O. Beran,  K. Brandhorst,  
 S. T. Brown,  E. F. C. Byrd,  A. K. Chakraborty,  C.-L. Cheng,  
 Siu Hung Chien,  D. M. Chipman,  D. L. Crittenden,  H. Dachsel,  
 R. J. Doerksen,  A. D. Dutoi,  L. Fusti-Molnar,  W. A. Goddard III,  
 A. Golubeva-Zadorozhnaya,  S. R. Gwaltney,  G. Hawkins,  A. Heyden,  
 S. Hirata,  G. Kedziora,  F. J. Keil,  C. Kelley,  Jihan Kim,  R. A. King,  
 R. Z. Khaliullin,  P. P. Korambath,  W. Kurlancheek,  A. M. Lee,  M. S. Lee,  
 S. V. Levchenko,  Ching Yeh Lin,  D. Liotard,  R. C. Lochan,  I. Lotan,  
 P. E. Maslen,  N. Nair,  D. P. O'Neill,  D. Neuhauser,  E. Neuscamman,  
 C. M. Oana,  R. Olson,  B. Peters,  R. Peverati,  P. A. Pieniazek,  
 Y. M. Rhee,  J. Ritchie,  M. A. Rohrdanz,  E. Rosta,  N. J. Russ,  
 H. F. Schaefer III,  N. E. Schultz,  N. Shenvi,  A. C. Simmonett,  A. Sodt,  
 D. Stuck,  K. S. Thanthiriwatte,  V. Vanovschi,  Tao Wang,  A. Warshel,  
 C. F. Williams,  Q. Wu,  X. Xu,  W. Zhang

 Please cite Q-Chem as follows:
 Y. Shao et al., Mol. Phys. 113, 184-215 (2015)
 DOI: 10.1080/00268976.2014.952696

 Q-Chem 5.1.1 for Intel X86 EM64T Linux

 Parts of Q-Chem use Armadillo 8.300.2 (Tropical Shenanigans).
 http://arma.sourceforge.net/

 Q-Chem begins on Wed Mar 13 17:18:15 2019  

Host: 
0

     Scratch files written to /staging/scratch/2868759/qchem27743//
 Aug318 |scratch|qcdevops|jenkins|workspace|build_RNUM 6013   
Processing $rem in /usr/usc/qchem/5.1.1/config/preferences.
 MEM_TOTAL  2000 
Input Ideriv = 2
Curr. Ideriv = -1
Max.  Ideriv = 2

Checking the input file for inconsistencies... 	...done.

--------------------------------------------------------------
User input:
--------------------------------------------------------------

$comment
potential surface scanner
$end

$rem
JOBTYPE  PES_SCAN
UNRESTRICTED TRUE
SYM_IGNORE  TRUE
GEOM_OPT_MAX_CYCLES 400
SCF_MAX_CYCLES 400
METHOD   B3LYP
BASIS   6-31G**
PDB_PRINT 2
SCF_CONVERGENCE 6
THRESH 14
SCF_PRINT 1
$end
$molecule
0 3
Br 5.295955 -0.891626 -0.004880
C -1.139700 0.610513 0.014205
C 0.150811 -0.138497 0.012262
C -2.384151 -0.309001 -0.014445
H -1.200397 1.250043 0.904242
H -1.184588 1.279814 -0.855280
H 0.568846 -0.519158 -0.914789
H 0.583352 -0.504488 0.938402
H -3.305864 0.283521 -0.015763
H -2.385443 -0.940073 -0.908947
H -2.406026 -0.968450 0.859089
$end
$scan
stre 1 3 5.100000 5.101000 0.100000
$end
--------------------------------------------------------------
 ----------------------------------------------------------------
             Standard Nuclear Orientation (Angstroms)
    I     Atom           X                Y                Z
 ----------------------------------------------------------------
    1      Br      5.2959550000    -0.8916260000    -0.0048800000
    2      C      -1.1397000000     0.6105130000     0.0142050000
    3      C       0.1508110000    -0.1384970000     0.0122620000
    4      C      -2.3841510000    -0.3090010000    -0.0144450000
    5      H      -1.2003970000     1.2500430000     0.9042420000
    6      H      -1.1845880000     1.2798140000    -0.8552800000
    7      H       0.5688460000    -0.5191580000    -0.9147890000
    8      H       0.5833520000    -0.5044880000     0.9384020000
    9      H      -3.3058640000     0.2835210000    -0.0157630000
   10      H      -2.3854430000    -0.9400730000    -0.9089470000
   11      H      -2.4060260000    -0.9684500000     0.8590890000
 ----------------------------------------------------------------
 Nuclear Repulsion Energy =   148.1273069840 hartrees
 There are       31 alpha and       29 beta electrons
 Requested basis set is 6-31G(d,p)
 There are 41 shells and 115 basis functions

 Total QAlloc Memory Limit   2000 MB
 Mega-Array Size       188 MB
 MEM_STATIC part       192 MB
A total of 1 constraints
  
            1
    1   1.0100000
    2   1.0100000
    3   3.0100000
    4   5.1000000
    5   5.1010000
    6   0.1000000
    7   0.0000000
    8   0.0000000
    9   0.0000000
   10   0.0000000

                       Distance Matrix (Angstroms)
             Br(  1)   C (  2)   C (  3)   C (  4)   H (  5)   H (  6)
   C (  2)  6.608664
   C (  3)  5.200000  1.492125
   C (  4)  7.702180  1.547574  2.540830
   H (  5)  6.900423  1.097656  2.132940  2.162378
   H (  6)  6.887363  1.098173  2.132493  2.161085  1.759845
   H (  7)  4.828274  2.249070  1.085854  3.094346  3.093407  2.512841
   H (  8)  4.821647  2.250839  1.085715  3.122852  2.502260  3.086526
   H (  9)  8.681727  2.190910  3.482454  1.095737  2.492702  2.489418
   H ( 10)  7.734569  2.192807  2.814913  1.094709  3.080357  2.524447
   H ( 11)  7.750668  2.193293  2.818396  1.094721  2.525330  3.079880
             H (  7)   H (  8)   H (  9)   H ( 10)
   H (  8)  1.853306
   H (  9)  4.057822  4.081347
   H ( 10)  2.984129  3.523660  1.772607
   H ( 11)  3.492616  3.026208  1.772711  1.768384
 
 A cutoff of  1.0D-14 yielded    696 shell pairs
 There are      5009 function pairs
 
 -------------------------------------------------------
 OpenMP Integral Computing Module                       
 Release: version 1.0, May 2013, Q-Chem Inc. Pittsburgh 
 -------------------------------------------------------
 Integral Job Info:
 Integral job number is                      11
 Integral operator is                         1
 short-range coefficients                     0
 long-range coefficients              100000000
 Omega coefficients                           0
 if combine SR and LR in K                    0
 Integral screening is                        0
 Integral computing path is                   2
 max size of driver memory is            800000
 size of driver memory is                593474
 size of scratch memory is             15267112
 max col of scratch BK array               1296
 max len of scratch array in speh3          155
 max len of scratch index in speh4           18
 max int batch size is                      520
 min int batch size is                       52
 fixed nKL is                                52
 max L of basis functions is                  2
 order of int derivative is                   0
 number of shells is                         41
 number of basis is                         115
 number of cartesian basis is               115
 number of contracted shell pairs           696
 number of primitive shell pairs           2640
 maxK2 (contraction) of shell pair           36
 max number of K2 of shell pair               1
 max number of CS2 of shell pair             59
 max number of PS2 of shell pair            186
 mem total for path MDJ                  513890
 -------------------------------------------------------
 Smallest overlap matrix eigenvalue = 7.27E-04

 Scale SEOQF with 1.000000e-02/1.000000e+00/1.000000e+00

 Standard Electronic Orientation quadrupole field applied
 Nucleus-field energy     =     0.0000000245 hartrees
 Guess from superposition of atomic densities
 Warning:  Energy on first SCF cycle will be non-variational
 SAD guess density has 59.972873 electrons

 -----------------------------------------------------------------------
  General SCF calculation program by
  Eric Jon Sundstrom, Paul Horn, Yuezhi Mao, Dmitri Zuev, Alec White,
  David Stuck, Shaama M.S., Shane Yost, Joonho Lee, David Small,
  Daniel Levine, Susi Lehtola, Hugh Burton, Evgeny Epifanovsky
 -----------------------------------------------------------------------
 Exchange:     0.2000 Hartree-Fock + 0.0800 Slater + 0.7200 B88
 Correlation:  0.1900 VWN1RPA + 0.8100 LYP
 Using SG-1 standard quadrature grid
 using 12 threads for integral computing
 -------------------------------------------------------
 OpenMP Integral computing Module                
 Release: version 1.0, May 2013, Q-Chem Inc. Pittsburgh 
 -------------------------------------------------------
 -------------------------------------------------------
 OpenMP BLAS3 based DFT computing Module                
 Release: version 1.0, May 2013, Q-Chem Inc. Pittsburgh 
 -------------------------------------------------------
 A unrestricted SCF calculation will be
 performed using DIIS
 SCF converges when DIIS error is below 1.0e-06
 Alpha HF Exchange    Energy = -10.71097631118160
 Beta HF Exchange     Energy = -10.71097631118160
 DFT Correlation      Energy =  -3.10400152638144
 DFT Exchange         Energy = -84.97288788243685
 One-Electron (alpha) Energy = -2014.76694683575124
 One-Electron (beta)  Energy = -2014.76694683575124
 Total Coulomb        Energy = 1295.41331525629857
 ---------------------------------------
  Cycle       Energy         DIIS error
 ---------------------------------------
    1   -2695.4921134379      1.64e-01  
 Alpha HF Exchange    Energy = -10.89573895366541
 Beta HF Exchange     Energy = -10.70117094974684
 DFT Correlation      Energy =  -3.13638399806013
 DFT Exchange         Energy = -85.89603636943809
 One-Electron (alpha) Energy = -2036.81081172700192
 One-Electron (beta)  Energy = -2003.25537931605891
 Total Coulomb        Energy = 1310.35136065789698
    2   -2692.2168536476      9.50e-03  
 Alpha HF Exchange    Energy = -10.79861453402058
 Beta HF Exchange     Energy = -10.61435081697373
 DFT Correlation      Energy =  -3.10151596689108
 DFT Exchange         Energy = -85.14561762354748
 One-Electron (alpha) Energy = -2029.34932443014600
 One-Electron (beta)  Energy = -1996.33661205890530
 Total Coulomb        Energy = 1295.00065659067491
    3   -2692.2180718313      4.12e-03  
 Alpha HF Exchange    Energy = -10.87279617742908
 Beta HF Exchange     Energy = -10.68036376796537
 DFT Correlation      Energy =  -3.12776015172716
 DFT Exchange         Energy = -85.71294725859669
 One-Electron (alpha) Energy = -2034.97218647594241
 One-Electron (beta)  Energy = -2001.35997616407030
 Total Coulomb        Energy = 1306.32076334217436
    4   -2692.2779596450      2.63e-03  
 Alpha HF Exchange    Energy = -10.84906960510510
 Beta HF Exchange     Energy = -10.65803686135444
 DFT Correlation      Energy =  -3.11827658944443
 DFT Exchange         Energy = -85.52466405023840
 One-Electron (alpha) Energy = -2033.31871176997697
 One-Electron (beta)  Energy = -1999.79474091968882
 Total Coulomb        Energy = 1302.81586192546320
    5   -2692.3203308618      3.11e-04  
 Alpha HF Exchange    Energy = -10.84695930355549
 Beta HF Exchange     Energy = -10.65661349939232
 DFT Correlation      Energy =  -3.11802562566973
 DFT Exchange         Energy = -85.51118422652009
 One-Electron (alpha) Energy = -2033.12295912413151
 One-Electron (beta)  Energy = -1999.62581838977098
 Total Coulomb        Energy = 1302.43347975788197
    6   -2692.3207734026      5.46e-05  
 Alpha HF Exchange    Energy = -10.84686946519312
 Beta HF Exchange     Energy = -10.65636215957729
 DFT Correlation      Energy =  -3.11789641202119
 DFT Exchange         Energy = -85.50971766627723
 One-Electron (alpha) Energy = -2033.10986313900685
 One-Electron (beta)  Energy = -1999.60659358522298
 Total Coulomb        Energy = 1302.39920209936304
    7   -2692.3207933194      1.61e-05  
 Alpha HF Exchange    Energy = -10.84694042458766
 Beta HF Exchange     Energy = -10.65642613708083
 DFT Correlation      Energy =  -3.11787757173806
 DFT Exchange         Energy = -85.51018811340987
 One-Electron (alpha) Energy = -2033.11950621732649
 One-Electron (beta)  Energy = -1999.61237773894277
 Total Coulomb        Energy = 1302.41521401612090
    8   -2692.3207951785      6.62e-06  
 Alpha HF Exchange    Energy = -10.84698641499723
 Beta HF Exchange     Energy = -10.65642969091207
 DFT Correlation      Energy =  -3.11788552749515
 DFT Exchange         Energy = -85.51038851294889
 One-Electron (alpha) Energy = -2033.12164955110666
 One-Electron (beta)  Energy = -1999.61202704658422
 Total Coulomb        Energy = 1302.41726408860109
    9   -2692.3207956469      1.82e-06  
 Alpha HF Exchange    Energy = -10.84698624484243
 Beta HF Exchange     Energy = -10.65642267744956
 DFT Correlation      Energy =  -3.11788039702337
 DFT Exchange         Energy = -85.51035483153191
 One-Electron (alpha) Energy = -2033.12125555060379
 One-Electron (beta)  Energy = -1999.61114256782639
 Total Coulomb        Energy = 1302.41593948907621
   10   -2692.3207957717      1.04e-06  
 Alpha HF Exchange    Energy = -10.84698636162172
 Beta HF Exchange     Energy = -10.65642182774891
 DFT Correlation      Energy =  -3.11787976224447
 DFT Exchange         Energy = -85.51035153303170
 One-Electron (alpha) Energy = -2033.12129006782766
 One-Electron (beta)  Energy = -1999.61111601043831
 Total Coulomb        Energy = 1302.41594271979648
   11   -2692.3207958346      7.44e-07  Convergence criterion met
 ---------------------------------------
 SCF time:   CPU 27.06s  wall 2.00s 
<S^2> =          2.005215956
 Alpha HF Exchange    Energy = -10.84698636162172
 Beta HF Exchange     Energy = -10.65642182774891
 DFT Correlation      Energy =  -3.11787976224447
 DFT Exchange         Energy = -85.51035153303170
 One-Electron (alpha) Energy = -2033.12129006782766
 One-Electron (beta)  Energy = -1999.61111601043831
 Total Coulomb        Energy = 1302.41594271979648
 Nuclear repulsion Energy = 148.12730700851020
 SCF   energy in the final basis set =    -2692.3207958346
 Total energy in the final basis set =    -2692.3207958346
 
 --------------------------------------------------------------
 
                    Orbital Energies (a.u.)
 --------------------------------------------------------------
 
 Alpha MOs
 -- Occupied --
******* -62.557 -56.381 -56.374 -56.374 -10.186 -10.185 -10.176
 -8.744  -6.581  -6.559  -6.559  -2.672  -2.666  -2.666  -2.650
 -2.650  -0.797  -0.779  -0.672  -0.579  -0.461  -0.426  -0.392
 -0.378  -0.371  -0.348  -0.332  -0.323  -0.322  -0.199
 -- Virtual --
  0.104   0.137   0.143   0.157   0.168   0.178   0.179   0.220
  0.231   0.272   0.290   0.312   0.312   0.513   0.533   0.534
  0.534   0.545   0.545   0.548   0.581   0.582   0.591   0.596
  0.657   0.694   0.786   0.812   0.858   0.877   0.882   0.910
  0.937   0.960   0.998   1.213   1.307   1.428   1.478   1.528
  1.600   1.676   1.682   1.821   1.871   1.955   1.974   2.001
  2.053   2.070   2.122   2.124   2.225   2.259   2.290   2.370
  2.436   2.452   2.520   2.574   2.676   2.710   2.742   2.804
  2.857   2.882   2.921   3.185   3.257   3.356   3.378   3.465
  3.480   3.554   4.238   4.430   4.606   4.648   4.656   4.657
  4.682   4.682   6.205  90.122
 
 Beta MOs
 -- Occupied --
******* -62.556 -56.376 -56.373 -56.373 -10.186 -10.175 -10.172
 -8.740  -6.570  -6.557  -6.557  -2.664  -2.660  -2.660  -2.649
 -2.649  -0.768  -0.753  -0.654  -0.565  -0.456  -0.421  -0.387
 -0.366  -0.343  -0.329  -0.308  -0.308
 -- Virtual --
 -0.235  -0.040   0.108   0.145   0.149   0.159   0.176   0.180
  0.184   0.224   0.236   0.281   0.316   0.316   0.319   0.518
  0.535   0.549   0.566   0.589   0.589   0.591   0.591   0.596
  0.598   0.630   0.669   0.708   0.790   0.819   0.861   0.879
  0.885   0.918   0.943   0.971   1.001   1.224   1.317   1.457
  1.482   1.544   1.622   1.682   1.695   1.830   1.876   1.959
  1.999   2.041   2.053   2.071   2.123   2.130   2.227   2.270
  2.291   2.376   2.442   2.463   2.529   2.598   2.682   2.712
  2.746   2.807   2.860   2.884   2.925   3.186   3.261   3.361
  3.380   3.467   3.486   3.557   4.258   4.446   4.608   4.668
  4.671   4.671   4.684   4.684   6.221  90.129
 --------------------------------------------------------------
 
          Ground-State Mulliken Net Atomic Charges

     Atom                 Charge (a.u.)    Spin (a.u.)
  --------------------------------------------------------
      1 Br                   -0.000141       0.999990
      2 C                    -0.189010      -0.073795
      3 C                    -0.220197       1.080118
      4 C                    -0.307522       0.050117
      5 H                     0.102427       0.011634
      6 H                     0.102983       0.014322
      7 H                     0.099730      -0.047432
      8 H                     0.099959      -0.047526
      9 H                     0.101081       0.013710
     10 H                     0.105249      -0.000671
     11 H                     0.105440      -0.000466
  --------------------------------------------------------
  Sum of atomic charges =    -0.000000
  Sum of spin   charges =     2.000000

 -----------------------------------------------------------------
                    Cartesian Multipole Moments
 -----------------------------------------------------------------
    Charge (ESU x 10^10)
                -0.0000
    Dipole Moment (Debye)
         X      -0.2707      Y      -0.0127      Z       0.0011
       Tot       0.2710
    Quadrupole Moments (Debye-Ang)
        XX     -37.5606     XY       0.4738     YY     -39.4417
        XZ      -0.0754     YZ      -0.0353     ZZ     -38.8393
    Octopole Moments (Debye-Ang^2)
       XXX    -191.7626    XXY      27.0217    XYY     -74.8939
       YYY      47.4517    XXZ      -0.7684    XYZ      -0.1381
       YYZ       0.0784    XZZ     -75.5511    YZZ      15.7707
       ZZZ       0.1076
    Hexadecapole Moments (Debye-Ang^3)
      XXXX   -3180.9337   XXXY     328.7039   XXYY    -625.1174
      XYYY     262.5440   YYYY    -172.9188   XXXZ      -5.9374
      XXYZ      -0.6700   XYYZ       0.5277   YYYZ      -0.7527
      XXZZ    -603.0139   XYZZ      89.4819   YYZZ     -38.4742
      XZZZ       0.8259   YZZZ      -0.5203   ZZZZ     -64.4324
 -----------------------------------------------------------------
 Calculating analytic gradient of the SCF energy
 Gradient of SCF Energy
            1           2           3           4           5           6
    1   0.0001110  -0.0000693   0.0000574   0.0000115   0.0000117   0.0000004
    2   0.0000054  -0.0000739   0.0005031  -0.0000062   0.0000081  -0.0000249
    3   0.0000037   0.0000149  -0.0000325   0.0000132  -0.0000150  -0.0000219
            7           8           9          10          11
    1  -0.0000593  -0.0000622  -0.0000036  -0.0000002   0.0000027
    2  -0.0002059  -0.0001966  -0.0000059  -0.0000126   0.0000093
    3   0.0000546  -0.0000473   0.0000008   0.0000142   0.0000153
 Max gradient component =       5.031E-04
 RMS gradient           =       1.068E-04
 Gradient time:  CPU 8.42 s  wall 0.73 s
 Geometry Optimization Parameters
   NAtoms,    NIC,     NZ,  NCons,   NDum,   NFix, NCnnct, MaxDiis
       11      85       0       1       0       0       0       0


** CONSTRAINED OPTIMIZATION IN DELOCALIZED INTERNAL COORDINATES **
   Searching for a Minimum

   Optimization Cycle:   1

                       Coordinates (Angstroms)
     ATOM                X               Y               Z
      1  Br        5.2959550000   -0.8916260000   -0.0048800000
      2  C        -1.1397000000    0.6105130000    0.0142050000
      3  C         0.1508110000   -0.1384970000    0.0122620000
      4  C        -2.3841510000   -0.3090010000   -0.0144450000
      5  H        -1.2003970000    1.2500430000    0.9042420000
      6  H        -1.1845880000    1.2798140000   -0.8552800000
      7  H         0.5688460000   -0.5191580000   -0.9147890000
      8  H         0.5833520000   -0.5044880000    0.9384020000
      9  H        -3.3058640000    0.2835210000   -0.0157630000
     10  H        -2.3854430000   -0.9400730000   -0.9089470000
     11  H        -2.4060260000   -0.9684500000    0.8590890000
   Point Group: c1    Number of degrees of freedom:    27


   Energy is  -2692.320795835

              Constraints and their Current Values
                                        Value     Constraint
   Distance(Angs):        1   3             5.200000     5.100000

 Attempting to Generate Delocalized Internal Coordinates

   Using Lagrange Multiplier Algorithm


 28 Hessian modes will be used to form the next step
  Hessian Eigenvalues:
    -0.998487    0.045000    0.045000    0.046476    0.047646    0.067802
     0.073326    0.078130    0.082952    0.083037    0.085611    0.087087
     0.104558    0.132733    0.160000    0.160000    0.160000    0.219532
     0.278584    0.330283    0.332177    0.333904    0.338850    0.339427
     0.341580    0.342728    0.342741    1.001515

 Minimum Search - Taking P-RFO Step
 Searching for Lamda that Maximizes Along the Constraint modes Only
 Value Taken    Lamda =   0.01757799
 Searching for Lamda that Minimizes Along All other modes
 Value Taken    Lamda =  -0.01751761
 Step Taken.  Stepsize is  0.185732

                             Maximum     Tolerance    Cnvgd?
         Gradient            0.188973       0.000300      NO
         Displacement        0.185714       0.001200      NO
         Energy change     *********       0.000001      NO


 New Cartesian Coordinates Obtained by Inverse Iteration

 Displacement from previous Coordinates is:  0.201700
 ----------------------------------------------------------------
             Standard Nuclear Orientation (Angstroms)
    I     Atom           X                Y                Z
 ----------------------------------------------------------------
    1      Br      5.2179177271    -0.8587178976    -0.0049192042
    2      C      -1.1201527027     0.6032174063     0.0141632303
    3      C       0.1649919908    -0.1549863121     0.0123028461
    4      C      -2.3711826622    -0.3073423836    -0.0144447931
    5      H      -1.1763346514     1.2432549333     0.9041353336
    6      H      -1.1602787508     1.2727736793    -0.8553643069
    7      H       0.5433188212    -0.5236904994    -0.9183526206
    8      H       0.5579294332    -0.5087031058     0.9421631615
    9      H      -3.2885985851     0.2918067536    -0.0158219057
   10      H      -2.3769999051    -0.9384569867    -0.9088999217
   11      H      -2.3978157152    -0.9665575874     0.8591341807
 ----------------------------------------------------------------
 Nuclear Repulsion Energy =   149.4047086901 hartrees
 There are       31 alpha and       29 beta electrons

                       Distance Matrix (Angstroms)
             Br(  1)   C (  2)   C (  3)   C (  4)   H (  5)   H (  6)
   C (  2)  6.504518
   C (  3)  5.101725  1.492137
   C (  4)  7.609110  1.547583  2.540888
   H (  5)  6.791990  1.097659  2.132979  2.162361
   H (  6)  6.778488  1.098178  2.132531  2.161065  1.759820
   H (  7)  4.774775  2.215095  1.070137  3.059113  3.066067  2.476590
   H (  8)  4.768120  2.216644  1.069652  3.087935  2.465456  3.058922
   H (  9)  8.583976  2.190898  3.482485  1.095734  2.492636  2.489352
   H ( 10)  7.648942  2.192822  2.814989  1.094710  3.080351  2.524444
   H ( 11)  7.665351  2.193306  2.818467  1.094721  2.525334  3.079871
             H (  7)   H (  8)   H (  9)   H ( 10)
   H (  8)  1.860634
   H (  9)  4.020347  4.044049
   H ( 10)  2.949641  3.496417  1.772611
   H ( 11)  3.464948  2.992149  1.772716  1.768380
 
 Applying Cartesian multipole field
    Component          Value
    ---------          -----
     (2,0,0)        1.00000E-12
     (0,2,0)        2.00000E-10
     (0,0,2)       -3.00000E-10
 Nucleus-field energy     =     0.0000000229 hartrees
 Requested basis set is 6-31G(d,p)
 There are 41 shells and 115 basis functions
 A cutoff of  1.0D-14 yielded    702 shell pairs
 There are      5091 function pairs
 Smallest overlap matrix eigenvalue = 7.27E-04
 Guess from superposition of atomic densities
 Warning:  Energy on first SCF cycle will be non-variational
 SAD guess density has 59.972873 electrons

 -----------------------------------------------------------------------
  General SCF calculation program by
  Eric Jon Sundstrom, Paul Horn, Yuezhi Mao, Dmitri Zuev, Alec White,
  David Stuck, Shaama M.S., Shane Yost, Joonho Lee, David Small,
  Daniel Levine, Susi Lehtola, Hugh Burton, Evgeny Epifanovsky
 -----------------------------------------------------------------------
 Exchange:     0.2000 Hartree-Fock + 0.0800 Slater + 0.7200 B88
 Correlation:  0.1900 VWN1RPA + 0.8100 LYP
 Using SG-1 standard quadrature grid
 using 12 threads for integral computing
 -------------------------------------------------------
 OpenMP Integral computing Module                
 Release: version 1.0, May 2013, Q-Chem Inc. Pittsburgh 
 -------------------------------------------------------
 -------------------------------------------------------
 OpenMP BLAS3 based DFT computing Module                
 Release: version 1.0, May 2013, Q-Chem Inc. Pittsburgh 
 -------------------------------------------------------
 A unrestricted SCF calculation will be
 performed using DIIS
 SCF converges when DIIS error is below 1.0e-06
 Alpha HF Exchange    Energy = -10.71297147114737
 Beta HF Exchange     Energy = -10.71297147114737
 DFT Correlation      Energy =  -3.10448510772162
 DFT Exchange         Energy = -84.97718040317656
 One-Electron (alpha) Energy = -2016.02661441325927
 One-Electron (beta)  Energy = -2016.02661441325927
 Total Coulomb        Energy = 1296.64921287748712
 ---------------------------------------
  Cycle       Energy         DIIS error
 ---------------------------------------
    1   -2695.5069156892      1.64e-01  
 Alpha HF Exchange    Energy = -10.89750171175682
 Beta HF Exchange     Energy = -10.70263555854161
 DFT Correlation      Energy =  -3.13707946805898
 DFT Exchange         Energy = -85.90788188212423
 One-Electron (alpha) Energy = -2038.15639319706793
 One-Electron (beta)  Energy = -2004.49070540119783
 Total Coulomb        Energy = 1311.67236294777808
    2   -2692.2151255580      9.51e-03  
 Alpha HF Exchange    Energy = -10.79970648832867
 Beta HF Exchange     Energy = -10.61546373151178
 DFT Correlation      Energy =  -3.10210253738256
 DFT Exchange         Energy = -85.15346416946136
 One-Electron (alpha) Energy = -2030.67037164724729
 One-Electron (beta)  Energy = -1997.55623669361080
 Total Coulomb        Energy = 1296.27532073554835
    3   -2692.2173158190      4.12e-03  
 Alpha HF Exchange    Energy = -10.87401831795940
 Beta HF Exchange     Energy = -10.68156628126717
 DFT Correlation      Energy =  -3.12829207602067
 DFT Exchange         Energy = -85.72148454242691
 One-Electron (alpha) Energy = -2036.29207610294407
 One-Electron (beta)  Energy = -2002.57671744045570
 Total Coulomb        Energy = 1307.59152878338273
    4   -2692.2779172647      2.62e-03  
 Alpha HF Exchange    Energy = -10.85038006035895
 Beta HF Exchange     Energy = -10.65928077183709
 DFT Correlation      Energy =  -3.11889117004610
 DFT Exchange         Energy = -85.53381845285074
 One-Electron (alpha) Energy = -2034.64454163914343
 One-Electron (beta)  Energy = -2001.01688756523549
 Total Coulomb        Energy = 1304.09941762038920
    5   -2692.3196733261      3.19e-04  
 Alpha HF Exchange    Energy = -10.84826666416060
 Beta HF Exchange     Energy = -10.65789946668149
 DFT Correlation      Energy =  -3.11863607056478
 DFT Exchange         Energy = -85.52047425198981
 One-Electron (alpha) Energy = -2034.45146033814581
 One-Electron (beta)  Energy = -2000.85133736317198
 Total Coulomb        Energy = 1303.72321339832706
    6   -2692.3201520434      5.44e-05  
 Alpha HF Exchange    Energy = -10.84815998865091
 Beta HF Exchange     Energy = -10.65763908833965
 DFT Correlation      Energy =  -3.11850604848821
 DFT Exchange         Energy = -85.51890949873057
 One-Electron (alpha) Energy = -2034.43687651623986
 One-Electron (beta)  Energy = -2000.83111121319939
 Total Coulomb        Energy = 1303.68632159569074
    7   -2692.3201720450      1.58e-05  
 Alpha HF Exchange    Energy = -10.84823331454918
 Beta HF Exchange     Energy = -10.65770551411901
 DFT Correlation      Energy =  -3.11848870942408
 DFT Exchange         Energy = -85.51939981709415
 One-Electron (alpha) Energy = -2034.44665759879445
 One-Electron (beta)  Energy = -2000.83713268536349
 Total Coulomb        Energy = 1303.70273509827416
    8   -2692.3201738281      6.44e-06  
 Alpha HF Exchange    Energy = -10.84827540641339
 Beta HF Exchange     Energy = -10.65770880732990
 DFT Correlation      Energy =  -3.11849639761098
 DFT Exchange         Energy = -85.51958391315158
 One-Electron (alpha) Energy = -2034.44855026240953
 One-Electron (beta)  Energy = -2000.83672611456018
 Total Coulomb        Energy = 1303.70445790266763
    9   -2692.3201742858      1.82e-06  
 Alpha HF Exchange    Energy = -10.84827532386900
 Beta HF Exchange     Energy = -10.65770267027776
 DFT Correlation      Energy =  -3.11849162706200
 DFT Exchange         Energy = -85.51955424990243
 One-Electron (alpha) Energy = -2034.44818310194455
 One-Electron (beta)  Energy = -2000.83591763881100
 Total Coulomb        Energy = 1303.70324146387520
   10   -2692.3201744350      1.10e-06  
 Alpha HF Exchange    Energy = -10.84827533017225
 Beta HF Exchange     Energy = -10.65770188847421
 DFT Correlation      Energy =  -3.11849096964041
 DFT Exchange         Energy = -85.51955073382555
 One-Electron (alpha) Energy = -2034.44821046938432
 One-Electron (beta)  Energy = -2000.83588948151987
 Total Coulomb        Energy = 1303.70323564389514
   11   -2692.3201745161      8.39e-07  Convergence criterion met
 ---------------------------------------
 SCF time:   CPU 26.81s  wall 3.00s 
<S^2> =          2.005090987
 Alpha HF Exchange    Energy = -10.84827533017225
 Beta HF Exchange     Energy = -10.65770188847421
 DFT Correlation      Energy =  -3.11849096964041
 DFT Exchange         Energy = -85.51955073382555
 One-Electron (alpha) Energy = -2034.44821046938432
 One-Electron (beta)  Energy = -2000.83588948151987
 Total Coulomb        Energy = 1303.70323564389514
 Nuclear repulsion Energy = 149.40470871299681
 SCF   energy in the final basis set =    -2692.3201745161
 Total energy in the final basis set =    -2692.3201745161
 
 --------------------------------------------------------------
 
                    Orbital Energies (a.u.)
 --------------------------------------------------------------
 
 Alpha MOs
 -- Occupied --
******* -62.557 -56.381 -56.374 -56.374 -10.184 -10.183 -10.176
 -8.744  -6.581  -6.558  -6.558  -2.672  -2.666  -2.666  -2.650
 -2.650  -0.796  -0.779  -0.674  -0.579  -0.464  -0.425  -0.396
 -0.377  -0.371  -0.346  -0.332  -0.322  -0.322  -0.199
 -- Virtual --
  0.104   0.140   0.145   0.158   0.168   0.180   0.181   0.221
  0.231   0.269   0.291   0.312   0.312   0.514   0.529   0.534
  0.537   0.545   0.545   0.547   0.581   0.582   0.590   0.598
  0.658   0.695   0.784   0.812   0.861   0.882   0.883   0.915
  0.939   0.961   1.006   1.217   1.309   1.419   1.478   1.542
  1.602   1.677   1.684   1.823   1.883   1.941   1.980   2.015
  2.053   2.071   2.115   2.124   2.236   2.258   2.297   2.372
  2.449   2.452   2.517   2.603   2.679   2.734   2.743   2.804
  2.846   2.885   2.918   3.185   3.273   3.378   3.407   3.474
  3.492   3.554   4.243   4.433   4.605   4.649   4.657   4.657
  4.682   4.682   6.205  90.122
 
 Beta MOs
 -- Occupied --
******* -62.555 -56.376 -56.372 -56.372 -10.184 -10.175 -10.169
 -8.740  -6.570  -6.557  -6.557  -2.664  -2.660  -2.660  -2.649
 -2.649  -0.768  -0.753  -0.655  -0.565  -0.459  -0.419  -0.391
 -0.365  -0.341  -0.330  -0.308  -0.308
 -- Virtual --
 -0.235  -0.040   0.108   0.147   0.152   0.160   0.175   0.182
  0.186   0.225   0.236   0.278   0.316   0.317   0.320   0.518
  0.538   0.545   0.565   0.589   0.589   0.591   0.591   0.596
  0.601   0.631   0.670   0.710   0.788   0.819   0.864   0.885
  0.886   0.922   0.944   0.975   1.009   1.228   1.318   1.450
  1.483   1.556   1.623   1.684   1.695   1.832   1.887   1.945
  2.004   2.053   2.055   2.072   2.115   2.132   2.238   2.270
  2.298   2.378   2.454   2.465   2.526   2.628   2.685   2.736
  2.747   2.807   2.849   2.887   2.921   3.186   3.275   3.380
  3.413   3.477   3.498   3.557   4.261   4.449   4.607   4.668
  4.671   4.671   4.684   4.685   6.221  90.129
 --------------------------------------------------------------
 
          Ground-State Mulliken Net Atomic Charges

     Atom                 Charge (a.u.)    Spin (a.u.)
  --------------------------------------------------------
      1 Br                   -0.000197       1.000007
      2 C                    -0.191170      -0.073281
      3 C                    -0.217708       1.078169
      4 C                    -0.307115       0.050285
      5 H                     0.100836       0.011570
      6 H                     0.101450       0.014273
      7 H                     0.101555      -0.046776
      8 H                     0.101812      -0.046856
      9 H                     0.101231       0.013738
     10 H                     0.104547      -0.000667
     11 H                     0.104759      -0.000462
  --------------------------------------------------------
  Sum of atomic charges =    -0.000000
  Sum of spin   charges =     2.000000

 -----------------------------------------------------------------
                    Cartesian Multipole Moments
 -----------------------------------------------------------------
    Charge (ESU x 10^10)
                -0.0000
    Dipole Moment (Debye)
         X      -0.2673      Y      -0.0241      Z       0.0013
       Tot       0.2684
    Quadrupole Moments (Debye-Ang)
        XX     -37.7995     XY       0.6198     YY     -39.3252
        XZ      -0.0732     YZ      -0.0401     ZZ     -38.7440
    Octopole Moments (Debye-Ang^2)
       XXX    -190.6066    XXY      27.4071    XYY     -73.0824
       YYY      45.6251    XXZ      -0.7436    XYZ      -0.1624
       YYZ       0.0837    XZZ     -74.3006    YZZ      15.2175
       ZZZ       0.1146
    Hexadecapole Moments (Debye-Ang^3)
      XXXX   -3116.1761   XXXY     322.3510   XXYY    -605.4186
      XYYY     247.5053   YYYY    -165.5256   XXXZ      -5.6522
      XXYZ      -0.8181   XYYZ       0.5507   YYYZ      -0.7461
      XXZZ    -586.8571   XYZZ      84.9386   YYZZ     -37.2950
      XZZZ       0.8166   YZZZ      -0.5154   ZZZZ     -64.1746
 -----------------------------------------------------------------
 Calculating analytic gradient of the SCF energy
 Gradient of SCF Energy
            1           2           3           4           5           6
    1   0.0001251   0.0007095   0.0133996  -0.0000875   0.0002779   0.0002609
    2   0.0000038  -0.0014996  -0.0098038  -0.0001479  -0.0001114  -0.0001427
    3   0.0000048  -0.0000001   0.0001830   0.0000080  -0.0000419   0.0000103
            7           8           9          10          11
    1  -0.0072940  -0.0074997   0.0000247   0.0000428   0.0000407
    2   0.0057764   0.0057657   0.0000464   0.0000455   0.0000676
    3   0.0070346  -0.0072353   0.0000018   0.0000460  -0.0000112
 Max gradient component =       1.340E-02
 RMS gradient           =       4.107E-03
 Gradient time:  CPU 8.73 s  wall 0.77 s
 Geometry Optimization Parameters
   NAtoms,    NIC,     NZ,  NCons,   NDum,   NFix, NCnnct, MaxDiis
       11      85       0       1       0       0       0       0

 Cartesian Hessian Update
 Hessian Updated using BFGS Update


** CONSTRAINED OPTIMIZATION IN DELOCALIZED INTERNAL COORDINATES **
   Searching for a Minimum

   Optimization Cycle:   2

                       Coordinates (Angstroms)
     ATOM                X               Y               Z
      1  Br        5.2179177271   -0.8587178976   -0.0049192042
      2  C        -1.1201527027    0.6032174063    0.0141632303
      3  C         0.1649919908   -0.1549863121    0.0123028461
      4  C        -2.3711826622   -0.3073423836   -0.0144447931
      5  H        -1.1763346514    1.2432549333    0.9041353336
      6  H        -1.1602787508    1.2727736793   -0.8553643069
      7  H         0.5433188212   -0.5236904994   -0.9183526206
      8  H         0.5579294332   -0.5087031058    0.9421631615
      9  H        -3.2885985851    0.2918067536   -0.0158219057
     10  H        -2.3769999051   -0.9384569867   -0.9088999217
     11  H        -2.3978157152   -0.9665575874    0.8591341807
   Point Group: c1    Number of degrees of freedom:    27


   Energy is  -2692.320174516

              Constraints and their Current Values
                                        Value     Constraint
   Distance(Angs):        1   3             5.101725     5.100000
 Hessian Updated using BFGS Update

   Using Lagrange Multiplier Algorithm


 27 Hessian modes will be used to form the next step
  Hessian Eigenvalues:
    -0.983835    0.044999    0.045000    0.046357    0.047646    0.067802
     0.073326    0.078129    0.082952    0.083037    0.085609    0.099900
     0.104882    0.132733    0.160000    0.160008    0.219579    0.278584
     0.330296    0.332209    0.338850    0.339426    0.341580    0.342727
     0.342741    0.496381    1.025131

 Minimum Search - Taking P-RFO Step
 Searching for Lamda that Maximizes Along the Constraint modes Only
 Value Taken    Lamda =   0.00003885
 Searching for Lamda that Minimizes Along All other modes
 Value Taken    Lamda =  -0.00055363
 Step Taken.  Stepsize is  0.043745

                             Maximum     Tolerance    Cnvgd?
         Gradient            0.007973       0.000300      NO
         Displacement        0.037117       0.001200      NO
         Energy change      0.000621       0.000001      NO


 New Cartesian Coordinates Obtained by Inverse Iteration

 Displacement from previous Coordinates is:  0.034813
 ----------------------------------------------------------------
             Standard Nuclear Orientation (Angstroms)
    I     Atom           X                Y                Z
 ----------------------------------------------------------------
    1      Br      5.2160157478    -0.8552734526    -0.0050245201
    2      C      -1.1217985766     0.6045909208     0.0141706780
    3      C       0.1642483868    -0.1557391483     0.0123544686
    4      C      -2.3730205879    -0.3057719777    -0.0144845490
    5      H      -1.1788262431     1.2448387515     0.9040603057
    6      H      -1.1626611793     1.2743103196    -0.8553279148
    7      H       0.5517412504    -0.5303470644    -0.9229489901
    8      H       0.5665586808    -0.5152023010     0.9470409590
    9      H      -3.2904643558     0.2933198692    -0.0159118461
   10      H      -2.3790648785    -0.9370328848    -0.9089038693
   11      H      -2.3999332445    -0.9650950322     0.8590712780
 ----------------------------------------------------------------
 Nuclear Repulsion Energy =   149.3209827717 hartrees
 There are       31 alpha and       29 beta electrons

                       Distance Matrix (Angstroms)
             Br(  1)   C (  2)   C (  3)   C (  4)   H (  5)   H (  6)
   C (  2)  6.503804
   C (  3)  5.100000  1.493995
   C (  4)  7.608910  1.547623  2.541843
   H (  5)  6.791974  1.097758  2.135558  2.161994
   H (  6)  6.778323  1.098281  2.135089  2.160705  1.759709
   H (  7)  4.764831  2.228680  1.079479  3.070826  3.079628  2.490088
   H (  8)  4.758101  2.230411  1.079216  3.099922  2.479105  3.072636
   H (  9)  8.583682  2.191097  3.483891  1.095726  2.492138  2.488877
   H ( 10)  7.649113  2.193032  2.815596  1.094766  3.080256  2.524390
   H ( 11)  7.665599  2.193490  2.819045  1.094774  2.525259  3.079763
             H (  7)   H (  8)   H (  9)   H ( 10)
   H (  8)  1.870110
   H (  9)  4.032826  4.056798
   H ( 10)  2.958921  3.507017  1.772527
   H ( 11)  3.475196  3.001702  1.772639  1.768321
 
 Applying Cartesian multipole field
    Component          Value
    ---------          -----
     (2,0,0)        1.00000E-12
     (0,2,0)        2.00000E-10
     (0,0,2)       -3.00000E-10
 Nucleus-field energy     =     0.0000000228 hartrees
 Requested basis set is 6-31G(d,p)
 There are 41 shells and 115 basis functions
 A cutoff of  1.0D-14 yielded    702 shell pairs
 There are      5091 function pairs
 Smallest overlap matrix eigenvalue = 7.27E-04
 Guess from superposition of atomic densities
 Warning:  Energy on first SCF cycle will be non-variational
 SAD guess density has 59.972873 electrons

 -----------------------------------------------------------------------
  General SCF calculation program by
  Eric Jon Sundstrom, Paul Horn, Yuezhi Mao, Dmitri Zuev, Alec White,
  David Stuck, Shaama M.S., Shane Yost, Joonho Lee, David Small,
  Daniel Levine, Susi Lehtola, Hugh Burton, Evgeny Epifanovsky
 -----------------------------------------------------------------------
 Exchange:     0.2000 Hartree-Fock + 0.0800 Slater + 0.7200 B88
 Correlation:  0.1900 VWN1RPA + 0.8100 LYP
 Using SG-1 standard quadrature grid
 using 12 threads for integral computing
 -------------------------------------------------------
 OpenMP Integral computing Module                
 Release: version 1.0, May 2013, Q-Chem Inc. Pittsburgh 
 -------------------------------------------------------
 -------------------------------------------------------
 OpenMP BLAS3 based DFT computing Module                
 Release: version 1.0, May 2013, Q-Chem Inc. Pittsburgh 
 -------------------------------------------------------
 A unrestricted SCF calculation will be
 performed using DIIS
 SCF converges when DIIS error is below 1.0e-06
 Alpha HF Exchange    Energy = -10.71159180886482
 Beta HF Exchange     Energy = -10.71159180886482
 DFT Correlation      Energy =  -3.10418051789167
 DFT Exchange         Energy = -84.97419786417225
 One-Electron (alpha) Energy = -2015.95434931056457
 One-Electron (beta)  Energy = -2015.95434931056457
 Total Coulomb        Energy = 1296.59179634202678
 ---------------------------------------
  Cycle       Energy         DIIS error
 ---------------------------------------
    1   -2695.4974814844      1.64e-01  
 Alpha HF Exchange    Energy = -10.89636497586285
 Beta HF Exchange     Energy = -10.70169797573973
 DFT Correlation      Energy =  -3.13662900075640
 DFT Exchange         Energy = -85.90025505877136
 One-Electron (alpha) Energy = -2038.06513337372508
 One-Electron (beta)  Energy = -2004.40856024030722
 Total Coulomb        Energy = 1311.57152702153553
    2   -2692.2161308091      9.50e-03  
 Alpha HF Exchange    Energy = -10.79898191683132
 Beta HF Exchange     Energy = -10.61470278225365
 DFT Correlation      Energy =  -3.10172122390752
 DFT Exchange         Energy = -85.14815784103811
 One-Electron (alpha) Energy = -2030.59349369924507
 One-Electron (beta)  Energy = -1997.48142760438486
 Total Coulomb        Energy = 1296.19975113122632
    3   -2692.2177511419      4.12e-03  
 Alpha HF Exchange    Energy = -10.87319634961685
 Beta HF Exchange     Energy = -10.68078105392624
 DFT Correlation      Energy =  -3.12792770966030
 DFT Exchange         Energy = -85.71577364064615
 One-Electron (alpha) Energy = -2036.21441429229094
 One-Electron (beta)  Energy = -2002.50302917325052
 Total Coulomb        Energy = 1307.51617371903808
    4   -2692.2779657058      2.63e-03  
 Alpha HF Exchange    Energy = -10.84953443712174
 Beta HF Exchange     Energy = -10.65846747615520
 DFT Correlation      Energy =  -3.11849137301077
 DFT Exchange         Energy = -85.52785521834311
 One-Electron (alpha) Energy = -2034.56546534473250
 One-Electron (beta)  Energy = -2000.94111414854387
 Total Coulomb        Energy = 1304.01987282943787
    5   -2692.3200723740      3.16e-04  
 Alpha HF Exchange    Energy = -10.84741261178396
 Beta HF Exchange     Energy = -10.65705992272830
 DFT Correlation      Energy =  -3.11823421510636
 DFT Exchange         Energy = -85.51437882684770
 One-Electron (alpha) Energy = -2034.37031543908597
 One-Electron (beta)  Energy = -2000.77319656630425
 Total Coulomb        Energy = 1303.63907942801757
    6   -2692.3205353593      5.46e-05  
 Alpha HF Exchange    Energy = -10.84731536922556
 Beta HF Exchange     Energy = -10.65680375241879
 DFT Correlation      Energy =  -3.11810510565428
 DFT Exchange         Energy = -85.51286711358779
 One-Electron (alpha) Energy = -2034.35644356681883
 One-Electron (beta)  Energy = -2000.75337987564285
 Total Coulomb        Energy = 1303.60337651945883
    7   -2692.3205554694      1.60e-05  
 Alpha HF Exchange    Energy = -10.84738727331574
 Beta HF Exchange     Energy = -10.65686879994119
 DFT Correlation      Energy =  -3.11808662429991
 DFT Exchange         Energy = -85.51334532048716
 One-Electron (alpha) Energy = -2034.36617408932534
 One-Electron (beta)  Energy = -2000.75927714814770
 Total Coulomb        Energy = 1303.61959914142426
    8   -2692.3205573196      6.54e-06  
 Alpha HF Exchange    Energy = -10.84743173296486
 Beta HF Exchange     Energy = -10.65687243979980
 DFT Correlation      Energy =  -3.11809451105357
 DFT Exchange         Energy = -85.51354008770218
 One-Electron (alpha) Energy = -2034.36822742706045
 One-Electron (beta)  Energy = -2000.75890745556239
 Total Coulomb        Energy = 1303.62153306760501
    9   -2692.3205577920      1.83e-06  
 Alpha HF Exchange    Energy = -10.84743162856835
 Beta HF Exchange     Energy = -10.65686584189295
 DFT Correlation      Energy =  -3.11808951598946
 DFT Exchange         Energy = -85.51350837190381
 One-Electron (alpha) Energy = -2034.36784939744871
 One-Electron (beta)  Energy = -2000.75805469717193
 Total Coulomb        Energy = 1303.62025872033018
   10   -2692.3205579381      1.09e-06  
 Alpha HF Exchange    Energy = -10.84743167062662
 Beta HF Exchange     Energy = -10.65686499375901
 DFT Correlation      Energy =  -3.11808886789957
 DFT Exchange         Energy = -85.51350477605222
 One-Electron (alpha) Energy = -2034.36787725271756
 One-Electron (beta)  Energy = -2000.75802234824141
 Total Coulomb        Energy = 1303.62024909878892
   11   -2692.3205580160      8.23e-07  Convergence criterion met
 ---------------------------------------
 SCF time:   CPU 26.55s  wall 2.00s 
<S^2> =          2.005162194
 Alpha HF Exchange    Energy = -10.84743167062662
 Beta HF Exchange     Energy = -10.65686499375901
 DFT Correlation      Energy =  -3.11808886789957
 DFT Exchange         Energy = -85.51350477605222
 One-Electron (alpha) Energy = -2034.36787725271756
 One-Electron (beta)  Energy = -2000.75802234824141
 Total Coulomb        Energy = 1303.62024909878892
 Nuclear repulsion Energy = 149.32098279450284
 SCF   energy in the final basis set =    -2692.3205580160
 Total energy in the final basis set =    -2692.3205580160
 
 --------------------------------------------------------------
 
                    Orbital Energies (a.u.)
 --------------------------------------------------------------
 
 Alpha MOs
 -- Occupied --
******* -62.557 -56.381 -56.374 -56.374 -10.185 -10.184 -10.176
 -8.744  -6.581  -6.558  -6.558  -2.672  -2.666  -2.666  -2.650
 -2.650  -0.796  -0.778  -0.673  -0.578  -0.463  -0.425  -0.394
 -0.377  -0.371  -0.347  -0.332  -0.322  -0.322  -0.199
 -- Virtual --
  0.104   0.138   0.144   0.158   0.168   0.179   0.181   0.220
  0.231   0.269   0.291   0.312   0.312   0.514   0.530   0.534
  0.536   0.545   0.545   0.547   0.581   0.582   0.590   0.598
  0.658   0.695   0.784   0.811   0.859   0.880   0.882   0.913
  0.938   0.960   1.004   1.216   1.308   1.421   1.478   1.538
  1.602   1.677   1.683   1.822   1.879   1.939   1.977   2.008
  2.053   2.071   2.116   2.124   2.233   2.258   2.294   2.369
  2.443   2.451   2.516   2.591   2.678   2.723   2.742   2.799
  2.843   2.884   2.916   3.184   3.266   3.376   3.387   3.469
  3.479   3.552   4.241   4.431   4.604   4.649   4.657   4.657
  4.682   4.682   6.205  90.122
 
 Beta MOs
 -- Occupied --
******* -62.555 -56.376 -56.372 -56.372 -10.185 -10.175 -10.171
 -8.740  -6.570  -6.557  -6.557  -2.664  -2.660  -2.660  -2.649
 -2.649  -0.768  -0.753  -0.654  -0.565  -0.458  -0.419  -0.389
 -0.365  -0.341  -0.330  -0.308  -0.308
 -- Virtual --
 -0.235  -0.040   0.108   0.146   0.150   0.159   0.175   0.182
  0.185   0.224   0.236   0.278   0.316   0.317   0.320   0.518
  0.537   0.546   0.565   0.589   0.589   0.591   0.591   0.596
  0.601   0.630   0.669   0.709   0.788   0.818   0.862   0.882
  0.885   0.920   0.943   0.972   1.007   1.227   1.318   1.451
  1.482   1.553   1.623   1.684   1.695   1.831   1.883   1.943
  2.002   2.047   2.053   2.072   2.116   2.131   2.235   2.269
  2.295   2.376   2.448   2.463   2.524   2.615   2.684   2.725
  2.746   2.802   2.846   2.886   2.919   3.186   3.269   3.378
  3.392   3.471   3.485   3.554   4.260   4.448   4.607   4.668
  4.671   4.671   4.684   4.685   6.221  90.129
 --------------------------------------------------------------
 
          Ground-State Mulliken Net Atomic Charges

     Atom                 Charge (a.u.)    Spin (a.u.)
  --------------------------------------------------------
      1 Br                   -0.000197       1.000008
      2 C                    -0.190323      -0.073398
      3 C                    -0.218467       1.079472
      4 C                    -0.307249       0.049968
      5 H                     0.101336       0.011508
      6 H                     0.101929       0.014200
      7 H                     0.100964      -0.047141
      8 H                     0.101202      -0.047229
      9 H                     0.101164       0.013743
     10 H                     0.104716      -0.000667
     11 H                     0.104926      -0.000463
  --------------------------------------------------------
  Sum of atomic charges =    -0.000000
  Sum of spin   charges =     2.000000

 -----------------------------------------------------------------
                    Cartesian Multipole Moments
 -----------------------------------------------------------------
    Charge (ESU x 10^10)
                -0.0000
    Dipole Moment (Debye)
         X      -0.2717      Y      -0.0192      Z       0.0013
       Tot       0.2724
    Quadrupole Moments (Debye-Ang)
        XX     -37.8270     XY       0.6205     YY     -39.2920
        XZ      -0.0738     YZ      -0.0416     ZZ     -38.7669
    Octopole Moments (Debye-Ang^2)
       XXX    -191.0860    XXY      27.5959    XYY     -72.8868
       YYY      45.3642    XXZ      -0.7459    XYZ      -0.1726
       YYZ       0.0876    XZZ     -74.2503    YZZ      15.1503
       ZZZ       0.1191
    Hexadecapole Moments (Debye-Ang^3)
      XXXX   -3120.9310   XXXY     323.6686   XXYY    -604.3496
      XYYY     246.1342   YYYY    -164.7499   XXXZ      -5.6599
      XXYZ      -0.8694   XYYZ       0.5723   YYYZ      -0.7536
      XXZZ    -586.6057   XYZZ      84.6071   YYZZ     -37.2021
      XZZZ       0.8423   YZZZ      -0.5208   ZZZZ     -64.3488
 -----------------------------------------------------------------
 Calculating analytic gradient of the SCF energy
 Gradient of SCF Energy
            1           2           3           4           5           6
    1   0.0001253   0.0000426   0.0083649  -0.0001009   0.0000148   0.0000005
    2   0.0000061  -0.0006363  -0.0054931  -0.0000185   0.0000153  -0.0000155
    3   0.0000052   0.0000158   0.0000313   0.0000093  -0.0000065  -0.0000302
            7           8           9          10          11
    1  -0.0042183  -0.0042759   0.0000098   0.0000184   0.0000188
    2   0.0030461   0.0030634   0.0000006   0.0000045   0.0000273
    3   0.0016149  -0.0016721   0.0000002   0.0000197   0.0000122
 Max gradient component =       8.365E-03
 RMS gradient           =       2.207E-03
 Gradient time:  CPU 8.52 s  wall 0.74 s
 Geometry Optimization Parameters
   NAtoms,    NIC,     NZ,  NCons,   NDum,   NFix, NCnnct, MaxDiis
       11      85       0       1       0       0       0       0

 Cartesian Hessian Update
 Hessian Updated using BFGS Update


** CONSTRAINED OPTIMIZATION IN DELOCALIZED INTERNAL COORDINATES **
   Searching for a Minimum

   Optimization Cycle:   3

                       Coordinates (Angstroms)
     ATOM                X               Y               Z
      1  Br        5.2160157478   -0.8552734526   -0.0050245201
      2  C        -1.1217985766    0.6045909208    0.0141706780
      3  C         0.1642483868   -0.1557391483    0.0123544686
      4  C        -2.3730205879   -0.3057719777   -0.0144845490
      5  H        -1.1788262431    1.2448387515    0.9040603057
      6  H        -1.1626611793    1.2743103196   -0.8553279148
      7  H         0.5517412504   -0.5303470644   -0.9229489901
      8  H         0.5665586808   -0.5152023010    0.9470409590
      9  H        -3.2904643558    0.2933198692   -0.0159118461
     10  H        -2.3790648785   -0.9370328848   -0.9089038693
     11  H        -2.3999332445   -0.9650950322    0.8590712780
   Point Group: c1    Number of degrees of freedom:    27


   Energy is  -2692.320558016

              Constraints and their Current Values
                                        Value     Constraint
   Distance(Angs):        1   3             5.100000     5.100000
 Hessian Updated using BFGS Update

 26 Hessian modes will be used to form the next step
  Hessian Eigenvalues:
     0.044995    0.045000    0.046337    0.047646    0.062058    0.067802
     0.073326    0.078133    0.082953    0.083037    0.085682    0.104835
     0.132733    0.159998    0.160000    0.160008    0.219546    0.278582
     0.330295    0.331249    0.338833    0.339411    0.341580    0.342727
     0.342740    0.430659

 Minimum Search - Taking Simple RFO Step
 Searching for Lamda that Minimizes Along All modes
 Value Taken    Lamda =  -0.00034340
 Step Taken.  Stepsize is  0.069476

                             Maximum     Tolerance    Cnvgd?
         Gradient           0.004428      0.000300      NO
         Displacement       0.064648      0.001200      NO
         Energy change     -0.000383      0.000001      NO


 New Cartesian Coordinates Obtained by Inverse Iteration

 Displacement from previous Coordinates is:  0.046644
 ----------------------------------------------------------------
             Standard Nuclear Orientation (Angstroms)
    I     Atom           X                Y                Z
 ----------------------------------------------------------------
    1      Br      5.2134963541    -0.8490470600    -0.0052013855
    2      C      -1.1242383614     0.6058195164     0.0141847752
    3      C       0.1607704639    -0.1564778786     0.0124833281
    4      C      -2.3760527692    -0.3035417520    -0.0145510271
    5      H      -1.1802920594     1.2461103787     0.9040171040
    6      H      -1.1639200833     1.2755046742    -0.8553053105
    7      H       0.5637877560    -0.5398198803    -0.9213433753
    8      H       0.5787011346    -0.5243952198     0.9458232037
    9      H      -3.2930434298     0.2962741985    -0.0160507342
   10      H      -2.3827091339    -0.9349046618    -0.9089217442
   11      H      -2.4037048718    -0.9629243153     0.8589611656
 ----------------------------------------------------------------
 Nuclear Repulsion Energy =   149.2749737143 hartrees
 There are       31 alpha and       29 beta electrons

                       Distance Matrix (Angstroms)
             Br(  1)   C (  2)   C (  3)   C (  4)   H (  5)   H (  6)
   C (  2)  6.502607
   C (  3)  5.100000  1.494104
   C (  4)  7.609134  1.547515  2.541226
   H (  5)  6.789469  1.097687  2.135541  2.162182
   H (  6)  6.775532  1.098210  2.135049  2.160907  1.759644
   H (  7)  4.749182  2.244356  1.086925  3.085573  3.092459  2.506938
   H (  8)  4.742486  2.246183  1.086808  3.114750  2.496096  3.085520
   H (  9)  8.583303  2.190992  3.483479  1.095743  2.492475  2.489258
   H ( 10)  7.650256  2.193104  2.815000  1.094789  3.080484  2.524724
   H ( 11)  7.666909  2.193545  2.818406  1.094794  2.525590  3.079990
             H (  7)   H (  8)   H (  9)   H ( 10)
   H (  8)  1.867290
   H (  9)  4.048920  4.072973
   H ( 10)  2.972893  3.518316  1.772492
   H ( 11)  3.486332  3.015725  1.772611  1.768230
 
 Applying Cartesian multipole field
    Component          Value
    ---------          -----
     (2,0,0)        1.00000E-12
     (0,2,0)        2.00000E-10
     (0,0,2)       -3.00000E-10
 Nucleus-field energy     =     0.0000000225 hartrees
 Requested basis set is 6-31G(d,p)
 There are 41 shells and 115 basis functions
 A cutoff of  1.0D-14 yielded    702 shell pairs
 There are      5091 function pairs
 Smallest overlap matrix eigenvalue = 7.27E-04
 Guess from superposition of atomic densities
 Warning:  Energy on first SCF cycle will be non-variational
 SAD guess density has 59.972873 electrons

 -----------------------------------------------------------------------
  General SCF calculation program by
  Eric Jon Sundstrom, Paul Horn, Yuezhi Mao, Dmitri Zuev, Alec White,
  David Stuck, Shaama M.S., Shane Yost, Joonho Lee, David Small,
  Daniel Levine, Susi Lehtola, Hugh Burton, Evgeny Epifanovsky
 -----------------------------------------------------------------------
 Exchange:     0.2000 Hartree-Fock + 0.0800 Slater + 0.7200 B88
 Correlation:  0.1900 VWN1RPA + 0.8100 LYP
 Using SG-1 standard quadrature grid
 using 12 threads for integral computing
 -------------------------------------------------------
 OpenMP Integral computing Module                
 Release: version 1.0, May 2013, Q-Chem Inc. Pittsburgh 
 -------------------------------------------------------
 -------------------------------------------------------
 OpenMP BLAS3 based DFT computing Module                
 Release: version 1.0, May 2013, Q-Chem Inc. Pittsburgh 
 -------------------------------------------------------
 A unrestricted SCF calculation will be
 performed using DIIS
 SCF converges when DIIS error is below 1.0e-06
 Alpha HF Exchange    Energy = -10.71066416691032
 Beta HF Exchange     Energy = -10.71066416691032
 DFT Correlation      Energy =  -3.10396539495528
 DFT Exchange         Energy = -84.97218989052490
 One-Electron (alpha) Energy = -2015.91630515335737
 One-Electron (beta)  Energy = -2015.91630515335737
 Total Coulomb        Energy = 1296.56363473411261
 ---------------------------------------
  Cycle       Energy         DIIS error
 ---------------------------------------
    1   -2695.4914854550      1.64e-01  
 Alpha HF Exchange    Energy = -10.89554569147747
 Beta HF Exchange     Energy = -10.70101338389867
 DFT Correlation      Energy =  -3.13630972770687
 DFT Exchange         Energy = -85.89474035669002
 One-Electron (alpha) Energy = -2038.01227648461554
 One-Electron (beta)  Energy = -2004.36175373188848
 Total Coulomb        Energy = 1311.50982732296325
    2   -2692.2168383164      9.50e-03  
 Alpha HF Exchange    Energy = -10.79847042883067
 Beta HF Exchange     Energy = -10.61417953730397
 DFT Correlation      Energy =  -3.10145382354627
 DFT Exchange         Energy = -85.14448072361502
 One-Electron (alpha) Energy = -2030.55165212818815
 One-Electron (beta)  Energy = -1997.44118984188117
 Total Coulomb        Energy = 1296.15844393837415
    3   -2692.2180088081      4.12e-03  
 Alpha HF Exchange    Energy = -10.87263063648091
 Beta HF Exchange     Energy = -10.68021973308764
 DFT Correlation      Energy =  -3.12768468815799
 DFT Exchange         Energy = -85.71180893522956
 One-Electron (alpha) Energy = -2036.17310752138474
 One-Electron (beta)  Energy = -2002.46387459464950
 Total Coulomb        Energy = 1307.47645727212580
    4   -2692.2778951000      2.63e-03  
 Alpha HF Exchange    Energy = -10.84892500053968
 Beta HF Exchange     Energy = -10.65788565863191
 DFT Correlation      Energy =  -3.11820921176895
 DFT Exchange         Energy = -85.52358747030247
 One-Electron (alpha) Energy = -2034.52165593982795
 One-Electron (beta)  Energy = -2000.89957205974019
 Total Coulomb        Energy = 1303.97456880569848
    5   -2692.3202927982      3.13e-04  
 Alpha HF Exchange    Energy = -10.84680536819291
 Beta HF Exchange     Energy = -10.65645887990293
 DFT Correlation      Energy =  -3.11795450378298
 DFT Exchange         Energy = -85.51005274151285
 One-Electron (alpha) Energy = -2034.32520813921406
 One-Electron (beta)  Energy = -2000.73000320809365
 Total Coulomb        Energy = 1303.59077000670527
    6   -2692.3207390971      5.48e-05  
 Alpha HF Exchange    Energy = -10.84671601670455
 Beta HF Exchange     Energy = -10.65620697769978
 DFT Correlation      Energy =  -3.11782567105026
 DFT Exchange         Energy = -85.50858695090105
 One-Electron (alpha) Energy = -2034.31205543919964
 One-Electron (beta)  Energy = -2000.71066214764301
 Total Coulomb        Energy = 1303.55632030204697
    7   -2692.3207591643      1.62e-05  
 Alpha HF Exchange    Energy = -10.84678674612577
 Beta HF Exchange     Energy = -10.65627082254835
 DFT Correlation      Energy =  -3.11780647139027
 DFT Exchange         Energy = -85.50905537814728
 One-Electron (alpha) Energy = -2034.32171573118740
 One-Electron (beta)  Energy = -2000.71643320716908
 Total Coulomb        Energy = 1303.57233357076757
    8   -2692.3207610489      6.62e-06  
 Alpha HF Exchange    Energy = -10.84683306599049
 Beta HF Exchange     Energy = -10.65627457833521
 DFT Correlation      Energy =  -3.11781447453135
 DFT Exchange         Energy = -85.50925788004585
 One-Electron (alpha) Energy = -2034.32389110326562
 One-Electron (beta)  Energy = -2000.71608856263833
 Total Coulomb        Energy = 1303.57442440585874
    9   -2692.3207615221      1.83e-06  
 Alpha HF Exchange    Energy = -10.84683293795196
 Beta HF Exchange     Energy = -10.65626757295050
 DFT Correlation      Energy =  -3.11780930760169
 DFT Exchange         Energy = -85.50922435945583
 One-Electron (alpha) Energy = -2034.32350203424153
 One-Electron (beta)  Energy = -2000.71519908606570
 Total Coulomb        Energy = 1303.57309991035322
   10   -2692.3207616510      1.04e-06  
 Alpha HF Exchange    Energy = -10.84683303223524
 Beta HF Exchange     Energy = -10.65626668888660
 DFT Correlation      Energy =  -3.11780866945912
 DFT Exchange         Energy = -85.50922085250728
 One-Electron (alpha) Energy = -2034.32353316710737
 One-Electron (beta)  Energy = -2000.71516706986972
 Total Coulomb        Energy = 1303.57309402650435
   11   -2692.3207617167      7.60e-07  Convergence criterion met
 ---------------------------------------
 SCF time:   CPU 26.57s  wall 2.00s 
<S^2> =          2.005219745
 Alpha HF Exchange    Energy = -10.84683303223524
 Beta HF Exchange     Energy = -10.65626668888660
 DFT Correlation      Energy =  -3.11780866945912
 DFT Exchange         Energy = -85.50922085250728
 One-Electron (alpha) Energy = -2034.32353316710737
 One-Electron (beta)  Energy = -2000.71516706986972
 Total Coulomb        Energy = 1303.57309402650435
 Nuclear repulsion Energy = 149.27497373688021
 SCF   energy in the final basis set =    -2692.3207617167
 Total energy in the final basis set =    -2692.3207617167
 
 --------------------------------------------------------------
 
                    Orbital Energies (a.u.)
 --------------------------------------------------------------
 
 Alpha MOs
 -- Occupied --
******* -62.557 -56.381 -56.374 -56.374 -10.186 -10.185 -10.176
 -8.744  -6.581  -6.558  -6.558  -2.672  -2.666  -2.666  -2.650
 -2.650  -0.796  -0.778  -0.672  -0.578  -0.461  -0.426  -0.392
 -0.377  -0.371  -0.347  -0.332  -0.322  -0.322  -0.199
 -- Virtual --
  0.104   0.136   0.143   0.158   0.168   0.179   0.180   0.220
  0.231   0.270   0.290   0.312   0.312   0.514   0.532   0.534
  0.535   0.545   0.545   0.548   0.581   0.582   0.591   0.597
  0.657   0.695   0.785   0.811   0.858   0.878   0.882   0.910
  0.937   0.960   1.001   1.215   1.308   1.425   1.478   1.532
  1.601   1.677   1.682   1.821   1.874   1.945   1.973   2.003
  2.053   2.071   2.119   2.123   2.228   2.258   2.291   2.369
  2.437   2.451   2.517   2.577   2.677   2.713   2.742   2.800
  2.848   2.882   2.917   3.184   3.258   3.362   3.378   3.465
  3.473   3.552   4.239   4.430   4.605   4.649   4.657   4.657
  4.682   4.682   6.205  90.122
 
 Beta MOs
 -- Occupied --
******* -62.555 -56.376 -56.373 -56.373 -10.186 -10.175 -10.172
 -8.740  -6.570  -6.557  -6.557  -2.664  -2.660  -2.660  -2.649
 -2.649  -0.768  -0.753  -0.653  -0.564  -0.457  -0.420  -0.387
 -0.365  -0.342  -0.329  -0.308  -0.308
 -- Virtual --
 -0.235  -0.040   0.108   0.145   0.149   0.159   0.176   0.181
  0.184   0.224   0.236   0.279   0.316   0.317   0.319   0.518
  0.536   0.548   0.566   0.589   0.589   0.591   0.591   0.596
  0.600   0.630   0.669   0.709   0.789   0.819   0.861   0.880
  0.885   0.918   0.942   0.971   1.004   1.225   1.317   1.454
  1.482   1.548   1.622   1.683   1.695   1.831   1.878   1.949
  2.000   2.041   2.053   2.072   2.120   2.131   2.230   2.269
  2.292   2.375   2.442   2.462   2.525   2.601   2.682   2.715
  2.746   2.802   2.850   2.884   2.920   3.186   3.262   3.367
  3.380   3.468   3.479   3.554   4.258   4.446   4.607   4.668
  4.671   4.671   4.684   4.685   6.221  90.129
 --------------------------------------------------------------
 
          Ground-State Mulliken Net Atomic Charges

     Atom                 Charge (a.u.)    Spin (a.u.)
  --------------------------------------------------------
      1 Br                   -0.000190       1.000011
      2 C                    -0.189375      -0.073556
      3 C                    -0.219395       1.080334
      4 C                    -0.307434       0.049825
      5 H                     0.102068       0.011492
      6 H                     0.102640       0.014190
      7 H                     0.100085      -0.047419
      8 H                     0.100311      -0.047514
      9 H                     0.101058       0.013779
     10 H                     0.105016      -0.000674
     11 H                     0.105217      -0.000468
  --------------------------------------------------------
  Sum of atomic charges =     0.000000
  Sum of spin   charges =     2.000000

 -----------------------------------------------------------------
                    Cartesian Multipole Moments
 -----------------------------------------------------------------
    Charge (ESU x 10^10)
                 0.0000
    Dipole Moment (Debye)
         X      -0.2737      Y      -0.0134      Z       0.0012
       Tot       0.2740
    Quadrupole Moments (Debye-Ang)
        XX     -37.8639     XY       0.6309     YY     -39.2056
        XZ      -0.0738     YZ      -0.0442     ZZ     -38.8106
    Octopole Moments (Debye-Ang^2)
       XXX    -192.0019    XXY      27.9137    XYY     -72.4876
       YYY      44.8565    XXZ      -0.7386    XYZ      -0.1894
       YYZ       0.0939    XZZ     -74.1809    YZZ      15.0430
       ZZZ       0.1260
    Hexadecapole Moments (Debye-Ang^3)
      XXXX   -3131.0845   XXXY     326.0273   XXYY    -602.3532
      XYYY     243.5351   YYYY    -163.1776   XXXZ      -5.5787
      XXYZ      -0.9611   XYYZ       0.6081   YYYZ      -0.7653
      XXZZ    -586.2599   XYZZ      84.0120   YYZZ     -36.9802
      XZZZ       0.8881   YZZZ      -0.5293   ZZZZ     -64.4717
 -----------------------------------------------------------------
 Calculating analytic gradient of the SCF energy
 Gradient of SCF Energy
            1           2           3           4           5           6
    1   0.0001227  -0.0004390   0.0022560   0.0000389  -0.0000804  -0.0000897
    2   0.0000118   0.0001451  -0.0007694   0.0000110   0.0000542   0.0000193
    3   0.0000056   0.0000273  -0.0000590   0.0000135  -0.0000297  -0.0000095
            7           8           9          10          11
    1  -0.0009047  -0.0008774   0.0000067  -0.0000178  -0.0000154
    2   0.0002845   0.0003187  -0.0000122  -0.0000432  -0.0000198
    3  -0.0016121   0.0016367  -0.0000007   0.0000052   0.0000228
 Max gradient component =       2.256E-03
 RMS gradient           =       6.273E-04
 Gradient time:  CPU 8.63 s  wall 0.76 s
 Geometry Optimization Parameters
   NAtoms,    NIC,     NZ,  NCons,   NDum,   NFix, NCnnct, MaxDiis
       11      85       0       1       0       0       0       0

 Cartesian Hessian Update
 Hessian Updated using BFGS Update


** CONSTRAINED OPTIMIZATION IN DELOCALIZED INTERNAL COORDINATES **
   Searching for a Minimum

   Optimization Cycle:   4

                       Coordinates (Angstroms)
     ATOM                X               Y               Z
      1  Br        5.2134963541   -0.8490470600   -0.0052013855
      2  C        -1.1242383614    0.6058195164    0.0141847752
      3  C         0.1607704639   -0.1564778786    0.0124833281
      4  C        -2.3760527692   -0.3035417520   -0.0145510271
      5  H        -1.1802920594    1.2461103787    0.9040171040
      6  H        -1.1639200833    1.2755046742   -0.8553053105
      7  H         0.5637877560   -0.5398198803   -0.9213433753
      8  H         0.5787011346   -0.5243952198    0.9458232037
      9  H        -3.2930434298    0.2962741985   -0.0160507342
     10  H        -2.3827091339   -0.9349046618   -0.9089217442
     11  H        -2.4037048718   -0.9629243153    0.8589611656
   Point Group: c1    Number of degrees of freedom:    27


   Energy is  -2692.320761717

              Constraints and their Current Values
                                        Value     Constraint
   Distance(Angs):        1   3             5.100000     5.100000
 Hessian Updated using BFGS Update

 26 Hessian modes will be used to form the next step
  Hessian Eigenvalues:
     0.040700    0.045000    0.045027    0.046657    0.047649    0.067802
     0.073326    0.078133    0.082953    0.083037    0.085713    0.104840
     0.132733    0.160000    0.160007    0.160019    0.219674    0.278583
     0.330291    0.330824    0.338851    0.339427    0.341580    0.342726
     0.342740    0.516685

 Minimum Search - Taking Simple RFO Step
 Searching for Lamda that Minimizes Along All modes
 Value Taken    Lamda =  -0.00005163
 Step Taken.  Stepsize is  0.033580

                             Maximum     Tolerance    Cnvgd?
         Gradient           0.001234      0.000300      NO
         Displacement       0.030834      0.001200      NO
         Energy change     -0.000204      0.000001      NO


 New Cartesian Coordinates Obtained by Inverse Iteration

 Displacement from previous Coordinates is:  0.023420
 ----------------------------------------------------------------
             Standard Nuclear Orientation (Angstroms)
    I     Atom           X                Y                Z
 ----------------------------------------------------------------
    1      Br      5.2121525953    -0.8450961035    -0.0053278594
    2      C      -1.1248503510     0.6053821790     0.0141896667
    3      C       0.1587695880    -0.1573441180     0.0125924356
    4      C      -2.3777454028    -0.3024002912    -0.0146024115
    5      H      -1.1796905243     1.2456313108     0.9040874355
    6      H      -1.1632059110     1.2749903221    -0.8553816783
    7      H       0.5687584639    -0.5436693823    -0.9174487956
    8      H       0.5836880507    -0.5280133151     0.9421924303
    9      H      -3.2940834193     0.2984471211    -0.0161318525
   10      H      -2.3849517816    -0.9336567485    -0.9090004108
   11      H      -2.4060463078    -0.9616729744     0.8589270399
 ----------------------------------------------------------------
 Nuclear Repulsion Energy =   149.2931935327 hartrees
 There are       31 alpha and       29 beta electrons

                       Distance Matrix (Angstroms)
             Br(  1)   C (  2)   C (  3)   C (  4)   H (  5)   H (  6)
   C (  2)  6.500913
   C (  3)  5.100000  1.493129
   C (  4)  7.609281  1.547464  2.540805
   H (  5)  6.786298  1.097654  2.134146  2.162343
   H (  6)  6.772190  1.098181  2.133678  2.161059  1.759791
   H (  7)  4.741722  2.248684  1.087343  3.091153  3.094619  2.512186
   H (  8)  4.735084  2.250528  1.087248  3.120328  2.501354  3.087674
   H (  9)  8.582765  2.191050  3.482925  1.095762  2.492914  2.489702
   H ( 10)  7.651174  2.192892  2.814696  1.094753  3.080461  2.524611
   H ( 11)  7.667952  2.193332  2.818068  1.094758  2.525506  3.079963
             H (  7)   H (  8)   H (  9)   H ( 10)
   H (  8)  1.859767
   H (  9)  4.055007  4.079036
   H ( 10)  2.979357  3.521972  1.772516
   H ( 11)  3.489943  3.022169  1.772637  1.768275
 
 Applying Cartesian multipole field
    Component          Value
    ---------          -----
     (2,0,0)        1.00000E-12
     (0,2,0)        2.00000E-10
     (0,0,2)       -3.00000E-10
 Nucleus-field energy     =     0.0000000224 hartrees
 Requested basis set is 6-31G(d,p)
 There are 41 shells and 115 basis functions
 A cutoff of  1.0D-14 yielded    702 shell pairs
 There are      5091 function pairs
 Smallest overlap matrix eigenvalue = 7.27E-04
 Guess from superposition of atomic densities
 Warning:  Energy on first SCF cycle will be non-variational
 SAD guess density has 59.972873 electrons

 -----------------------------------------------------------------------
  General SCF calculation program by
  Eric Jon Sundstrom, Paul Horn, Yuezhi Mao, Dmitri Zuev, Alec White,
  David Stuck, Shaama M.S., Shane Yost, Joonho Lee, David Small,
  Daniel Levine, Susi Lehtola, Hugh Burton, Evgeny Epifanovsky
 -----------------------------------------------------------------------
 Exchange:     0.2000 Hartree-Fock + 0.0800 Slater + 0.7200 B88
 Correlation:  0.1900 VWN1RPA + 0.8100 LYP
 Using SG-1 standard quadrature grid
 using 12 threads for integral computing
 -------------------------------------------------------
 OpenMP Integral computing Module                
 Release: version 1.0, May 2013, Q-Chem Inc. Pittsburgh 
 -------------------------------------------------------
 -------------------------------------------------------
 OpenMP BLAS3 based DFT computing Module                
 Release: version 1.0, May 2013, Q-Chem Inc. Pittsburgh 
 -------------------------------------------------------
 A unrestricted SCF calculation will be
 performed using DIIS
 SCF converges when DIIS error is below 1.0e-06
 Alpha HF Exchange    Energy = -10.71071019285066
 Beta HF Exchange     Energy = -10.71071019285066
 DFT Correlation      Energy =  -3.10396815855994
 DFT Exchange         Energy = -84.97229125330810
 One-Electron (alpha) Energy = -2015.93444037720951
 One-Electron (beta)  Energy = -2015.93444037720951
 Total Coulomb        Energy = 1296.58122356147010
 ---------------------------------------
  Cycle       Energy         DIIS error
 ---------------------------------------
    1   -2695.4921434354      1.64e-01  
 Alpha HF Exchange    Energy = -10.89554049770343
 Beta HF Exchange     Energy = -10.70100515889956
 DFT Correlation      Energy =  -3.13631402172150
 DFT Exchange         Energy = -85.89470265505679
 One-Electron (alpha) Energy = -2038.02969948872715
 One-Electron (beta)  Energy = -2004.37830842646326
 Total Coulomb        Energy = 1311.52545390041928
    2   -2692.2169227931      9.50e-03  
 Alpha HF Exchange    Energy = -10.79847520827796
 Beta HF Exchange     Energy = -10.61419900189153
 DFT Correlation      Energy =  -3.10146031768717
 DFT Exchange         Energy = -85.14457960455528
 One-Electron (alpha) Energy = -2030.56978807033556
 One-Electron (beta)  Energy = -1997.45899261594445
 Total Coulomb        Energy = 1296.17623453300007
    3   -2692.2180667306      4.12e-03  
 Alpha HF Exchange    Energy = -10.87264472340493
 Beta HF Exchange     Energy = -10.68022212391744
 DFT Correlation      Energy =  -3.12769942332572
 DFT Exchange         Energy = -85.71189662037280
 One-Electron (alpha) Energy = -2036.19181745492506
 One-Electron (beta)  Energy = -2002.48164756852248
 Total Coulomb        Energy = 1307.49482739023256
    4   -2692.2779069691      2.63e-03  
 Alpha HF Exchange    Energy = -10.84892043938290
 Beta HF Exchange     Energy = -10.65788842163694
 DFT Correlation      Energy =  -3.11821444135028
 DFT Exchange         Energy = -85.52359135279698
 One-Electron (alpha) Energy = -2034.53934232344886
 One-Electron (beta)  Energy = -2000.91677023459738
 Total Coulomb        Energy = 1303.99120485647541
    5   -2692.3203288016      3.12e-04  
 Alpha HF Exchange    Energy = -10.84680643714404
 Beta HF Exchange     Energy = -10.65646138490799
 DFT Correlation      Energy =  -3.11796240928275
 DFT Exchange         Energy = -85.51008157674742
 One-Electron (alpha) Energy = -2034.34303258685645
 One-Electron (beta)  Energy = -2000.74724850470784
 Total Coulomb        Energy = 1303.60762818562171
    6   -2692.3207711589      5.47e-05  
 Alpha HF Exchange    Energy = -10.84671773996924
 Beta HF Exchange     Energy = -10.65621026150135
 DFT Correlation      Energy =  -3.11783333536239
 DFT Exchange         Energy = -85.50862045650845
 One-Electron (alpha) Energy = -2034.33000647905556
 One-Electron (beta)  Energy = -2000.72802316781372
 Total Coulomb        Energy = 1303.57342674688016
    7   -2692.3207911382      1.61e-05  
 Alpha HF Exchange    Energy = -10.84678841350443
 Beta HF Exchange     Energy = -10.65627401918265
 DFT Correlation      Energy =  -3.11781422360067
[...]
     0.002476    0.036034    0.045000    0.045146    0.047648    0.067801
     0.073325    0.078245    0.082920    0.083037    0.083207    0.104942
     0.132733    0.160000    0.160006    0.160085    0.219625    0.278660
     0.330294    0.330613    0.338864    0.339447    0.341597    0.342727
     0.342740    0.533862

 Minimum Search - Taking Simple RFO Step
 Searching for Lamda that Minimizes Along All modes
 Value Taken    Lamda =  -0.00000110
 Step Taken.  Stepsize is  0.012581

                             Maximum     Tolerance    Cnvgd?
         Gradient           0.000348      0.000300      NO
         Displacement       0.008476      0.001200      NO
         Energy change     -0.000002      0.000001      NO


 New Cartesian Coordinates Obtained by Inverse Iteration

 Displacement from previous Coordinates is:  0.005830
 ----------------------------------------------------------------
             Standard Nuclear Orientation (Angstroms)
    I     Atom           X                Y                Z
 ----------------------------------------------------------------
    1      Br      5.2115365007    -0.8344642282    -0.0081750102
    2      C      -1.1236265049     0.5994158874     0.0147678933
    3      C       0.1551561046    -0.1692490774     0.0144046878
    4      C      -2.3827730377    -0.2998088452    -0.0155474335
    5      H      -1.1755263922     1.2401195937     0.9045454557
    6      H      -1.1570989622     1.2694657545    -0.8547730173
    7      H       0.5762636913    -0.5457471384    -0.9125065071
    8      H       0.5930378671    -0.5248709820     0.9416066956
    9      H      -3.2947925737     0.3075006503    -0.0177293157
   10      H      -2.3932250477    -0.9306117785    -0.9101872738
   11      H      -2.4161566453    -0.9591518363     0.8576898251
 ----------------------------------------------------------------
 Nuclear Repulsion Energy =   149.3266802219 hartrees
 There are       31 alpha and       29 beta electrons

                       Distance Matrix (Angstroms)
             Br(  1)   C (  2)   C (  3)   C (  4)   H (  5)   H (  6)
   C (  2)  6.495447
   C (  3)  5.100000  1.492022
   C (  4)  7.613110  1.547570  2.541462
   H (  5)  6.777280  1.097679  2.132929  2.162266
   H (  6)  6.760382  1.098266  2.132460  2.160833  1.759660
   H (  7)  4.731483  2.249636  1.085471  3.101761  3.091887  2.510553
   H (  8)  4.725300  2.251663  1.085316  3.134047  2.498877  3.083764
   H (  9)  8.582646  2.190943  3.482882  1.095723  2.492320  2.489127
   H ( 10)  7.658673  2.192808  2.815811  1.094716  3.080279  2.524167
   H ( 11)  7.677693  2.193236  2.818994  1.094710  2.525501  3.079690
             H (  7)   H (  8)   H (  9)   H ( 10)
   H (  8)  1.854307
   H (  9)  4.063709  4.090036
   H ( 10)  2.994326  3.537164  1.772633
   H ( 11)  3.501297  3.041528  1.772785  1.768256
 
 Applying Cartesian multipole field
    Component          Value
    ---------          -----
     (2,0,0)        1.00000E-12
     (0,2,0)        2.00000E-10
     (0,0,2)       -3.00000E-10
 Nucleus-field energy     =     0.0000000219 hartrees
 Requested basis set is 6-31G(d,p)
 There are 41 shells and 115 basis functions
 A cutoff of  1.0D-14 yielded    701 shell pairs
 There are      5067 function pairs
 Smallest overlap matrix eigenvalue = 7.27E-04
 Guess from superposition of atomic densities
 Warning:  Energy on first SCF cycle will be non-variational
 SAD guess density has 59.972873 electrons

 -----------------------------------------------------------------------
  General SCF calculation program by
  Eric Jon Sundstrom, Paul Horn, Yuezhi Mao, Dmitri Zuev, Alec White,
  David Stuck, Shaama M.S., Shane Yost, Joonho Lee, David Small,
  Daniel Levine, Susi Lehtola, Hugh Burton, Evgeny Epifanovsky
 -----------------------------------------------------------------------
 Exchange:     0.2000 Hartree-Fock + 0.0800 Slater + 0.7200 B88
 Correlation:  0.1900 VWN1RPA + 0.8100 LYP
 Using SG-1 standard quadrature grid
 using 12 threads for integral computing
 -------------------------------------------------------
 OpenMP Integral computing Module                
 Release: version 1.0, May 2013, Q-Chem Inc. Pittsburgh 
 -------------------------------------------------------
 -------------------------------------------------------
 OpenMP BLAS3 based DFT computing Module                
 Release: version 1.0, May 2013, Q-Chem Inc. Pittsburgh 
 -------------------------------------------------------
 A unrestricted SCF calculation will be
 performed using DIIS
 SCF converges when DIIS error is below 1.0e-06
 Alpha HF Exchange    Energy = -10.71100262179853
 Beta HF Exchange     Energy = -10.71100262179853
 DFT Correlation      Energy =  -3.10401891257990
 DFT Exchange         Energy = -84.97296266373831
 One-Electron (alpha) Energy = -2015.96545019791415
 One-Electron (beta)  Energy = -2015.96545019791415
 Total Coulomb        Energy = 1296.60877245166421
 ---------------------------------------
  Cycle       Energy         DIIS error
 ---------------------------------------
    1   -2695.4944345203      1.64e-01  
 Alpha HF Exchange    Energy = -10.89576079657952
 Beta HF Exchange     Energy = -10.70122119541480
 DFT Correlation      Energy =  -3.13642398576676
 DFT Exchange         Energy = -85.89632531654404
 One-Electron (alpha) Energy = -2038.06410041446998
 One-Electron (beta)  Energy = -2004.41078214214053
 Total Coulomb        Energy = 1311.56113138694968
    2   -2692.2168022202      9.50e-03  
 Alpha HF Exchange    Energy = -10.79858413430809
 Beta HF Exchange     Energy = -10.61438740167252
 DFT Correlation      Energy =  -3.10154842756607
 DFT Exchange         Energy = -85.14564973764675
 One-Electron (alpha) Energy = -2030.60099499275134
 One-Electron (beta)  Energy = -1997.49127766596416
 Total Coulomb        Energy = 1296.20774377811722
    3   -2692.2180183380      4.12e-03  
 Alpha HF Exchange    Energy = -10.87279431576995
 Beta HF Exchange     Energy = -10.68039732007781
 DFT Correlation      Energy =  -3.12780053426369
 DFT Exchange         Energy = -85.71307652792530
 One-Electron (alpha) Energy = -2036.22349939590208
 One-Electron (beta)  Energy = -2002.51280985102176
 Total Coulomb        Energy = 1307.52572491995625
    4   -2692.2779727812      2.63e-03  
 Alpha HF Exchange    Energy = -10.84906087529331
 Beta HF Exchange     Energy = -10.65807846035123
 DFT Correlation      Energy =  -3.11831405454718
 DFT Exchange         Energy = -85.52479561883031
 One-Electron (alpha) Energy = -2034.57106665497736
 One-Electron (beta)  Energy = -2000.94863277320223
 Total Coulomb        Energy = 1304.02292494174412
    5   -2692.3203432517      3.11e-04  
 Alpha HF Exchange    Energy = -10.84695233346467
 Beta HF Exchange     Energy = -10.65665473009593
 DFT Correlation      Energy =  -3.11806488319023
 DFT Exchange         Energy = -85.51132345843853
 One-Electron (alpha) Energy = -2034.37526280757834
 One-Electron (beta)  Energy = -2000.77959625303174
 Total Coulomb        Energy = 1303.64038950236818
    6   -2692.3207847197      5.46e-05  
 Alpha HF Exchange    Energy = -10.84686268863544
 Beta HF Exchange     Energy = -10.65640355574940
 DFT Correlation      Energy =  -3.11793548846160
 DFT Exchange         Energy = -85.50985743377458
 One-Electron (alpha) Energy = -2034.36223354101617
 One-Electron (beta)  Energy = -2000.76041679065474
 Total Coulomb        Energy = 1303.60622468585348
    7   -2692.3208045687      1.60e-05  
 Alpha HF Exchange    Energy = -10.84693361875587
 Beta HF Exchange     Energy = -10.65646751447983
 DFT Correlation      Energy =  -3.11791675758890
 DFT Exchange         Energy = -85.51032801745916
 One-Electron (alpha) Energy = -2034.37187414722257
 One-Electron (beta)  Energy = -2000.76617972028112
 Total Coulomb        Energy = 1303.62221312603219
    8   -2692.3208064060      6.62e-06  
 Alpha HF Exchange    Energy = -10.84697951854701
 Beta HF Exchange     Energy = -10.65647091797415
 DFT Correlation      Energy =  -3.11792470213199
 DFT Exchange         Energy = -85.51052746632286
 One-Electron (alpha) Energy = -2034.37400446915058
 One-Electron (beta)  Energy = -2000.76581746183683
 Total Coulomb        Energy = 1303.62423744277430
    9   -2692.3208068494      1.78e-06  
 Alpha HF Exchange    Energy = -10.84697939794931
 Beta HF Exchange     Energy = -10.65646394167320
 DFT Correlation      Energy =  -3.11791957669009
 DFT Exchange         Energy = -85.51049408948060
 One-Electron (alpha) Energy = -2034.37361550834453
 One-Electron (beta)  Energy = -2000.76494126889020
 Total Coulomb        Energy = 1303.62292659430909
   10   -2692.3208069449      9.54e-07  Convergence criterion met
 ---------------------------------------
 SCF time:   CPU 24.75s  wall 3.00s 
<S^2> =          2.005238705
 Alpha HF Exchange    Energy = -10.84697939794931
 Beta HF Exchange     Energy = -10.65646394167320
 DFT Correlation      Energy =  -3.11791957669009
 DFT Exchange         Energy = -85.51049408948060
 One-Electron (alpha) Energy = -2034.37361550834453
 One-Electron (beta)  Energy = -2000.76494126889020
 Total Coulomb        Energy = 1303.62292659430909
 Nuclear repulsion Energy = 149.32668024377523
 SCF   energy in the final basis set =    -2692.3208069449
 Total energy in the final basis set =    -2692.3208069449
 
 --------------------------------------------------------------
 
                    Orbital Energies (a.u.)
 --------------------------------------------------------------
 
 Alpha MOs
 -- Occupied --
******* -62.557 -56.381 -56.374 -56.374 -10.185 -10.185 -10.176
 -8.744  -6.581  -6.559  -6.559  -2.672  -2.666  -2.666  -2.650
 -2.650  -0.797  -0.778  -0.672  -0.578  -0.461  -0.426  -0.392
 -0.377  -0.371  -0.348  -0.331  -0.323  -0.322  -0.198
 -- Virtual --
  0.104   0.137   0.143   0.158   0.168   0.179   0.179   0.221
  0.231   0.272   0.290   0.312   0.312   0.514   0.533   0.534
  0.534   0.545   0.545   0.548   0.581   0.582   0.592   0.597
  0.657   0.694   0.788   0.812   0.858   0.877   0.882   0.910
  0.937   0.960   1.000   1.212   1.308   1.433   1.478   1.522
  1.601   1.676   1.682   1.822   1.873   1.954   1.979   1.997
  2.053   2.071   2.122   2.125   2.225   2.261   2.291   2.369
  2.441   2.449   2.523   2.574   2.675   2.710   2.742   2.801
  2.861   2.883   2.921   3.185   3.257   3.358   3.380   3.465
  3.478   3.557   4.239   4.430   4.606   4.648   4.657   4.657
  4.682   4.682   6.205  90.122
 
 Beta MOs
 -- Occupied --
******* -62.555 -56.376 -56.373 -56.373 -10.186 -10.175 -10.172
 -8.740  -6.570  -6.557  -6.557  -2.664  -2.660  -2.660  -2.649
 -2.649  -0.768  -0.753  -0.653  -0.565  -0.456  -0.421  -0.387
 -0.365  -0.343  -0.329  -0.308  -0.308
 -- Virtual --
 -0.235  -0.039   0.108   0.145   0.149   0.159   0.176   0.180
  0.184   0.225   0.236   0.281   0.316   0.317   0.319   0.518
  0.536   0.549   0.567   0.589   0.589   0.591   0.591   0.596
  0.599   0.631   0.669   0.708   0.793   0.819   0.861   0.879
  0.885   0.918   0.943   0.972   1.003   1.223   1.317   1.464
  1.483   1.536   1.623   1.683   1.695   1.831   1.877   1.957
  2.001   2.040   2.053   2.072   2.124   2.129   2.227   2.273
  2.292   2.375   2.446   2.460   2.532   2.599   2.681   2.711
  2.746   2.804   2.863   2.884   2.925   3.186   3.261   3.363
  3.381   3.467   3.484   3.559   4.258   4.446   4.608   4.668
  4.671   4.671   4.684   4.684   6.221  90.129
 --------------------------------------------------------------
 
          Ground-State Mulliken Net Atomic Charges

     Atom                 Charge (a.u.)    Spin (a.u.)
  --------------------------------------------------------
      1 Br                   -0.000178       1.000016
      2 C                    -0.188915      -0.074141
      3 C                    -0.220632       1.080930
      4 C                    -0.307288       0.049909
      5 H                     0.102256       0.011664
      6 H                     0.102882       0.014750
      7 H                     0.100122      -0.047766
      8 H                     0.100361      -0.047882
      9 H                     0.100816       0.013573
     10 H                     0.105177      -0.000645
     11 H                     0.105399      -0.000409
  --------------------------------------------------------
  Sum of atomic charges =    -0.000000
  Sum of spin   charges =     2.000000

 -----------------------------------------------------------------
                    Cartesian Multipole Moments
 -----------------------------------------------------------------
    Charge (ESU x 10^10)
                -0.0000
    Dipole Moment (Debye)
         X      -0.2505      Y       0.0067      Z       0.0010
       Tot       0.2506
    Quadrupole Moments (Debye-Ang)
        XX     -37.9140     XY       0.6630     YY     -39.1088
        XZ      -0.0890     YZ      -0.0566     ZZ     -38.8316
    Octopole Moments (Debye-Ang^2)
       XXX    -193.1487    XXY      28.2095    XYY     -71.9127
       YYY      44.0938    XXZ      -0.8668    XYZ      -0.2618
       YYZ       0.1586    XZZ     -74.0793    YZZ      14.8662
       ZZZ       0.2709
    Hexadecapole Moments (Debye-Ang^3)
      XXXX   -3146.4028   XXXY     326.5916   XXYY    -599.4168
      XYYY     238.1526   YYYY    -159.5669   XXXZ      -6.2236
      XXYZ      -1.3507   XYYZ       0.9776   YYYZ      -0.9465
      XXZZ    -586.0287   XYZZ      82.5887   YYZZ     -36.4213
      XZZZ       1.6890   YZZZ      -0.6890   ZZZZ     -64.4225
 -----------------------------------------------------------------
 Calculating analytic gradient of the SCF energy
 Gradient of SCF Energy
            1           2           3           4           5           6
    1   0.0001169   0.0000869  -0.0000555  -0.0000249  -0.0000030  -0.0000184
    2   0.0000217  -0.0000287  -0.0000698  -0.0000089   0.0000343  -0.0000104
    3   0.0000067   0.0000150  -0.0000231   0.0000169  -0.0000274  -0.0000176
            7           8           9          10          11
    1  -0.0000494  -0.0000668   0.0000057   0.0000026   0.0000061
    2   0.0000418   0.0000354  -0.0000052  -0.0000161   0.0000059
    3   0.0001134  -0.0001124   0.0000005   0.0000143   0.0000137
 Max gradient component =       1.169E-04
 RMS gradient           =       4.642E-05
 Gradient time:  CPU 8.62 s  wall 0.77 s
 Geometry Optimization Parameters
   NAtoms,    NIC,     NZ,  NCons,   NDum,   NFix, NCnnct, MaxDiis
       11      85       0       1       0       0       0       0

 Cartesian Hessian Update
 Hessian Updated using BFGS Update


** CONSTRAINED OPTIMIZATION IN DELOCALIZED INTERNAL COORDINATES **
   Searching for a Minimum

   Optimization Cycle:  11

                       Coordinates (Angstroms)
     ATOM                X               Y               Z
      1  Br        5.2115365007   -0.8344642282   -0.0081750102
      2  C        -1.1236265049    0.5994158874    0.0147678933
      3  C         0.1551561046   -0.1692490774    0.0144046878
      4  C        -2.3827730377   -0.2998088452   -0.0155474335
      5  H        -1.1755263922    1.2401195937    0.9045454557
      6  H        -1.1570989622    1.2694657545   -0.8547730173
      7  H         0.5762636913   -0.5457471384   -0.9125065071
      8  H         0.5930378671   -0.5248709820    0.9416066956
      9  H        -3.2947925737    0.3075006503   -0.0177293157
     10  H        -2.3932250477   -0.9306117785   -0.9101872738
     11  H        -2.4161566453   -0.9591518363    0.8576898251
   Point Group: c1    Number of degrees of freedom:    27


   Energy is  -2692.320806945

              Constraints and their Current Values
                                        Value     Constraint
   Distance(Angs):        1   3             5.100000     5.100000
 Hessian Updated using BFGS Update

 26 Hessian modes will be used to form the next step
  Hessian Eigenvalues:
     0.002679    0.035795    0.044045    0.045001    0.047648    0.067796
     0.073310    0.074686    0.079887    0.082949    0.083037    0.104552
     0.132732    0.159689    0.160000    0.160011    0.217238    0.278119
     0.328764    0.330298    0.338725    0.339274    0.341555    0.342726
     0.342740    0.427743

 Minimum Search - Taking Simple RFO Step
 Searching for Lamda that Minimizes Along All modes
 Value Taken    Lamda =   0.00000000
 Step Taken.  Stepsize is  0.002212

                             Maximum     Tolerance    Cnvgd?
         Gradient           0.000114      0.000300     YES
         Displacement       0.000939      0.001200     YES
         Energy change     -0.000001      0.000001     YES


                       Distance Matrix (Angstroms)
             Br(  1)   C (  2)   C (  3)   C (  4)   H (  5)   H (  6)
   C (  2)  6.495447
   C (  3)  5.100000  1.492022
   C (  4)  7.613110  1.547570  2.541462
   H (  5)  6.777280  1.097679  2.132929  2.162266
   H (  6)  6.760382  1.098266  2.132460  2.160833  1.759660
   H (  7)  4.731483  2.249636  1.085471  3.101761  3.091887  2.510553
   H (  8)  4.725300  2.251663  1.085316  3.134047  2.498877  3.083764
   H (  9)  8.582646  2.190943  3.482882  1.095723  2.492320  2.489127
   H ( 10)  7.658673  2.192808  2.815811  1.094716  3.080279  2.524167
   H ( 11)  7.677693  2.193236  2.818994  1.094710  2.525501  3.079690
             H (  7)   H (  8)   H (  9)   H ( 10)
   H (  8)  1.854307
   H (  9)  4.063709  4.090036
   H ( 10)  2.994326  3.537164  1.772633
   H ( 11)  3.501297  3.041528  1.772785  1.768256
 
 Final energy is   -2692.32080694494     


 ******************************
 **  OPTIMIZATION CONVERGED  **
 ******************************

                       Coordinates (Angstroms)
     ATOM                X               Y               Z
      1  Br        5.2115365007   -0.8344642282   -0.0081750102
      2  C        -1.1236265049    0.5994158874    0.0147678933
      3  C         0.1551561046   -0.1692490774    0.0144046878
      4  C        -2.3827730377   -0.2998088452   -0.0155474335
      5  H        -1.1755263922    1.2401195937    0.9045454557
      6  H        -1.1570989622    1.2694657545   -0.8547730173
      7  H         0.5762636913   -0.5457471384   -0.9125065071
      8  H         0.5930378671   -0.5248709820    0.9416066956
      9  H        -3.2947925737    0.3075006503   -0.0177293157
     10  H        -2.3932250477   -0.9306117785   -0.9101872738
     11  H        -2.4161566453   -0.9591518363    0.8576898251

Z-matrix Print:
$molecule
0 3
Br
H  1 4.725300
C  2 1.085316 1 104.128212
H  3 1.085471 2 117.345014 1 37.249935 0
C  3 1.492022 2 120.957227 1 -153.765570 0
H  5 1.097679 3 109.963925 2 35.302121 0
H  5 1.098266 3 109.891568 2 152.240422 0
C  5 1.547570 3 113.452539 2 -86.347601 0
H  8 1.094710 5 111.048330 3 60.091660 0
H  8 1.094716 5 111.014009 3 -59.736484 0
H  8 1.095723 5 110.806025 3 -179.802271 0
$end

PES scan, value:    5.1000 energy: -2692.3208069449
------- Summary of potential scan: ------ 
    5.1000     -2692.3208069449
----------------------------------------- 
Archival summary:
1\1\hpc0242\JobtypUnspecified\ProcedureUnspecified\6-31G**\r137(3)\knomura\WedMar1317:18:522019WedMar1317:18:522019\0\\#,JobtypUnspecified,ProcedureUnspecified,6-31G**,\\0,3\Br\H,1,4.7253\C,2,1.08532,1,104.128\H,3,1.08547,2,117.345,1,37.2499,0\C,3,1.49202,2,120.957,1,-153.766,0\H,5,1.09768,3,109.964,2,35.3021,0\H,5,1.09827,3,109.892,2,152.24,0\C,5,1.54757,3,113.453,2,-86.3476,0\H,8,1.09471,5,111.048,3,60.0917,0\H,8,1.09472,5,111.014,3,-59.7365,0\H,8,1.09572,5,110.806,3,-179.802,0\\\@

 Total job time:  37.78s(wall), 425.25s(cpu) 
 Wed Mar 13 17:18:52 2019

        *************************************************************
        *                                                           *
        *  Thank you very much for using Q-Chem.  Have a nice day.  *
        *                                                           *
        *************************************************************


