
Running Job 1 of 1 halogens/Bromine/02/Br_3.xyz.data/inputs/bond_triplet_4.6.in
qchem halogens/Bromine/02/Br_3.xyz.data/inputs/bond_triplet_4.6.in_27952.0 /staging/scratch/2868759/qchem27952/ 1
/usr/usc/qchem/5.1.1/exe/qcprog.exe_s halogens/Bromine/02/Br_3.xyz.data/inputs/bond_triplet_4.6.in_27952.0 /staging/scratch/2868759/qchem27952/
Check license passed

                  Welcome to Q-Chem
     A Quantum Leap Into The Future Of Chemistry


 Q-Chem 5.1, Q-Chem, Inc., Pleasanton, CA (2018)

 Yihan Shao,  Zhengting Gan,  E. Epifanovsky,  A. T. B. Gilbert,  M. Wormit,  
 J. Kussmann,  A. W. Lange,  A. Behn,  Jia Deng,  Xintian Feng,  D. Ghosh,  
 M. Goldey,  P. R. Horn,  L. D. Jacobson,  I. Kaliman,  T. Kus,  A. Landau,  
 Jie Liu,  E. I. Proynov,  R. M. Richard,  R. P. Steele,  E. J. Sundstrom,  
 H. L. Woodcock III,  P. M. Zimmerman,  D. Zuev,  B. Albrecht,  E. Alguire,  
 S. A. Baeppler,  D. Barton,  Z. Benda,  Y. A. Bernard,  E. J. Berquist,  
 K. B. Bravaya,  H. Burton,  D. Casanova,  Chun-Min Chang,  Yunqing Chen,  
 A. Chien,  K. D. Closser,  M. P. Coons,  S. Coriani,  S. Dasgupta,  
 A. L. Dempwolff,  M. Diedenhofen,  Hainam Do,  R. G. Edgar,  Po-Tung Fang,  
 S. Faraji,  S. Fatehi,  Qingguo Feng,  K. D. Fenk,  J. Fosso-Tande,  
 Qinghui Ge,  A. Ghysels,  G. Gidofalvi,  J. Gomes,  J. Gonthier,  A. Gunina,  
 D. Hait,  M. W. D. Hanson-Heine,  P. H. P. Harbach,  A. W. Hauser,  
 J. E. Herr,  E. G. Hohenstein,  Z. C. Holden,  Kerwin Hui,  B. C. Huynh,  
 T.-C. Jagau,  Hyunjun Ji,  B. Kaduk,  K. Khistyaev,  Jaehoon Kim,  
 P. Klunzinger,  K. Koh,  D. Kosenkov,  L. Koulias,  T. Kowalczyk,  
 C. M. Krauter,  A. Kunitsa,  Ka Un Lao,  A. Laurent,  K. V. Lawler,  
 Joonho Lee,  D. Lefrancois,  S. Lehtola,  D. S. Levine,  Yi-Pei Li,  
 You-Sheng Lin,  Fenglai Liu,  E. Livshits,  A. Luenser,  P. Manohar,  
 E. Mansoor,  S. F. Manzer,  Shan-Ping Mao,  Yuezhi Mao,  N. Mardirossian,  
 A. V. Marenich,  T. Markovich,  L. A. Martinez-Martinez,  S. A. Maurer,  
 N. J. Mayhall,  S. C. McKenzie,  J.-M. Mewes,  A. F. Morrison,  
 J. W. Mullinax,  K. Nanda,  T. S. Nguyen-Beck,  R. Olivares-Amaya,  
 J. A. Parkhill,  T. M. Perrine,  F. Plasser,  P. Pokhilko,  S. Prager,  
 A. Prociuk,  E. Ramos,  D. R. Rehn,  F. Rob,  M. Schneider,  N. Sergueev,  
 S. M. Sharada,  S. Sharma,  D. W. Small,  T. Stauch,  T. Stein,  
 Yu-Chuan Su,  A. J. W. Thom,  A. Tkatchenko,  T. Tsuchimochi,  N. M. Tubman,  
 L. Vogt,  M. L. Vidal,  O. Vydrov,  M. A. Watson,  J. Wenzel,  
 M. de Wergifosse,  T. A. Wesolowski,  A. White,  J. Witte,  A. Yamada,  
 Jun Yang,  K. Yao,  S. Yeganeh,  S. R. Yost,  Zhi-Qiang You,  A. Zech,  
 Igor Ying Zhang,  Xing Zhang,  Yan Zhao,  Ying Zhu,  B. R. Brooks,  
 G. K. L. Chan,  C. J. Cramer,  M. S. Gordon,  W. J. Hehre,  A. Klamt,  
 M. W. Schmidt,  C. D. Sherrill,  D. G. Truhlar,  A. Aspuru-Guzik,  R. Baer,  
 A. T. Bell,  N. A. Besley,  Jeng-Da Chai,  A. E. DePrince, III,  
 R. A. DiStasio Jr.,  A. Dreuw,  B. D. Dunietz,  T. R. Furlani,  
 Chao-Ping Hsu,  Yousung Jung,  Jing Kong,  D. S. Lambrecht,  WanZhen Liang,  
 C. Ochsenfeld,  V. A. Rassolov,  L. V. Slipchenko,  J. E. Subotnik,  
 T. Van Voorhis,  J. M. Herbert,  A. I. Krylov,  P. M. W. Gill,  M. Head-Gordon

 Contributors to earlier versions of Q-Chem not listed above: 
 R. D. Adamson,  B. Austin,  J. Baker,  G. J. O. Beran,  K. Brandhorst,  
 S. T. Brown,  E. F. C. Byrd,  A. K. Chakraborty,  C.-L. Cheng,  
 Siu Hung Chien,  D. M. Chipman,  D. L. Crittenden,  H. Dachsel,  
 R. J. Doerksen,  A. D. Dutoi,  L. Fusti-Molnar,  W. A. Goddard III,  
 A. Golubeva-Zadorozhnaya,  S. R. Gwaltney,  G. Hawkins,  A. Heyden,  
 S. Hirata,  G. Kedziora,  F. J. Keil,  C. Kelley,  Jihan Kim,  R. A. King,  
 R. Z. Khaliullin,  P. P. Korambath,  W. Kurlancheek,  A. M. Lee,  M. S. Lee,  
 S. V. Levchenko,  Ching Yeh Lin,  D. Liotard,  R. C. Lochan,  I. Lotan,  
 P. E. Maslen,  N. Nair,  D. P. O'Neill,  D. Neuhauser,  E. Neuscamman,  
 C. M. Oana,  R. Olson,  B. Peters,  R. Peverati,  P. A. Pieniazek,  
 Y. M. Rhee,  J. Ritchie,  M. A. Rohrdanz,  E. Rosta,  N. J. Russ,  
 H. F. Schaefer III,  N. E. Schultz,  N. Shenvi,  A. C. Simmonett,  A. Sodt,  
 D. Stuck,  K. S. Thanthiriwatte,  V. Vanovschi,  Tao Wang,  A. Warshel,  
 C. F. Williams,  Q. Wu,  X. Xu,  W. Zhang

 Please cite Q-Chem as follows:
 Y. Shao et al., Mol. Phys. 113, 184-215 (2015)
 DOI: 10.1080/00268976.2014.952696

 Q-Chem 5.1.1 for Intel X86 EM64T Linux

 Parts of Q-Chem use Armadillo 8.300.2 (Tropical Shenanigans).
 http://arma.sourceforge.net/

 Q-Chem begins on Wed Mar 13 17:20:48 2019  

Host: 
0

     Scratch files written to /staging/scratch/2868759/qchem27952//
 Aug318 |scratch|qcdevops|jenkins|workspace|build_RNUM 6013   
Processing $rem in /usr/usc/qchem/5.1.1/config/preferences.
 MEM_TOTAL  2000 
Input Ideriv = 2
Curr. Ideriv = -1
Max.  Ideriv = 2

Checking the input file for inconsistencies... 	...done.

--------------------------------------------------------------
User input:
--------------------------------------------------------------

$comment
potential surface scanner
$end

$rem
JOBTYPE  PES_SCAN
UNRESTRICTED TRUE
SYM_IGNORE  TRUE
GEOM_OPT_MAX_CYCLES 400
SCF_MAX_CYCLES 400
METHOD   B3LYP
BASIS   6-31G**
PDB_PRINT 2
SCF_CONVERGENCE 6
THRESH 14
SCF_PRINT 1
$end
$molecule
0 3
Br 4.865641 -0.634880 -0.008217
C -1.062787 0.573660 0.014255
C 0.181478 -0.250088 0.015300
C -2.359431 -0.270467 -0.016115
H -1.087359 1.216529 0.903705
H -1.066693 1.244172 -0.855664
H 0.581814 -0.650015 -0.911049
H 0.602516 -0.622658 0.943640
H -3.245015 0.374827 -0.018096
H -2.396878 -0.900458 -0.910642
H -2.420493 -0.928022 0.856982
$end
$scan
stre 1 3 4.600000 4.601000 0.100000
$end
--------------------------------------------------------------
 ----------------------------------------------------------------
             Standard Nuclear Orientation (Angstroms)
    I     Atom           X                Y                Z
 ----------------------------------------------------------------
    1      Br      4.8656410000    -0.6348800000    -0.0082170000
    2      C      -1.0627870000     0.5736600000     0.0142550000
    3      C       0.1814780000    -0.2500880000     0.0153000000
    4      C      -2.3594310000    -0.2704670000    -0.0161150000
    5      H      -1.0873590000     1.2165290000     0.9037050000
    6      H      -1.0666930000     1.2441720000    -0.8556640000
    7      H       0.5818140000    -0.6500150000    -0.9110490000
    8      H       0.6025160000    -0.6226580000     0.9436400000
    9      H      -3.2450150000     0.3748270000    -0.0180960000
   10      H      -2.3968780000    -0.9004580000    -0.9106420000
   11      H      -2.4204930000    -0.9280220000     0.8569820000
 ----------------------------------------------------------------
 Nuclear Repulsion Energy =   154.5870435815 hartrees
 There are       31 alpha and       29 beta electrons
 Requested basis set is 6-31G(d,p)
 There are 41 shells and 115 basis functions

 Total QAlloc Memory Limit   2000 MB
 Mega-Array Size       188 MB
 MEM_STATIC part       192 MB
A total of 1 constraints
  
            1
    1   1.0100000
    2   1.0100000
    3   3.0100000
    4   4.6000000
    5   4.6010000
    6   0.1000000
    7   0.0000000
    8   0.0000000
    9   0.0000000
   10   0.0000000

                       Distance Matrix (Angstroms)
             Br(  1)   C (  2)   C (  3)   C (  4)   H (  5)   H (  6)
   C (  2)  6.050399
   C (  3)  4.700000  1.492232
   C (  4)  7.234260  1.547501  2.541185
   H (  5)  6.300597  1.097727  2.133114  2.162266
   H (  6)  6.280254  1.098345  2.132914  2.161052  1.759708
   H (  7)  4.377957  2.249062  1.085510  3.097723  3.092484  2.511690
   H (  8)  4.368114  2.251259  1.085309  3.133416  2.497975  3.083635
   H (  9)  8.173270  2.191506  3.483172  1.095750  2.492721  2.490455
   H ( 10)  7.323188  2.192774  2.815718  1.094746  3.080313  2.524253
   H ( 11)  7.343177  2.192853  2.817495  1.094717  2.525575  3.079668
             H (  7)   H (  8)   H (  9)   H ( 10)
   H (  8)  1.855006
   H (  9)  4.061070  4.089426
   H ( 10)  2.989202  3.537216  1.772661
   H ( 11)  3.495292  3.039628  1.772855  1.767997
 
 A cutoff of  1.0D-14 yielded    716 shell pairs
 There are      5207 function pairs
 
 -------------------------------------------------------
 OpenMP Integral Computing Module                       
 Release: version 1.0, May 2013, Q-Chem Inc. Pittsburgh 
 -------------------------------------------------------
 Integral Job Info:
 Integral job number is                      11
 Integral operator is                         1
 short-range coefficients                     0
 long-range coefficients              100000000
 Omega coefficients                           0
 if combine SR and LR in K                    0
 Integral screening is                        0
 Integral computing path is                   2
 max size of driver memory is            800000
 size of driver memory is                593474
 size of scratch memory is             15267112
 max col of scratch BK array               1296
 max len of scratch array in speh3          155
 max len of scratch index in speh4           18
 max int batch size is                      520
 min int batch size is                       52
 fixed nKL is                                52
 max L of basis functions is                  2
 order of int derivative is                   0
 number of shells is                         41
 number of basis is                         115
 number of cartesian basis is               115
 number of contracted shell pairs           716
 number of primitive shell pairs           2709
 maxK2 (contraction) of shell pair           36
 max number of K2 of shell pair               1
 max number of CS2 of shell pair             59
 max number of PS2 of shell pair            198
 mem total for path MDJ                  514202
 -------------------------------------------------------
 Smallest overlap matrix eigenvalue = 7.27E-04

 Scale SEOQF with 1.000000e-01/1.000000e+00/1.000000e+00

 Standard Electronic Orientation quadrupole field applied
 Nucleus-field energy     =     0.0000000428 hartrees
 Guess from superposition of atomic densities
 Warning:  Energy on first SCF cycle will be non-variational
 SAD guess density has 59.972873 electrons

 -----------------------------------------------------------------------
  General SCF calculation program by
  Eric Jon Sundstrom, Paul Horn, Yuezhi Mao, Dmitri Zuev, Alec White,
  David Stuck, Shaama M.S., Shane Yost, Joonho Lee, David Small,
  Daniel Levine, Susi Lehtola, Hugh Burton, Evgeny Epifanovsky
 -----------------------------------------------------------------------
 Exchange:     0.2000 Hartree-Fock + 0.0800 Slater + 0.7200 B88
 Correlation:  0.1900 VWN1RPA + 0.8100 LYP
 Using SG-1 standard quadrature grid
 using 12 threads for integral computing
 -------------------------------------------------------
 OpenMP Integral computing Module                
 Release: version 1.0, May 2013, Q-Chem Inc. Pittsburgh 
 -------------------------------------------------------
 -------------------------------------------------------
 OpenMP BLAS3 based DFT computing Module                
 Release: version 1.0, May 2013, Q-Chem Inc. Pittsburgh 
 -------------------------------------------------------
 A unrestricted SCF calculation will be
 performed using DIIS
 SCF converges when DIIS error is below 1.0e-06
 Alpha HF Exchange    Energy = -10.71098884215508
 Beta HF Exchange     Energy = -10.71098884215508
 DFT Correlation      Energy =  -3.10413758994863
 DFT Exchange         Energy = -84.97276050127587
 One-Electron (alpha) Energy = -2021.22395987052232
 One-Electron (beta)  Energy = -2021.22395987052232
 Total Coulomb        Energy = 1301.85636642064878
 ---------------------------------------
  Cycle       Energy         DIIS error
 ---------------------------------------
    1   -2695.5033854716      1.64e-01  
 Alpha HF Exchange    Energy = -10.89570633960678
 Beta HF Exchange     Energy = -10.70117152500509
 DFT Correlation      Energy =  -3.13647503141455
 DFT Exchange         Energy = -85.89584242269439
 One-Electron (alpha) Energy = -2043.56262504999040
 One-Electron (beta)  Energy = -2009.47834424851817
 Total Coulomb        Energy = 1316.86636915762892
    2   -2692.2167518352      9.50e-03  
 Alpha HF Exchange    Energy = -10.79852503613951
 Beta HF Exchange     Energy = -10.61442428901273
 DFT Correlation      Energy =  -3.10167889144252
 DFT Exchange         Energy = -85.14543956782921
 One-Electron (alpha) Energy = -2036.10316677560945
 One-Electron (beta)  Energy = -2002.55653294152785
 Total Coulomb        Energy = 1301.51462068153432
    3   -2692.2181031957      4.11e-03  
 Alpha HF Exchange    Energy = -10.87276151365866
 Beta HF Exchange     Energy = -10.68037793992532
 DFT Correlation      Energy =  -3.12787886916867
 DFT Exchange         Energy = -85.71277610882079
 One-Electron (alpha) Energy = -2041.71968301789798
 One-Electron (beta)  Energy = -2007.57285619286790
 Total Coulomb        Energy = 1312.82138289033378
    4   -2692.2779071276      2.63e-03  
 Alpha HF Exchange    Energy = -10.84900190676668
 Beta HF Exchange     Energy = -10.65806033620436
 DFT Correlation      Energy =  -3.11839612518150
 DFT Exchange         Energy = -85.52438171228201
 One-Electron (alpha) Energy = -2040.07023356729701
 One-Electron (beta)  Energy = -2006.01042421993839
 Total Coulomb        Energy = 1309.32319172876237
    5   -2692.3202625145      3.11e-04  
 Alpha HF Exchange    Energy = -10.84690210433871
 Beta HF Exchange     Energy = -10.65664231766792
 DFT Correlation      Energy =  -3.11815333019319
 DFT Exchange         Energy = -85.51097080266618
 One-Electron (alpha) Energy = -2039.87428719650370
 One-Electron (beta)  Energy = -2005.84106949061174
 Total Coulomb        Energy = 1308.94027765180067
    6   -2692.3207039658      5.45e-05  
 Alpha HF Exchange    Energy = -10.84681228080316
 Beta HF Exchange     Energy = -10.65639056217655
 DFT Correlation      Energy =  -3.11802379428184
 DFT Exchange         Energy = -85.50950106882529
 One-Electron (alpha) Energy = -2039.86130299820729
 One-Electron (beta)  Energy = -2005.82189338098487
 Total Coulomb        Energy = 1308.90615673227694
    7   -2692.3207237286      1.61e-05  
 Alpha HF Exchange    Energy = -10.84688298104986
 Beta HF Exchange     Energy = -10.65645462675243
 DFT Correlation      Energy =  -3.11800505889465
 DFT Exchange         Energy = -85.50997133859374
 One-Electron (alpha) Energy = -2039.87094847548133
 One-Electron (beta)  Energy = -2005.82763690365209
 Total Coulomb        Energy = 1308.92213019667679
    8   -2692.3207255634      6.62e-06  
 Alpha HF Exchange    Energy = -10.84692883220657
 Beta HF Exchange     Energy = -10.65645791975324
 DFT Correlation      Energy =  -3.11801291466730
 DFT Exchange         Energy = -85.51017007531919
 One-Electron (alpha) Energy = -2039.87308327923824
 One-Electron (beta)  Energy = -2005.82730271530704
 Total Coulomb        Energy = 1308.92418611657786
    9   -2692.3207259955      1.76e-06  
 Alpha HF Exchange    Energy = -10.84692876146966
 Beta HF Exchange     Energy = -10.65645110946468
 DFT Correlation      Energy =  -3.11800785644683
 DFT Exchange         Energy = -85.51013750124702
 One-Electron (alpha) Energy = -2039.87269517602022
 One-Electron (beta)  Energy = -2005.82647300786266
 Total Coulomb        Energy = 1308.92292371115468
   10   -2692.3207260770      9.11e-07  Convergence criterion met
 ---------------------------------------
 SCF time:   CPU 25.33s  wall 3.00s 
<S^2> =          2.005235210
 Alpha HF Exchange    Energy = -10.84692876146966
 Beta HF Exchange     Energy = -10.65645110946468
 DFT Correlation      Energy =  -3.11800785644683
 DFT Exchange         Energy = -85.51013750124702
 One-Electron (alpha) Energy = -2039.87269517602022
 One-Electron (beta)  Energy = -2005.82647300786266
 Total Coulomb        Energy = 1308.92292371115468
 Nuclear repulsion Energy = 154.58704362436654
 SCF   energy in the final basis set =    -2692.3207260770
 Total energy in the final basis set =    -2692.3207260770
 
 --------------------------------------------------------------
 
                    Orbital Energies (a.u.)
 --------------------------------------------------------------
 
 Alpha MOs
 -- Occupied --
******* -62.557 -56.381 -56.373 -56.373 -10.184 -10.184 -10.175
 -8.744  -6.581  -6.558  -6.558  -2.671  -2.666  -2.666  -2.649
 -2.649  -0.796  -0.777  -0.671  -0.577  -0.460  -0.425  -0.391
 -0.376  -0.371  -0.347  -0.330  -0.322  -0.322  -0.197
 -- Virtual --
  0.105   0.135   0.144   0.158   0.170   0.180   0.181   0.222
  0.232   0.273   0.288   0.313   0.315   0.517   0.534   0.535
  0.535   0.545   0.545   0.550   0.581   0.582   0.597   0.602
  0.660   0.696   0.789   0.813   0.860   0.878   0.883   0.912
  0.939   0.961   1.001   1.214   1.309   1.434   1.479   1.524
  1.602   1.678   1.683   1.824   1.876   1.955   1.980   2.000
  2.053   2.072   2.123   2.126   2.227   2.262   2.292   2.371
  2.442   2.451   2.524   2.576   2.677   2.711   2.743   2.803
  2.861   2.883   2.922   3.186   3.259   3.360   3.381   3.466
  3.480   3.557   4.241   4.431   4.607   4.649   4.657   4.657
  4.682   4.682   6.206  90.124
 
 Beta MOs
 -- Occupied --
******* -62.555 -56.375 -56.372 -56.372 -10.185 -10.174 -10.170
 -8.740  -6.570  -6.557  -6.557  -2.663  -2.660  -2.660  -2.648
 -2.648  -0.767  -0.753  -0.652  -0.563  -0.455  -0.420  -0.385
 -0.365  -0.342  -0.328  -0.308  -0.308
 -- Virtual --
 -0.235  -0.038   0.109   0.146   0.148   0.159   0.176   0.181
  0.188   0.226   0.237   0.280   0.315   0.318   0.323   0.521
  0.536   0.552   0.568   0.589   0.590   0.591   0.591   0.596
  0.600   0.639   0.671   0.711   0.793   0.820   0.863   0.880
  0.886   0.919   0.944   0.973   1.003   1.225   1.318   1.464
  1.484   1.539   1.624   1.684   1.696   1.833   1.880   1.958
  2.003   2.042   2.054   2.073   2.125   2.131   2.228   2.274
  2.293   2.377   2.446   2.462   2.534   2.601   2.683   2.712
  2.747   2.806   2.863   2.885   2.926   3.187   3.263   3.365
  3.382   3.468   3.485   3.560   4.260   4.447   4.609   4.668
  4.671   4.671   4.685   4.685   6.222  90.130
 --------------------------------------------------------------
 
          Ground-State Mulliken Net Atomic Charges

     Atom                 Charge (a.u.)    Spin (a.u.)
  --------------------------------------------------------
      1 Br                   -0.000364       1.000460
      2 C                    -0.189313      -0.073964
      3 C                    -0.219892       1.080218
      4 C                    -0.307136       0.049777
      5 H                     0.101609       0.011460
      6 H                     0.102259       0.014876
      7 H                     0.100925      -0.047664
      8 H                     0.101437      -0.047781
      9 H                     0.100337       0.013662
     10 H                     0.104939      -0.000651
     11 H                     0.105199      -0.000393
  --------------------------------------------------------
  Sum of atomic charges =    -0.000000
  Sum of spin   charges =     2.000000

 -----------------------------------------------------------------
                    Cartesian Multipole Moments
 -----------------------------------------------------------------
    Charge (ESU x 10^10)
                 0.0000
    Dipole Moment (Debye)
         X      -0.2320      Y       0.0040      Z       0.0022
       Tot       0.2320
    Quadrupole Moments (Debye-Ang)
        XX     -39.6479     XY       0.2260     YY     -37.4389
        XZ      -0.0141     YZ      -0.0519     ZZ     -38.8356
    Octopole Moments (Debye-Ang^2)
       XXX    -201.1540    XXY      20.9522    XYY     -57.3823
       YYY      31.7855    XXZ      -0.0895    XYZ      -0.2956
       YYZ       0.1126    XZZ     -68.2727    YZZ      11.5114
       ZZZ       0.2809
    Hexadecapole Moments (Debye-Ang^3)
      XXXX   -3015.0069   XXXY     232.0302   XXYY    -479.9983
      XYYY     153.9026   YYYY    -120.2011   XXXZ      -0.1145
      XXYZ      -1.6930   XYYZ       0.7430   YYYZ      -0.7147
      XXZZ    -519.2062   XYZZ      58.9873   YYZZ     -30.1790
      XZZZ       1.5609   YZZZ      -0.5580   ZZZZ     -64.4319
 -----------------------------------------------------------------
 Calculating analytic gradient of the SCF energy
 Gradient of SCF Energy
            1           2           3           4           5           6
    1  -0.0001822   0.0000444   0.0002202  -0.0000184  -0.0000138  -0.0000213
    2   0.0000669  -0.0000573  -0.0000465  -0.0000185   0.0000192  -0.0000039
    3  -0.0000162  -0.0000164   0.0000122   0.0000086  -0.0000184  -0.0000098
            7           8           9          10          11
    1  -0.0000137  -0.0000343   0.0000011   0.0000061   0.0000119
    2   0.0000448   0.0000478  -0.0000214  -0.0000250  -0.0000062
    3   0.0000779  -0.0000698   0.0000032   0.0000144   0.0000141
 Max gradient component =       2.202E-04
 RMS gradient           =       5.897E-05
 Gradient time:  CPU 8.77 s  wall 0.77 s
 Geometry Optimization Parameters
   NAtoms,    NIC,     NZ,  NCons,   NDum,   NFix, NCnnct, MaxDiis
       11      85       0       1       0       0       0       0


** CONSTRAINED OPTIMIZATION IN DELOCALIZED INTERNAL COORDINATES **
   Searching for a Minimum

   Optimization Cycle:   1

                       Coordinates (Angstroms)
     ATOM                X               Y               Z
      1  Br        4.8656410000   -0.6348800000   -0.0082170000
      2  C        -1.0627870000    0.5736600000    0.0142550000
      3  C         0.1814780000   -0.2500880000    0.0153000000
      4  C        -2.3594310000   -0.2704670000   -0.0161150000
      5  H        -1.0873590000    1.2165290000    0.9037050000
      6  H        -1.0666930000    1.2441720000   -0.8556640000
      7  H         0.5818140000   -0.6500150000   -0.9110490000
      8  H         0.6025160000   -0.6226580000    0.9436400000
      9  H        -3.2450150000    0.3748270000   -0.0180960000
     10  H        -2.3968780000   -0.9004580000   -0.9106420000
     11  H        -2.4204930000   -0.9280220000    0.8569820000
   Point Group: c1    Number of degrees of freedom:    27


   Energy is  -2692.320726077

              Constraints and their Current Values
                                        Value     Constraint
   Distance(Angs):        1   3             4.700000     4.600000

 Attempting to Generate Delocalized Internal Coordinates

   Using Lagrange Multiplier Algorithm


 28 Hessian modes will be used to form the next step
  Hessian Eigenvalues:
    -0.997827    0.045000    0.045000    0.046910    0.049016    0.067780
     0.075291    0.078119    0.082978    0.082991    0.084980    0.087179
     0.104594    0.132759    0.160000    0.160000    0.160000    0.219525
     0.278647    0.330604    0.332061    0.336578    0.338659    0.339347
     0.341566    0.342699    0.342732    1.002177

 Minimum Search - Taking P-RFO Step
 Searching for Lamda that Maximizes Along the Constraint modes Only
 Value Taken    Lamda =   0.01766024
 Searching for Lamda that Minimizes Along All other modes
 Value Taken    Lamda =  -0.01743512
 Step Taken.  Stepsize is  0.185714

                             Maximum     Tolerance    Cnvgd?
         Gradient            0.188973       0.000300      NO
         Displacement        0.185714       0.001200      NO
         Energy change     *********       0.000001      NO


 New Cartesian Coordinates Obtained by Inverse Iteration

 Displacement from previous Coordinates is:  0.208471
 ----------------------------------------------------------------
             Standard Nuclear Orientation (Angstroms)
    I     Atom           X                Y                Z
 ----------------------------------------------------------------
    1      Br      4.7844782969    -0.5991655529    -0.0082752776
    2      C      -1.0432234946     0.5662930578     0.0142042649
    3      C       0.1948281564    -0.2668683540     0.0153739298
    4      C      -2.3461197905    -0.2681248298    -0.0161094408
    5      H      -1.0629569478     1.2093986705     0.9035974736
    6      H      -1.0420380694     1.2366877925    -0.8558075518
    7      H       0.5571069731    -0.6570547366    -0.9156231799
    8      H       0.5779634294    -0.6292492769     0.9484390421
    9      H      -3.2268956664     0.3837224894    -0.0181932404
   10      H      -2.3882375762    -0.8979261641    -0.9105641905
   11      H      -2.4121123110    -0.9251130961     0.8570571706
 ----------------------------------------------------------------
 Nuclear Repulsion Energy =   156.0814252173 hartrees
 There are       31 alpha and       29 beta electrons

                       Distance Matrix (Angstroms)
             Br(  1)   C (  2)   C (  3)   C (  4)   H (  5)   H (  6)
   C (  2)  5.943140
   C (  3)  4.601725  1.492291
   C (  4)  7.138283  1.547485  2.541143
   H (  5)  6.188289  1.097722  2.133150  2.162277
   H (  6)  6.167411  1.098340  2.132950  2.161061  1.759741
   H (  7)  4.324037  2.218607  1.072496  3.064167  3.068847  2.479335
   H (  8)  4.314044  2.220442  1.071785  3.100166  2.464804  3.059646
   H (  9)  8.071448  2.191530  3.483187  1.095753  2.492804  2.490532
   H ( 10)  7.235415  2.192760  2.815639  1.094748  3.080320  2.524248
   H ( 11)  7.255753  2.192841  2.817420  1.094718  2.525575  3.079674
             H (  7)   H (  8)   H (  9)   H ( 10)
   H (  8)  1.864386
   H (  9)  4.025826  4.054312
   H ( 10)  2.955182  3.510901  1.772652
   H ( 11)  3.468503  3.006067  1.772847  1.767992
 
 Applying Cartesian multipole field
    Component          Value
    ---------          -----
     (2,0,0)        1.00000E-11
     (0,2,0)        2.00000E-10
     (0,0,2)       -3.00000E-10
 Nucleus-field energy     =     0.0000000407 hartrees
 Requested basis set is 6-31G(d,p)
 There are 41 shells and 115 basis functions
 A cutoff of  1.0D-14 yielded    718 shell pairs
 There are      5247 function pairs
 Smallest overlap matrix eigenvalue = 7.27E-04
 Guess from superposition of atomic densities
 Warning:  Energy on first SCF cycle will be non-variational
 SAD guess density has 59.972873 electrons

 -----------------------------------------------------------------------
  General SCF calculation program by
  Eric Jon Sundstrom, Paul Horn, Yuezhi Mao, Dmitri Zuev, Alec White,
  David Stuck, Shaama M.S., Shane Yost, Joonho Lee, David Small,
  Daniel Levine, Susi Lehtola, Hugh Burton, Evgeny Epifanovsky
 -----------------------------------------------------------------------
 Exchange:     0.2000 Hartree-Fock + 0.0800 Slater + 0.7200 B88
 Correlation:  0.1900 VWN1RPA + 0.8100 LYP
 Using SG-1 standard quadrature grid
 using 12 threads for integral computing
 -------------------------------------------------------
 OpenMP Integral computing Module                
 Release: version 1.0, May 2013, Q-Chem Inc. Pittsburgh 
 -------------------------------------------------------
 -------------------------------------------------------
 OpenMP BLAS3 based DFT computing Module                
 Release: version 1.0, May 2013, Q-Chem Inc. Pittsburgh 
 -------------------------------------------------------
 A unrestricted SCF calculation will be
 performed using DIIS
 SCF converges when DIIS error is below 1.0e-06
 Alpha HF Exchange    Energy = -10.71266993296435
 Beta HF Exchange     Energy = -10.71266993296435
 DFT Correlation      Energy =  -3.10457868825969
 DFT Exchange         Energy = -84.97632828315079
 One-Electron (alpha) Energy = -2022.70343768242742
 One-Electron (beta)  Energy = -2022.70343768242742
 Total Coulomb        Energy = 1303.31511498133818
 ---------------------------------------
  Cycle       Energy         DIIS error
 ---------------------------------------
    1   -2695.5165819628      1.64e-01  
 Alpha HF Exchange    Energy = -10.89717860841796
 Beta HF Exchange     Energy = -10.70239215606869
 DFT Correlation      Energy =  -3.13708048317765
 DFT Exchange         Energy = -85.90569365264960
 One-Electron (alpha) Energy = -2045.13760084474302
 One-Electron (beta)  Energy = -2010.92236239533099
 Total Coulomb        Energy = 1318.40561371034823
    2   -2692.2152691720      9.51e-03  
 Alpha HF Exchange    Energy = -10.79942477580283
 Beta HF Exchange     Energy = -10.61537461498733
 DFT Correlation      Energy =  -3.10220897603437
 DFT Exchange         Energy = -85.15195247751180
 One-Electron (alpha) Energy = -2037.65682424382317
 One-Electron (beta)  Energy = -2003.98303654955930
 Total Coulomb        Energy = 1303.00993807558666
    3   -2692.2174583041      4.12e-03  
 Alpha HF Exchange    Energy = -10.87377746217524
 Beta HF Exchange     Energy = -10.68137998079437
 DFT Correlation      Energy =  -3.12834957125109
 DFT Exchange         Energy = -85.71983851779314
 One-Electron (alpha) Energy = -2043.27234115599822
 One-Electron (beta)  Energy = -2008.99915525496908
 Total Coulomb        Energy = 1314.31552587042847
    4   -2692.2778908145      2.62e-03  
 Alpha HF Exchange    Energy = -10.85009365045214
 Beta HF Exchange     Energy = -10.65909980546562
 DFT Correlation      Energy =  -3.11894171916272
 DFT Exchange         Energy = -85.53198025534493
 One-Electron (alpha) Energy = -2041.62827621399970
 One-Electron (beta)  Energy = -2007.44118391387610
 Total Coulomb        Energy = 1310.82843527663090
    5   -2692.3197150236      3.17e-04  
 Alpha HF Exchange    Energy = -10.84799145028093
 Beta HF Exchange     Energy = -10.65771847205752
 DFT Correlation      Energy =  -3.11869568097596
 DFT Exchange         Energy = -85.51868915356390
 One-Electron (alpha) Energy = -2041.43448111388443
 One-Electron (beta)  Energy = -2007.27454542657915
 Total Coulomb        Energy = 1310.45050822268126
    6   -2692.3201878166      5.43e-05  
 Alpha HF Exchange    Energy = -10.84788738025319
 Beta HF Exchange     Energy = -10.65745836964476
 DFT Correlation      Energy =  -3.11856569674123
 DFT Exchange         Energy = -85.51713462844481
 One-Electron (alpha) Energy = -2041.42017456683720
 One-Electron (beta)  Energy = -2007.25445528735008
 Total Coulomb        Energy = 1310.41404295124676
    7   -2692.3202077200      1.59e-05  
 Alpha HF Exchange    Energy = -10.84796016008156
 Beta HF Exchange     Energy = -10.65752464384936
 DFT Correlation      Energy =  -3.11854817450700
 DFT Exchange         Energy = -85.51762242367406
 One-Electron (alpha) Energy = -2041.42995701445398
 One-Electron (beta)  Energy = -2007.26041418981390
 Total Coulomb        Energy = 1310.43039177983405
    8   -2692.3202095685      6.51e-06  
 Alpha HF Exchange    Energy = -10.84800282936739
 Beta HF Exchange     Energy = -10.65752776364091
 DFT Correlation      Energy =  -3.11855581088722
 DFT Exchange         Energy = -85.51780803776441
 One-Electron (alpha) Energy = -2041.43189500031372
 One-Electron (beta)  Energy = -2007.26003827491672
 Total Coulomb        Energy = 1310.43219237733501
    9   -2692.3202100815      1.91e-06  
 Alpha HF Exchange    Energy = -10.84800281937468
 Beta HF Exchange     Energy = -10.65752169611635
 DFT Correlation      Energy =  -3.11855105956832
 DFT Exchange         Energy = -85.51777880074636
 One-Electron (alpha) Energy = -2041.43152797214339
 One-Electron (beta)  Energy = -2007.25926600724983
 Total Coulomb        Energy = 1310.43101280788983
   10   -2692.3202102893      1.24e-06  
 Alpha HF Exchange    Energy = -10.84800279738364
 Beta HF Exchange     Energy = -10.65752097359877
 DFT Correlation      Energy =  -3.11855044092718
 DFT Exchange         Energy = -85.51777538212673
 One-Electron (alpha) Energy = -2041.43155297849853
 One-Electron (beta)  Energy = -2007.25927335622077
 Total Coulomb        Energy = 1310.43104026280912
   11   -2692.3202104079      1.01e-06  
 Alpha HF Exchange    Energy = -10.84800263319558
 Beta HF Exchange     Energy = -10.65752050443079
 DFT Correlation      Energy =  -3.11855037450116
 DFT Exchange         Energy = -85.51777303647162
 One-Electron (alpha) Energy = -2041.43151799567750
 One-Electron (beta)  Energy = -2007.25926278630300
 Total Coulomb        Energy = 1310.43099151522506
   12   -2692.3202105573      9.87e-07  Convergence criterion met
 ---------------------------------------
 SCF time:   CPU 29.27s  wall 2.00s 
<S^2> =          2.005126556
 Alpha HF Exchange    Energy = -10.84800263319558
 Beta HF Exchange     Energy = -10.65752050443079
 DFT Correlation      Energy =  -3.11855037450116
 DFT Exchange         Energy = -85.51777303647162
 One-Electron (alpha) Energy = -2041.43151799567750
 One-Electron (beta)  Energy = -2007.25926278630300
 Total Coulomb        Energy = 1310.43099151522506
 Nuclear repulsion Energy = 156.08142525804521
 SCF   energy in the final basis set =    -2692.3202105573
 Total energy in the final basis set =    -2692.3202105573
 
 --------------------------------------------------------------
 
                    Orbital Energies (a.u.)
 --------------------------------------------------------------
 
 Alpha MOs
 -- Occupied --
******* -62.556 -56.381 -56.373 -56.373 -10.182 -10.181 -10.175
 -8.744  -6.580  -6.558  -6.558  -2.671  -2.666  -2.666  -2.649
 -2.649  -0.796  -0.777  -0.672  -0.577  -0.462  -0.424  -0.394
 -0.375  -0.371  -0.345  -0.331  -0.322  -0.321  -0.197
 -- Virtual --
  0.105   0.138   0.146   0.158   0.169   0.182   0.183   0.223
  0.232   0.270   0.288   0.314   0.317   0.519   0.531   0.534
  0.538   0.545   0.546   0.550   0.581   0.582   0.599   0.603
  0.661   0.698   0.787   0.812   0.862   0.883   0.884   0.916
  0.940   0.963   1.008   1.218   1.310   1.425   1.479   1.539
  1.604   1.679   1.685   1.825   1.886   1.941   1.984   2.013
  2.054   2.072   2.117   2.126   2.236   2.262   2.298   2.372
  2.451   2.452   2.521   2.603   2.681   2.732   2.744   2.803
  2.849   2.886   2.919   3.186   3.273   3.379   3.406   3.474
  3.489   3.556   4.245   4.434   4.606   4.649   4.657   4.657
  4.682   4.683   6.207  90.124
 
 Beta MOs
 -- Occupied --
******* -62.555 -56.375 -56.372 -56.372 -10.183 -10.174 -10.167
 -8.740  -6.570  -6.556  -6.556  -2.663  -2.660  -2.660  -2.648
 -2.648  -0.767  -0.753  -0.653  -0.563  -0.458  -0.418  -0.389
 -0.364  -0.340  -0.329  -0.308  -0.307
 -- Virtual --
 -0.235  -0.038   0.109   0.148   0.150   0.160   0.175   0.183
  0.190   0.227   0.237   0.278   0.315   0.318   0.325   0.523
  0.539   0.549   0.567   0.589   0.590   0.591   0.592   0.596
  0.602   0.641   0.672   0.713   0.791   0.820   0.865   0.886
  0.887   0.923   0.945   0.976   1.011   1.229   1.320   1.457
  1.484   1.552   1.625   1.685   1.697   1.835   1.890   1.945
  2.006   2.054   2.055   2.073   2.117   2.133   2.238   2.274
  2.299   2.378   2.456   2.464   2.530   2.628   2.686   2.734
  2.748   2.805   2.851   2.888   2.922   3.187   3.275   3.381
  3.412   3.477   3.495   3.559   4.263   4.450   4.608   4.668
  4.671   4.672   4.685   4.685   6.223  90.131
 --------------------------------------------------------------
 
          Ground-State Mulliken Net Atomic Charges

     Atom                 Charge (a.u.)    Spin (a.u.)
  --------------------------------------------------------
      1 Br                   -0.000474       1.000692
      2 C                    -0.191317      -0.073470
      3 C                    -0.217536       1.078173
      4 C                    -0.306752       0.049988
      5 H                     0.099957       0.011371
      6 H                     0.100657       0.014793
      7 H                     0.102741      -0.047063
      8 H                     0.103349      -0.047153
      9 H                     0.100421       0.013724
     10 H                     0.104333      -0.000656
     11 H                     0.104621      -0.000398
  --------------------------------------------------------
  Sum of atomic charges =    -0.000000
  Sum of spin   charges =     2.000000

 -----------------------------------------------------------------
                    Cartesian Multipole Moments
 -----------------------------------------------------------------
    Charge (ESU x 10^10)
                 0.0000
    Dipole Moment (Debye)
         X      -0.2308      Y      -0.0158      Z       0.0028
       Tot       0.2314
    Quadrupole Moments (Debye-Ang)
        XX     -39.9922     XY      -0.1768     YY     -37.2116
        XZ       0.0021     YZ      -0.0319     ZZ     -38.7493
    Octopole Moments (Debye-Ang^2)
       XXX    -200.7957    XXY      15.9940    XYY     -54.5262
       YYY      29.9021    XXZ       0.0617    XYZ      -0.2006
       YYZ       0.0826    XZZ     -66.9719    YZZ      10.8895
       ZZZ       0.2905
    Hexadecapole Moments (Debye-Ang^3)
      XXXX   -2956.8413   XXXY     187.2822   XXYY    -454.2062
      XYYY     139.6840   YYYY    -114.7449   XXXZ       0.9993
      XXYZ      -1.2373   XYYZ       0.5935   YYYZ      -0.6364
      XXZZ    -503.8395   XYZZ      54.6075   YYZZ     -29.2334
      XZZZ       1.5569   YZZZ      -0.5162   ZZZZ     -64.2251
 -----------------------------------------------------------------
 Calculating analytic gradient of the SCF energy
 Gradient of SCF Energy
            1           2           3           4           5           6
    1  -0.0001326   0.0006465   0.0115400  -0.0000734   0.0002350   0.0002263
    2   0.0000372  -0.0013832  -0.0094471  -0.0001305  -0.0001176  -0.0001319
    3  -0.0000178  -0.0000208   0.0003629   0.0000011  -0.0000451   0.0000244
            7           8           9          10          11
    1  -0.0061373  -0.0064127   0.0000301   0.0000397   0.0000383
    2   0.0055497   0.0055370   0.0000210   0.0000256   0.0000397
    3   0.0054895  -0.0058333   0.0000045   0.0000404  -0.0000057
 Max gradient component =       1.154E-02
 RMS gradient           =       3.608E-03
 Gradient time:  CPU 8.77 s  wall 0.76 s
 Geometry Optimization Parameters
   NAtoms,    NIC,     NZ,  NCons,   NDum,   NFix, NCnnct, MaxDiis
       11      85       0       1       0       0       0       0

 Cartesian Hessian Update
 Hessian Updated using BFGS Update


** CONSTRAINED OPTIMIZATION IN DELOCALIZED INTERNAL COORDINATES **
   Searching for a Minimum

   Optimization Cycle:   2

                       Coordinates (Angstroms)
     ATOM                X               Y               Z
      1  Br        4.7844782969   -0.5991655529   -0.0082752776
      2  C        -1.0432234946    0.5662930578    0.0142042649
      3  C         0.1948281564   -0.2668683540    0.0153739298
      4  C        -2.3461197905   -0.2681248298   -0.0161094408
      5  H        -1.0629569478    1.2093986705    0.9035974736
      6  H        -1.0420380694    1.2366877925   -0.8558075518
      7  H         0.5571069731   -0.6570547366   -0.9156231799
      8  H         0.5779634294   -0.6292492769    0.9484390421
      9  H        -3.2268956664    0.3837224894   -0.0181932404
     10  H        -2.3882375762   -0.8979261641   -0.9105641905
     11  H        -2.4121123110   -0.9251130961    0.8570571706
   Point Group: c1    Number of degrees of freedom:    27


   Energy is  -2692.320210557

              Constraints and their Current Values
                                        Value     Constraint
   Distance(Angs):        1   3             4.601725     4.600000
 Hessian Updated using BFGS Update

   Using Lagrange Multiplier Algorithm


 27 Hessian modes will be used to form the next step
  Hessian Eigenvalues:
    -0.987129    0.045000    0.045000    0.046912    0.049016    0.067780
     0.075291    0.078118    0.082978    0.082991    0.086167    0.099686
     0.104991    0.132759    0.160000    0.160007    0.219564    0.278647
     0.330620    0.332160    0.338658    0.339346    0.341566    0.342698
     0.342731    0.485865    1.019438

 Minimum Search - Taking P-RFO Step
 Searching for Lamda that Maximizes Along the Constraint modes Only
 Value Taken    Lamda =   0.00002672
 Searching for Lamda that Minimizes Along All other modes
 Value Taken    Lamda =  -0.00042601
 Step Taken.  Stepsize is  0.039799

                             Maximum     Tolerance    Cnvgd?
         Gradient            0.007778       0.000300      NO
         Displacement        0.032407       0.001200      NO
         Energy change      0.000516       0.000001      NO


 New Cartesian Coordinates Obtained by Inverse Iteration

 Displacement from previous Coordinates is:  0.031113
 ----------------------------------------------------------------
             Standard Nuclear Orientation (Angstroms)
    I     Atom           X                Y                Z
 ----------------------------------------------------------------
    1      Br      4.7824317354    -0.5962320930    -0.0082523273
    2      C      -1.0447197005     0.5678659235     0.0141753077
    3      C       0.1942817401    -0.2671022219     0.0153316751
    4      C      -2.3475721605    -0.2666722180    -0.0161254169
    5      H      -1.0652902334     1.2111534395     0.9035341623
    6      H      -1.0443574632     1.2384137684    -0.8558377569
    7      H       0.5643973196    -0.6635825991    -0.9190259379
    8      H       0.5855331748    -0.6357583453     0.9520296950
    9      H      -3.2285823000     0.3848646902    -0.0182217339
   10      H      -2.3897510311    -0.8966092331    -0.9105407104
   11      H      -2.4135780813    -0.9237411111     0.8570320432
 ----------------------------------------------------------------
 Nuclear Repulsion Energy =   156.0148825796 hartrees
 There are       31 alpha and       29 beta electrons

                       Distance Matrix (Angstroms)
             Br(  1)   C (  2)   C (  3)   C (  4)   H (  5)   H (  6)
   C (  2)  5.942333
   C (  3)  4.600000  1.494088
   C (  4)  7.137621  1.547513  2.542049
   H (  5)  6.188202  1.097817  2.135571  2.161941
   H (  6)  6.167317  1.098434  2.135355  2.160733  1.759708
   H (  7)  4.315769  2.230827  1.080373  3.074465  3.080948  2.491922
   H (  8)  4.305538  2.232937  1.079995  3.110732  2.477630  3.072043
   H (  9)  8.070873  2.191756  3.484564  1.095757  2.492432  2.490178
   H ( 10)  7.234954  2.192920  2.816158  1.094796  3.080216  2.524163
   H ( 11)  7.255242  2.192960  2.817901  1.094760  2.525434  3.079546
             H (  7)   H (  8)   H (  9)   H ( 10)
   H (  8)  1.871382
   H (  9)  4.037002  4.065776
   H ( 10)  2.963337  3.519876  1.772582
   H ( 11)  3.477126  3.014403  1.772780  1.767942
 
 Applying Cartesian multipole field
    Component          Value
    ---------          -----
     (2,0,0)        1.00000E-11
     (0,2,0)        2.00000E-10
     (0,0,2)       -3.00000E-10
 Nucleus-field energy     =     0.0000000406 hartrees
 Requested basis set is 6-31G(d,p)
 There are 41 shells and 115 basis functions
 A cutoff of  1.0D-14 yielded    718 shell pairs
 There are      5247 function pairs
 Smallest overlap matrix eigenvalue = 7.27E-04
 Guess from superposition of atomic densities
 Warning:  Energy on first SCF cycle will be non-variational
 SAD guess density has 59.972873 electrons

 -----------------------------------------------------------------------
  General SCF calculation program by
  Eric Jon Sundstrom, Paul Horn, Yuezhi Mao, Dmitri Zuev, Alec White,
  David Stuck, Shaama M.S., Shane Yost, Joonho Lee, David Small,
  Daniel Levine, Susi Lehtola, Hugh Burton, Evgeny Epifanovsky
 -----------------------------------------------------------------------
 Exchange:     0.2000 Hartree-Fock + 0.0800 Slater + 0.7200 B88
 Correlation:  0.1900 VWN1RPA + 0.8100 LYP
 Using SG-1 standard quadrature grid
 using 12 threads for integral computing
 -------------------------------------------------------
 OpenMP Integral computing Module                
 Release: version 1.0, May 2013, Q-Chem Inc. Pittsburgh 
 -------------------------------------------------------
 -------------------------------------------------------
 OpenMP BLAS3 based DFT computing Module                
 Release: version 1.0, May 2013, Q-Chem Inc. Pittsburgh 
 -------------------------------------------------------
 A unrestricted SCF calculation will be
 performed using DIIS
 SCF converges when DIIS error is below 1.0e-06
 Alpha HF Exchange    Energy = -10.71147075040772
 Beta HF Exchange     Energy = -10.71147075040772
 DFT Correlation      Energy =  -3.10431490425614
 DFT Exchange         Energy = -84.97373937631258
 One-Electron (alpha) Energy = -2022.64669128844889
 One-Electron (beta)  Energy = -2022.64669128844889
 Total Coulomb        Energy = 1303.27118156605411
 ---------------------------------------
  Cycle       Energy         DIIS error
 ---------------------------------------
    1   -2695.5083141720      1.64e-01  
 Alpha HF Exchange    Energy = -10.89619477988800
 Beta HF Exchange     Energy = -10.70158341911062
 DFT Correlation      Energy =  -3.13668626684982
 DFT Exchange         Energy = -85.89909361033544
 One-Electron (alpha) Energy = -2045.06431218525449
 One-Electron (beta)  Energy = -2010.85584528896175
 Total Coulomb        Energy = 1318.32266311767194
    2   -2692.2161698125      9.51e-03  
 Alpha HF Exchange    Energy = -10.79881072986039
 Beta HF Exchange     Energy = -10.61473470000734
 DFT Correlation      Energy =  -3.10188383064888
 DFT Exchange         Energy = -85.14746091019677
 One-Electron (alpha) Energy = -2037.59735769475833
 One-Electron (beta)  Energy = -2003.92333624005437
 Total Coulomb        Energy = 1302.95080442919630
    3   -2692.2178970561      4.12e-03  
 Alpha HF Exchange    Energy = -10.87306743719232
 Beta HF Exchange     Energy = -10.68070789912685
 DFT Correlation      Energy =  -3.12803310136294
 DFT Exchange         Energy = -85.71491951761827
 One-Electron (alpha) Energy = -2043.21153373114589
 One-Electron (beta)  Energy = -2008.94071864505190
 Total Coulomb        Energy = 1314.25616081712042
    4   -2692.2779368942      2.63e-03  
 Alpha HF Exchange    Energy = -10.84936230447792
 Beta HF Exchange     Energy = -10.65840213062563
 DFT Correlation      Energy =  -3.11859573403317
 DFT Exchange         Energy = -85.52683452444680
 One-Electron (alpha) Energy = -2041.56593860208659
 One-Electron (beta)  Energy = -2007.38052422355076
 Total Coulomb        Energy = 1310.76472504208800
    5   -2692.3200498569      3.15e-04  
 Alpha HF Exchange    Energy = -10.84725398249454
 Beta HF Exchange     Energy = -10.65699902849243
 DFT Correlation      Energy =  -3.11834823613655
 DFT Exchange         Energy = -85.51343760965526
 One-Electron (alpha) Energy = -2041.37047641821641
 One-Electron (beta)  Energy = -2007.21195989431840
 Total Coulomb        Energy = 1310.38308309817626
    6   -2692.3205094510      5.44e-05  
 Alpha HF Exchange    Energy = -10.84715784952079
 Beta HF Exchange     Energy = -10.65674255899140
 DFT Correlation      Energy =  -3.11821907758421
 DFT Exchange         Energy = -85.51192827238691
 One-Electron (alpha) Energy = -2041.35676822998971
 One-Electron (beta)  Energy = -2007.19221994831514
 Total Coulomb        Energy = 1310.34762378650044
    7   -2692.3205295301      1.61e-05  
 Alpha HF Exchange    Energy = -10.84722940675864
 Beta HF Exchange     Energy = -10.65680761121892
 DFT Correlation      Energy =  -3.11820061056207
 DFT Exchange         Energy = -85.51240561305913
 One-Electron (alpha) Energy = -2041.36650280563958
 One-Electron (beta)  Energy = -2007.19806039716582
 Total Coulomb        Energy = 1310.36379228613077
    8   -2692.3205315381      6.65e-06  
 Alpha HF Exchange    Energy = -10.84727405874258
 Beta HF Exchange     Energy = -10.65681100106778
 DFT Correlation      Energy =  -3.11820839874584
 DFT Exchange         Energy = -85.51260011907334
 One-Electron (alpha) Energy = -2041.36857523957906
 One-Electron (beta)  Energy = -2007.19770207923057
 Total Coulomb        Energy = 1310.36575608025623
    9   -2692.3205321960      2.12e-06  
 Alpha HF Exchange    Energy = -10.84727400396609
 Beta HF Exchange     Energy = -10.65680450799709
 DFT Correlation      Energy =  -3.11820343971818
 DFT Exchange         Energy = -85.51256890308279
 One-Electron (alpha) Energy = -2041.36819743192927
 One-Electron (beta)  Energy = -2007.19687156706277
 Total Coulomb        Energy = 1310.36450467738291
   10   -2692.3205325562      1.53e-06  
 Alpha HF Exchange    Energy = -10.84727402339252
 Beta HF Exchange     Energy = -10.65680373316044
 DFT Correlation      Energy =  -3.11820282941033
 DFT Exchange         Energy = -85.51256548238264
 One-Electron (alpha) Energy = -2041.36822475526560
 One-Electron (beta)  Energy = -2007.19686419559252
 Total Coulomb        Energy = 1310.36451962718638
   11   -2692.3205327718      1.36e-06  
 Alpha HF Exchange    Energy = -10.84727388547104
 Beta HF Exchange     Energy = -10.65680325958711
 DFT Correlation      Energy =  -3.11820275306543
 DFT Exchange         Energy = -85.51256321716082
 One-Electron (alpha) Energy = -2041.36819414798310
 One-Electron (beta)  Energy = -2007.19683868572270
 Total Coulomb        Energy = 1310.36446028575347
   12   -2692.3205330431      1.34e-06  
 Alpha HF Exchange    Energy = -10.84727391533563
 Beta HF Exchange     Energy = -10.65680336033144
 DFT Correlation      Energy =  -3.11820277545895
 DFT Exchange         Energy = -85.51256375443268
 One-Electron (alpha) Energy = -2041.36819991623702
 One-Electron (beta)  Energy = -2007.19684642958077
 Total Coulomb        Energy = 1310.36447429840200
   13   -2692.3205332328      1.34e-06  
 Alpha HF Exchange    Energy = -10.84727418643096
 Beta HF Exchange     Energy = -10.65680329562673
 DFT Correlation      Energy =  -3.11820268275682
 DFT Exchange         Energy = -85.51256458748300
 One-Electron (alpha) Energy = -2041.36823155515526
 One-Electron (beta)  Energy = -2007.19691301990133
 Total Coulomb        Energy = 1310.36457503069232
   14   -2692.3205316765      1.33e-06  
 Alpha HF Exchange    Energy = -10.84727286748505
 Beta HF Exchange     Energy = -10.65681244242218
 DFT Correlation      Energy =  -3.11820051152846
 DFT Exchange         Energy = -85.51259508939469
 One-Electron (alpha) Energy = -2041.36783201355752
 One-Electron (beta)  Energy = -2007.19829685600098
 Total Coulomb        Energy = 1310.36560943608879
   15   -2692.3205177241      3.88e-06  
 Alpha HF Exchange    Energy = -10.84727162312286
 Beta HF Exchange     Energy = -10.65682766579754
 DFT Correlation      Energy =  -3.11819812108227
 DFT Exchange         Energy = -85.51264782013428
 One-Electron (alpha) Energy = -2041.36747458231639
 One-Electron (beta)  Energy = -2007.19996880840426
 Total Coulomb        Energy = 1310.36699543693817
   16   -2692.3205105637      8.95e-06  
 Alpha HF Exchange    Energy = -10.84727283617338
 Beta HF Exchange     Energy = -10.65682660588477
 DFT Correlation      Energy =  -3.11819867872181
 DFT Exchange         Energy = -85.51264897189752
 One-Electron (alpha) Energy = -2041.36766477272590
 One-Electron (beta)  Energy = -2007.19988675818058
 Total Coulomb        Energy = 1310.36710577767826
   17   -2692.3205102257      8.25e-06  
 Alpha HF Exchange    Energy = -10.84727167839627
 Beta HF Exchange     Energy = -10.65683084452571
 DFT Correlation      Energy =  -3.11819743919243
 DFT Exchange         Energy = -85.51266063811914
 One-Electron (alpha) Energy = -2041.36745316373685
 One-Electron (beta)  Energy = -2007.20026692348461
 Total Coulomb        Energy = 1310.36729173445360
   18   -2692.3205063328      9.93e-06  
 Alpha HF Exchange    Energy = -10.84725959474664
 Beta HF Exchange     Energy = -10.65698183979992
 DFT Correlation      Energy =  -3.11817488465899
 DFT Exchange         Energy = -85.51317957455817
 One-Electron (alpha) Energy = -2041.36463487631613
 One-Electron (beta)  Energy = -2007.21470228947351
 Total Coulomb        Energy = 1310.37959532724562
   19   -2692.3204551121      5.79e-05  
 Alpha HF Exchange    Energy = -10.84726339770104
 Beta HF Exchange     Energy = -10.65694657244781
 DFT Correlation      Energy =  -3.11818014785503
 DFT Exchange         Energy = -85.51306283704440
 One-Electron (alpha) Energy = -2041.36538295560695
 One-Electron (beta)  Energy = -2007.21124460639021
 Total Coulomb        Energy = 1310.37672976622071
   20   -2692.3204681306      4.67e-05  
 Alpha HF Exchange    Energy = -10.84726651920705
 Beta HF Exchange     Energy = -10.65692488177951
 DFT Correlation      Energy =  -3.11818317101002
 DFT Exchange         Energy = -85.51299455227681
 One-Electron (alpha) Energy = -2041.36588832585880
 One-Electron (beta)  Energy = -2007.20894178045228
 Total Coulomb        Energy = 1310.37484215381983
   21   -2692.3204744566      3.99e-05  
 Alpha HF Exchange    Energy = -10.84726477437223
 Beta HF Exchange     Energy = -10.65693260346562
 DFT Correlation      Energy =  -3.11818007468961
 DFT Exchange         Energy = -85.51301774386823
 One-Electron (alpha) Energy = -2041.36564123862513
 One-Electron (beta)  Energy = -2007.20908197620156
 Total Coulomb        Energy = 1310.37476680423606
   22   -2692.3204689868      4.36e-05  
 Alpha HF Exchange    Energy = -10.84726700085256
 Beta HF Exchange     Energy = -10.65691613894647
 DFT Correlation      Energy =  -3.11817823320188
 DFT Exchange         Energy = -85.51296729553621
 One-Electron (alpha) Energy = -2041.36594657257183
 One-Electron (beta)  Energy = -2007.20593556287031
 Total Coulomb        Energy = 1310.37185892998605
   23   -2692.3204692538      4.06e-05  
 Alpha HF Exchange    Energy = -10.84727216500199
 Beta HF Exchange     Energy = -10.65687004189030
 DFT Correlation      Energy =  -3.11818259546613
 DFT Exchange         Energy = -85.51281753216691
 One-Electron (alpha) Energy = -2041.36689387581873
 One-Electron (beta)  Energy = -2007.20043256167787
 Total Coulomb        Energy = 1310.36710821552947
   24   -2692.3204779363      2.72e-05  
 Alpha HF Exchange    Energy = -10.84727806721709
 Beta HF Exchange     Energy = -10.65681638961167
 DFT Correlation      Energy =  -3.11818829687345
 DFT Exchange         Energy = -85.51264269909379
 One-Electron (alpha) Energy = -2041.36795543318931
 One-Electron (beta)  Energy = -2007.19432710920069
 Total Coulomb        Energy = 1310.36184154068792
   25   -2692.3204838343      1.15e-05  
 Alpha HF Exchange    Energy = -10.84728249162275
 Beta HF Exchange     Energy = -10.65677641331244
 DFT Correlation      Energy =  -3.11819168648301
 DFT Exchange         Energy = -85.51251293046394
 One-Electron (alpha) Energy = -2041.36876723884075
 One-Electron (beta)  Energy = -2007.18945680681441
 Total Coulomb        Energy = 1310.35761990870174
   26   -2692.3204850386      9.18e-08  Convergence criterion met
 ---------------------------------------
 SCF time:   CPU 62.34s  wall 6.00s 
<S^2> =          2.005186302
 Alpha HF Exchange    Energy = -10.84728249162275
 Beta HF Exchange     Energy = -10.65677641331244
 DFT Correlation      Energy =  -3.11819168648301
 DFT Exchange         Energy = -85.51251293046394
 One-Electron (alpha) Energy = -2041.36876723884075
 One-Electron (beta)  Energy = -2007.18945680681441
 Total Coulomb        Energy = 1310.35761990870174
 Nuclear repulsion Energy = 156.01488262018543
 SCF   energy in the final basis set =    -2692.3204850386
 Total energy in the final basis set =    -2692.3204850386
 
 --------------------------------------------------------------
 
                    Orbital Energies (a.u.)
 --------------------------------------------------------------
 
 Alpha MOs
 -- Occupied --
******* -62.556 -56.381 -56.373 -56.373 -10.184 -10.183 -10.175
 -8.744  -6.580  -6.558  -6.558  -2.671  -2.666  -2.666  -2.649
 -2.649  -0.796  -0.777  -0.671  -0.577  -0.462  -0.424  -0.393
 -0.376  -0.371  -0.346  -0.331  -0.322  -0.321  -0.197
 -- Virtual --
  0.104   0.136   0.145   0.158   0.169   0.181   0.182   0.221
  0.232   0.269   0.290   0.314   0.316   0.518   0.532   0.534
  0.537   0.545   0.545   0.551   0.582   0.582   0.599   0.603
  0.660   0.697   0.787   0.811   0.860   0.881   0.883   0.913
  0.938   0.961   1.006   1.217   1.309   1.426   1.479   1.535
  1.603   1.679   1.684   1.824   1.882   1.939   1.980   2.007
  2.054   2.072   2.118   2.125   2.233   2.261   2.295   2.370
  2.446   2.450   2.519   2.591   2.679   2.722   2.743   2.799
  2.846   2.884   2.917   3.185   3.266   3.377   3.388   3.469
  3.478   3.554   4.243   4.432   4.605   4.649   4.657   4.657
  4.682   4.683   6.207  90.125
 
 Beta MOs
 -- Occupied --
******* -62.555 -56.375 -56.372 -56.372 -10.184 -10.174 -10.170
 -8.740  -6.569  -6.556  -6.556  -2.663  -2.660  -2.660  -2.648
 -2.648  -0.767  -0.752  -0.653  -0.563  -0.457  -0.418  -0.388
 -0.364  -0.340  -0.329  -0.308  -0.307
 -- Virtual --
 -0.235  -0.039   0.108   0.147   0.148   0.159   0.175   0.182
  0.189   0.225   0.237   0.277   0.316   0.318   0.324   0.523
  0.538   0.550   0.566   0.589   0.590   0.591   0.591   0.596
  0.602   0.641   0.671   0.712   0.791   0.819   0.863   0.883
  0.886   0.920   0.944   0.974   1.009   1.228   1.319   1.457
  1.483   1.549   1.624   1.685   1.697   1.834   1.886   1.943
  2.004   2.048   2.054   2.073   2.118   2.133   2.235   2.273
  2.296   2.376   2.451   2.462   2.528   2.616   2.684   2.724
  2.747   2.801   2.849   2.886   2.920   3.186   3.270   3.379
  3.393   3.472   3.484   3.556   4.261   4.449   4.608   4.668
  4.672   4.672   4.685   4.685   6.223  90.131
 --------------------------------------------------------------
 
          Ground-State Mulliken Net Atomic Charges

     Atom                 Charge (a.u.)    Spin (a.u.)
  --------------------------------------------------------
      1 Br                   -0.000615       1.000590
      2 C                    -0.190585      -0.073563
      3 C                    -0.217709       1.079531
      4 C                    -0.307010       0.049680
      5 H                     0.100824       0.011315
      6 H                     0.101526       0.014714
      7 H                     0.101567      -0.047406
      8 H                     0.102153      -0.047510
      9 H                     0.100585       0.013711
     10 H                     0.104490      -0.000659
     11 H                     0.104773      -0.000402
  --------------------------------------------------------
  Sum of atomic charges =    -0.000000
  Sum of spin   charges =     2.000000

 -----------------------------------------------------------------
                    Cartesian Multipole Moments
 -----------------------------------------------------------------
    Charge (ESU x 10^10)
                -0.0000
    Dipole Moment (Debye)
         X      -0.2475      Y      -0.0005      Z       0.0027
       Tot       0.2475
    Quadrupole Moments (Debye-Ang)
        XX     -39.5515     XY       0.4852     YY     -37.6541
        XZ      -0.0063     YZ      -0.0199     ZZ     -38.7720
    Octopole Moments (Debye-Ang^2)
       XXX    -194.4827    XXY      22.1888    XYY     -57.4380
       YYY      30.5878    XXZ      -0.0211    XYZ      -0.1451
       YYZ       0.0712    XZZ     -66.9374    YZZ      10.8429
       ZZZ       0.2888
    Hexadecapole Moments (Debye-Ang^3)
      XXXX   -2893.8002   XXXY     230.1323   XXYY    -471.6100
      XYYY     144.3931   YYYY    -116.5245   XXXZ       0.3623
      XXYZ      -0.9630   XYYZ       0.5388   YYYZ      -0.6122
      XXZZ    -503.4035   XYZZ      54.6153   YYZZ     -29.3678
      XZZZ       1.5361   YZZZ      -0.4989   ZZZZ     -64.3756
 -----------------------------------------------------------------
 Calculating analytic gradient of the SCF energy
 Gradient of SCF Energy
            1           2           3           4           5           6
    1  -0.0001254   0.0000461   0.0073601  -0.0000930  -0.0000265  -0.0000339
    2   0.0000552  -0.0005631  -0.0055437   0.0000086   0.0000250   0.0000112
    3  -0.0000190  -0.0000090   0.0001269   0.0000025   0.0000092  -0.0000353
            7           8           9          10          11
    1  -0.0035479  -0.0036254  -0.0000091   0.0000260   0.0000290
    2   0.0029995   0.0030259  -0.0000189  -0.0000088   0.0000092
    3   0.0011192  -0.0012273   0.0000026   0.0000192   0.0000109
 Max gradient component =       7.360E-03
 RMS gradient           =       1.999E-03
 Gradient time:  CPU 8.77 s  wall 0.76 s
 Geometry Optimization Parameters
   NAtoms,    NIC,     NZ,  NCons,   NDum,   NFix, NCnnct, MaxDiis
       11      85       0       1       0       0       0       0

 Cartesian Hessian Update
 Hessian Updated using BFGS Update


** CONSTRAINED OPTIMIZATION IN DELOCALIZED INTERNAL COORDINATES **
   Searching for a Minimum

   Optimization Cycle:   3

                       Coordinates (Angstroms)
     ATOM                X               Y               Z
      1  Br        4.7824317354   -0.5962320930   -0.0082523273
      2  C        -1.0447197005    0.5678659235    0.0141753077
      3  C         0.1942817401   -0.2671022219    0.0153316751
      4  C        -2.3475721605   -0.2666722180   -0.0161254169
      5  H        -1.0652902334    1.2111534395    0.9035341623
      6  H        -1.0443574632    1.2384137684   -0.8558377569
      7  H         0.5643973196   -0.6635825991   -0.9190259379
      8  H         0.5855331748   -0.6357583453    0.9520296950
      9  H        -3.2285823000    0.3848646902   -0.0182217339
     10  H        -2.3897510311   -0.8966092331   -0.9105407104
     11  H        -2.4135780813   -0.9237411111    0.8570320432
   Point Group: c1    Number of degrees of freedom:    27


   Energy is  -2692.320485039

              Constraints and their Current Values
                                        Value     Constraint
   Distance(Angs):        1   3             4.600000     4.600000
 Hessian Updated using BFGS Update

 26 Hessian modes will be used to form the next step
  Hessian Eigenvalues:
     0.045000    0.045000    0.046784    0.049013    0.059225    0.067780
     0.075291    0.078128    0.082979    0.082992    0.086345    0.105020
     0.132759    0.159996    0.160000    0.160013    0.219489    0.278645
     0.330591    0.330680    0.338614    0.339309    0.341565    0.342698
     0.342731    0.429644

 Minimum Search - Taking Simple RFO Step
 Searching for Lamda that Minimizes Along All modes
 Value Taken    Lamda =  -0.00028679
 Step Taken.  Stepsize is  0.065634

                             Maximum     Tolerance    Cnvgd?
         Gradient           0.003827      0.000300      NO
         Displacement       0.057657      0.001200      NO
         Energy change     -0.000274      0.000001      NO


 New Cartesian Coordinates Obtained by Inverse Iteration

 Displacement from previous Coordinates is:  0.041709
 ----------------------------------------------------------------
             Standard Nuclear Orientation (Angstroms)
    I     Atom           X                Y                Z
 ----------------------------------------------------------------
    1      Br      4.7794892455    -0.5910500322    -0.0080771414
    2      C      -1.0470344665     0.5696524374     0.0140981954
    3      C       0.1910080724    -0.2665503923     0.0152373021
    4      C      -2.3498462090    -0.2648040084    -0.0161115122
    5      H      -1.0665201395     1.2127717163     0.9034357203
    6      H      -1.0455793882     1.2400151315    -0.8558730675
    7      H       0.5746507336    -0.6726752580    -0.9169873861
    8      H       0.5958431889    -0.6449242621     0.9499751730
    9      H      -3.2306919207     0.3869190432    -0.0181678489
   10      H      -2.3924137229    -0.8948482033    -0.9104633281
   11      H      -2.4161123936    -0.9219061721     0.8570328935
 ----------------------------------------------------------------
 Nuclear Repulsion Energy =   155.9877977616 hartrees
 There are       31 alpha and       29 beta electrons

                       Distance Matrix (Angstroms)
             Br(  1)   C (  2)   C (  3)   C (  4)   H (  5)   H (  6)
   C (  2)  5.941052
   C (  3)  4.600000  1.493983
   C (  4)  7.136801  1.547433  2.541048
   H (  5)  6.185504  1.097681  2.135104  2.162342
   H (  6)  6.164656  1.098289  2.134882  2.161202  1.759644
   H (  7)  4.302726  2.245030  1.086813  3.087170  3.092296  2.507442
   H (  8)  4.292279  2.247245  1.086643  3.123284  2.493322  3.083562
   H (  9)  8.069667  2.191527  3.483700  1.095736  2.492995  2.490831
   H ( 10)  7.234831  2.193085  2.815270  1.094821  3.080631  2.524794
   H ( 11)  7.254968  2.193094  2.816947  1.094786  2.525946  3.079986
             H (  7)   H (  8)   H (  9)   H ( 10)
   H (  8)  1.867289
   H (  9)  4.051080  4.079752
   H ( 10)  2.975378  3.528934  1.772520
   H ( 11)  3.486248  3.026092  1.772721  1.767862
 
 Applying Cartesian multipole field
    Component          Value
    ---------          -----
     (2,0,0)        1.00000E-11
     (0,2,0)        2.00000E-10
     (0,0,2)       -3.00000E-10
 Nucleus-field energy     =     0.0000000404 hartrees
 Requested basis set is 6-31G(d,p)
 There are 41 shells and 115 basis functions
 A cutoff of  1.0D-14 yielded    718 shell pairs
 There are      5247 function pairs
 Smallest overlap matrix eigenvalue = 7.27E-04
 Guess from superposition of atomic densities
 Warning:  Energy on first SCF cycle will be non-variational
 SAD guess density has 59.972873 electrons

 -----------------------------------------------------------------------
  General SCF calculation program by
  Eric Jon Sundstrom, Paul Horn, Yuezhi Mao, Dmitri Zuev, Alec White,
  David Stuck, Shaama M.S., Shane Yost, Joonho Lee, David Small,
  Daniel Levine, Susi Lehtola, Hugh Burton, Evgeny Epifanovsky
 -----------------------------------------------------------------------
 Exchange:     0.2000 Hartree-Fock + 0.0800 Slater + 0.7200 B88
 Correlation:  0.1900 VWN1RPA + 0.8100 LYP
 Using SG-1 standard quadrature grid
 using 12 threads for integral computing
 -------------------------------------------------------
 OpenMP Integral computing Module                
 Release: version 1.0, May 2013, Q-Chem Inc. Pittsburgh 
 -------------------------------------------------------
 -------------------------------------------------------
 OpenMP BLAS3 based DFT computing Module                
 Release: version 1.0, May 2013, Q-Chem Inc. Pittsburgh 
 -------------------------------------------------------
 A unrestricted SCF calculation will be
 performed using DIIS
 SCF converges when DIIS error is below 1.0e-06
 Alpha HF Exchange    Energy = -10.71069552543305
 Beta HF Exchange     Energy = -10.71069552543305
 DFT Correlation      Energy =  -3.10413721781665
 DFT Exchange         Energy = -84.97205187996830
 One-Electron (alpha) Energy = -2022.62634585671185
 One-Electron (beta)  Energy = -2022.62634585671185
 Total Coulomb        Energy = 1303.25909851176743
 ---------------------------------------
  Cycle       Energy         DIIS error
 ---------------------------------------
    1   -2695.5033755482      1.64e-01  
 Alpha HF Exchange    Energy = -10.89549824988920
 Beta HF Exchange     Energy = -10.70099878598715
 DFT Correlation      Energy =  -3.13641189857448
 DFT Exchange         Energy = -85.89438895670671
 One-Electron (alpha) Energy = -2045.03118396955074
 One-Electron (beta)  Energy = -2010.82306753423950
 Total Coulomb        Energy = 1318.27687216821528
    2   -2692.2168794247      9.50e-03  
 Alpha HF Exchange    Energy = -10.79839065684418
 Beta HF Exchange     Energy = -10.61428651070015
 DFT Correlation      Energy =  -3.10166057899936
 DFT Exchange         Energy = -85.14437673838758
 One-Electron (alpha) Energy = -2037.57496564971120
 One-Electron (beta)  Energy = -2003.89575391827384
 Total Coulomb        Energy = 1302.92343071795335
    3   -2692.2182055329      4.11e-03  
 Alpha HF Exchange    Energy = -10.87259436610684
 Beta HF Exchange     Energy = -10.68023416605200
 DFT Correlation      Energy =  -3.12782924142787
 DFT Exchange         Energy = -85.71158109991376
 One-Electron (alpha) Energy = -2043.18940151181209
 One-Electron (beta)  Energy = -2008.91476270310295
 Total Coulomb        Energy = 1314.23068051759606
    4   -2692.2779247687      2.63e-03  
 Alpha HF Exchange    Energy = -10.84884826517195
 Beta HF Exchange     Energy = -10.65790780266029
 DFT Correlation      Energy =  -3.11835766288940
 DFT Exchange         Energy = -85.52321281289349
 One-Electron (alpha) Energy = -2041.54135183603694
 One-Electron (beta)  Energy = -2007.35207694169003
 Total Coulomb        Energy = 1310.73366328023258
    5   -2692.3202942390      3.12e-04  
 Alpha HF Exchange    Energy = -10.84674230099142
 Beta HF Exchange     Energy = -10.65648752113948
 DFT Correlation      Energy =  -3.11811230060382
 DFT Exchange         Energy = -85.50976464460699
 One-Electron (alpha) Energy = -2041.34476999263234
 One-Electron (beta)  Energy = -2007.18197639921664
 Total Coulomb        Energy = 1310.34931642863285
    6   -2692.3207389285      5.45e-05  
 Alpha HF Exchange    Energy = -10.84665286621056
 Beta HF Exchange     Energy = -10.65623502072901
 DFT Correlation      Energy =  -3.11798337995896
 DFT Exchange         Energy = -85.50829549904211
 One-Electron (alpha) Energy = -2041.33170910315562
 One-Electron (beta)  Energy = -2007.16265096870734
 Total Coulomb        Energy = 1310.31496988828235
    7   -2692.3207591474      1.62e-05  
 Alpha HF Exchange    Energy = -10.84672332073172
 Beta HF Exchange     Energy = -10.65629899000392
 DFT Correlation      Energy =  -3.11796431726993
 DFT Exchange         Energy = -85.50876396156360
 One-Electron (alpha) Energy = -2041.34137368978486
 One-Electron (beta)  Energy = -2007.16834419941688
 Total Coulomb        Energy = 1310.33090932360869
    8   -2692.3207613531      6.82e-06  
 Alpha HF Exchange    Energy = -10.84676951961433
 Beta HF Exchange     Energy = -10.65630246504073
 DFT Correlation      Energy =  -3.11797216148507
 DFT Exchange         Energy = -85.50896486262130
 One-Electron (alpha) Energy = -2041.34355164103704
 One-Electron (beta)  Energy = -2007.16796881419896
 Total Coulomb        Energy = 1310.33296943480855
    9   -2692.3207622271      2.41e-06  
 Alpha HF Exchange    Energy = -10.84676941736210
 Beta HF Exchange     Energy = -10.65629552198912
 DFT Correlation      Energy =  -3.11796700969016
 DFT Exchange         Energy = -85.50893163779060
 One-Electron (alpha) Energy = -2041.34316305619177
 One-Electron (beta)  Energy = -2007.16705043670800
 Total Coulomb        Energy = 1310.33161645341556
   10   -2692.3207628242      1.90e-06  
 Alpha HF Exchange    Energy = -10.84676950976991
 Beta HF Exchange     Energy = -10.65629468356020
 DFT Correlation      Energy =  -3.11796638560524
 DFT Exchange         Energy = -85.50892830039867
 One-Electron (alpha) Energy = -2041.34319760792619
 One-Electron (beta)  Energy = -2007.16701081656925
 Total Coulomb        Energy = 1310.33160631106216
   11   -2692.3207631907      1.76e-06  
 Alpha HF Exchange    Energy = -10.84676941256795
 Beta HF Exchange     Energy = -10.65629415080559
 DFT Correlation      Energy =  -3.11796627497147
 DFT Exchange         Energy = -85.50892599054723
 One-Electron (alpha) Energy = -2041.34317319694037
 One-Electron (beta)  Energy = -2007.16694424783896
 Total Coulomb        Energy = 1310.33151181552466
   12   -2692.3207636561      1.75e-06  
 Alpha HF Exchange    Energy = -10.84676946199005
 Beta HF Exchange     Energy = -10.65629421911552
 DFT Correlation      Energy =  -3.11796627325438
 DFT Exchange         Energy = -85.50892651133688
 One-Electron (alpha) Energy = -2041.34318299456800
 One-Electron (beta)  Energy = -2007.16691705917742
 Total Coulomb        Energy = 1310.33149466014015
   13   -2692.3207640572      1.75e-06  
 Alpha HF Exchange    Energy = -10.84676956729549
 Beta HF Exchange     Energy = -10.65629441189209
 DFT Correlation      Energy =  -3.11796633345057
 DFT Exchange         Energy = -85.50892757615496
 One-Electron (alpha) Energy = -2041.34318942570553
 One-Electron (beta)  Energy = -2007.16711959354211
 Total Coulomb        Energy = 1310.33170679004934
   14   -2692.3207623159      1.74e-06  
 Alpha HF Exchange    Energy = -10.84676735009582
 Beta HF Exchange     Energy = -10.65630847227628
 DFT Correlation      Energy =  -3.11796556992132
 DFT Exchange         Energy = -85.50897159339232
 One-Electron (alpha) Energy = -2041.34263592002685
 One-Electron (beta)  Energy = -2007.17052895074448
 Total Coulomb        Energy = 1310.33463822986505
   15   -2692.3207418245      4.53e-06  
 Alpha HF Exchange    Energy = -10.84676436983033
 Beta HF Exchange     Energy = -10.65633774106250
 DFT Correlation      Energy =  -3.11796276064041
 DFT Exchange         Energy = -85.50906917705983
 One-Electron (alpha) Energy = -2041.34192384723133
 One-Electron (beta)  Energy = -2007.17481783322432
 Total Coulomb        Energy = 1310.33835221330582
   16   -2692.3207257137      1.32e-05  
 Alpha HF Exchange    Energy = -10.84676628286221
 Beta HF Exchange     Energy = -10.65632875543096
 DFT Correlation      Energy =  -3.11796409786950
 DFT Exchange         Energy = -85.50904342861446
 One-Electron (alpha) Energy = -2041.34228147470003
 One-Electron (beta)  Energy = -2007.17366588875757
 Total Coulomb        Energy = 1310.33752275805682
   17   -2692.3207293681      1.02e-05  
 Alpha HF Exchange    Energy = -10.84676597620885
 Beta HF Exchange     Energy = -10.65632616855949
 DFT Correlation      Energy =  -3.11796418015354
 DFT Exchange         Energy = -85.50903255918954
 One-Electron (alpha) Energy = -2041.34225577288726
 One-Electron (beta)  Energy = -2007.17339281467343
 Total Coulomb        Energy = 1310.33721052550868
   18   -2692.3207291441      9.55e-06  
 Alpha HF Exchange    Energy = -10.84675532546498
 Beta HF Exchange     Energy = -10.65644949574256
 DFT Correlation      Energy =  -3.11795022155052
 DFT Exchange         Energy = -85.50945067063880
 One-Electron (alpha) Energy = -2041.33980451601542
 One-Electron (beta)  Energy = -2007.18847161026861
 Total Coulomb        Energy = 1310.35041035481458
   19   -2692.3206736828      4.68e-05  
 Alpha HF Exchange    Energy = -10.84674154124614
 Beta HF Exchange     Energy = -10.65657410935565
 DFT Correlation      Energy =  -3.11793411975058
 DFT Exchange         Energy = -85.50986075583310
 One-Electron (alpha) Energy = -2041.33701531509359
 One-Electron (beta)  Energy = -2007.20206146381224
 Total Coulomb        Energy = 1310.36177770908421
   20   -2692.3206117939      8.49e-05  
 Alpha HF Exchange    Energy = -10.84674642572308
 Beta HF Exchange     Energy = -10.65655111344696
 DFT Correlation      Energy =  -3.11793735126388
 DFT Exchange         Energy = -85.50979505319796
 One-Electron (alpha) Energy = -2041.33772372810745
 One-Electron (beta)  Energy = -2007.19944825463244
 Total Coulomb        Energy = 1310.35978145837976
   21   -2692.3206226659      7.77e-05  
 Alpha HF Exchange    Energy = -10.84672919970836
 Beta HF Exchange     Energy = -10.65669229910223
 DFT Correlation      Energy =  -3.11791477329377
 DFT Exchange         Energy = -85.51025530423905
 One-Electron (alpha) Energy = -2041.33430906772537
 One-Electron (beta)  Energy = -2007.21382986743106
 Total Coulomb        Energy = 1310.37141387617453
   22   -2692.3205188332      1.23e-04  
 Alpha HF Exchange    Energy = -10.84673087603678
 Beta HF Exchange     Energy = -10.65666633658466
 DFT Correlation      Energy =  -3.11791682030760
 DFT Exchange         Energy = -85.51016514978679
 One-Electron (alpha) Energy = -2041.33471080847880
 One-Electron (beta)  Energy = -2007.21083434631214
 Total Coulomb        Energy = 1310.36869197927217
   23   -2692.3205345562      1.16e-04  
 Alpha HF Exchange    Energy = -10.84673273327248
 Beta HF Exchange     Energy = -10.65665005510937
 DFT Correlation      Energy =  -3.11791893305192
 DFT Exchange         Energy = -85.51011164167404
 One-Electron (alpha) Energy = -2041.33508845987330
 One-Electron (beta)  Energy = -2007.20909051981221
 Total Coulomb        Energy = 1310.36724853396618
   24   -2692.3205460068      1.11e-04  
 Alpha HF Exchange    Energy = -10.84673981397132
 Beta HF Exchange     Energy = -10.65659348444209
 DFT Correlation      Energy =  -3.11792645737937
 DFT Exchange         Energy = -85.50992955969046
 One-Electron (alpha) Energy = -2041.33640280722466
 One-Electron (beta)  Energy = -2007.20291357456267
 Total Coulomb        Energy = 1310.36212703089427
   25   -2692.3205808643      9.37e-05  
 Alpha HF Exchange    Energy = -10.84674664928574
 Beta HF Exchange     Energy = -10.65653784928732
 DFT Correlation      Energy =  -3.11793134232325
 DFT Exchange         Energy = -85.50975084698192
 One-Electron (alpha) Energy = -2041.33767898898031
 One-Electron (beta)  Energy = -2007.19624120803860
 Total Coulomb        Energy = 1310.35648477480254
   26   -2692.3206043080      7.80e-05  
 Alpha HF Exchange    Energy = -10.84675309632447
 Beta HF Exchange     Energy = -10.65647973314368
 DFT Correlation      Energy =  -3.11793826954182
 DFT Exchange         Energy = -85.50956128211658
 One-Electron (alpha) Energy = -2041.33889585620159
 One-Electron (beta)  Energy = -2007.18971880754748
 Total Coulomb        Energy = 1310.35092174786496
   27   -2692.3206274949      6.07e-05  
 Alpha HF Exchange    Energy = -10.84676647700221
 Beta HF Exchange     Energy = -10.65636118528063
 DFT Correlation      Energy =  -3.11794867179743
 DFT Exchange         Energy = -85.50917659516642
 One-Electron (alpha) Energy = -2041.34131554825990
 One-Electron (beta)  Energy = -2007.17544265891684
 Total Coulomb        Energy = 1310.33856026747958
   28   -2692.3206530669      2.68e-05  
 Alpha HF Exchange    Energy = -10.84677908249513
 Beta HF Exchange     Energy = -10.65625042895655
 DFT Correlation      Energy =  -3.11795766006930
 DFT Exchange         Energy = -85.50881833822795
 One-Electron (alpha) Energy = -2041.34352615258831
 One-Electron (beta)  Energy = -2007.16188078761957
 Total Coulomb        Energy = 1310.32675636966383
   29   -2692.3206582782      4.58e-06  
 Alpha HF Exchange    Energy = -10.84677635101136
 Beta HF Exchange     Energy = -10.65629639315911
 DFT Correlation      Energy =  -3.11795188298761
 DFT Exchange         Energy = -85.50897880249477
 One-Electron (alpha) Energy = -2041.34286960031363
 One-Electron (beta)  Energy = -2007.16637535391556
 Total Coulomb        Energy = 1310.33079324488926
   30   -2692.3206573369      9.49e-06  
 Alpha HF Exchange    Energy = -10.84678151529805
 Beta HF Exchange     Energy = -10.65623951302901
 DFT Correlation      Energy =  -3.11795742355268
 DFT Exchange         Energy = -85.50878829249825
 One-Electron (alpha) Energy = -2041.34384614912437
 One-Electron (beta)  Energy = -2007.16004193126241
 Total Coulomb        Energy = 1310.32519929140562
   31   -2692.3206577313      7.09e-06  
 Alpha HF Exchange    Energy = -10.84677808596582
 Beta HF Exchange     Energy = -10.65628379761171
 DFT Correlation      Energy =  -3.11795242867111
 DFT Exchange         Energy = -85.50893909907069
 One-Electron (alpha) Energy = -2041.34313011979202
 One-Electron (beta)  Energy = -2007.16468996256640
 Total Coulomb        Energy = 1310.32931786763083
   32   -2692.3206578240      6.14e-06  
 Alpha HF Exchange    Energy = -10.84677964685278
 Beta HF Exchange     Energy = -10.65626553049082
 DFT Correlation      Energy =  -3.11795431532427
 DFT Exchange         Energy = -85.50887753358128
 One-Electron (alpha) Energy = -2041.34343991166133
 One-Electron (beta)  Energy = -2007.16269263738695
 Total Coulomb        Energy = 1310.32755358337931
   33   -2692.3206581898      7.76e-07  Convergence criterion met
 ---------------------------------------
 SCF time:   CPU 78.76s  wall 6.00s 
<S^2> =          2.005236420
 Alpha HF Exchange    Energy = -10.84677964685278
 Beta HF Exchange     Energy = -10.65626553049082
[...]
 Beta HF Exchange     Energy = -10.68033059116305
 DFT Correlation      Energy =  -3.12787067128144
 DFT Exchange         Energy = -85.71275583944633
 One-Electron (alpha) Energy = -2044.27550258500742
 One-Electron (beta)  Energy = -2009.85729892521704
 Total Coulomb        Energy = 1315.23323651158285
    4   -2692.2783963218      2.63e-03  
 Alpha HF Exchange    Energy = -10.84898490583175
 Beta HF Exchange     Energy = -10.65800435271579
 DFT Correlation      Energy =  -3.11838409476822
 DFT Exchange         Energy = -85.52435122876052
 One-Electron (alpha) Energy = -2042.62545185057866
 One-Electron (beta)  Energy = -2008.29274715288557
 Total Coulomb        Energy = 1311.73221756268958
    5   -2692.3208306671      3.11e-04  
 Alpha HF Exchange    Energy = -10.84687604043674
 Beta HF Exchange     Energy = -10.65657495001773
 DFT Correlation      Energy =  -3.11813664494369
 DFT Exchange         Energy = -85.51085128937470
 One-Electron (alpha) Energy = -2042.42793910274645
 One-Electron (beta)  Energy = -2008.11994611966406
 Total Coulomb        Energy = 1311.34417937060562
    6   -2692.3212694209      5.49e-05  
 Alpha HF Exchange    Energy = -10.84678724984475
 Beta HF Exchange     Energy = -10.65632446626776
 DFT Correlation      Energy =  -3.11800687602256
 DFT Exchange         Energy = -85.50938863782638
 One-Electron (alpha) Energy = -2042.41521459517753
 One-Electron (beta)  Energy = -2008.10067371179730
 Total Coulomb        Energy = 1311.31023034301302
    7   -2692.3212898382      1.63e-05  
 Alpha HF Exchange    Energy = -10.84685650136182
 Beta HF Exchange     Energy = -10.65638819738430
 DFT Correlation      Energy =  -3.11798768107067
 DFT Exchange         Energy = -85.50985117277942
 One-Electron (alpha) Energy = -2042.42487112145818
 One-Electron (beta)  Energy = -2008.10618719669742
 Total Coulomb        Energy = 1311.32597443170494
    8   -2692.3212920833      6.85e-06  
 Alpha HF Exchange    Energy = -10.84690290519387
 Beta HF Exchange     Energy = -10.65639208995381
 DFT Correlation      Energy =  -3.11799560934199
 DFT Exchange         Energy = -85.51005393941107
 One-Electron (alpha) Energy = -2042.42712779584440
 One-Electron (beta)  Energy = -2008.10580581196291
 Total Coulomb        Energy = 1311.32810981306648
    9   -2692.3212929829      2.45e-06  
 Alpha HF Exchange    Energy = -10.84690286836760
 Beta HF Exchange     Energy = -10.65638530679611
 DFT Correlation      Energy =  -3.11799045577281
 DFT Exchange         Energy = -85.51002148659597
 One-Electron (alpha) Energy = -2042.42674930793532
 One-Electron (beta)  Energy = -2008.10484475687826
 Total Coulomb        Energy = 1311.32672522526991
   10   -2692.3212936014      1.93e-06  
 Alpha HF Exchange    Energy = -10.84690293244365
 Beta HF Exchange     Energy = -10.65638444000172
 DFT Correlation      Energy =  -3.11798979171946
 DFT Exchange         Energy = -85.51001788985178
 One-Electron (alpha) Energy = -2042.42679078919764
 One-Electron (beta)  Energy = -2008.10480116316876
 Total Coulomb        Energy = 1311.32671766760905
   11   -2692.3212939831      1.78e-06  
 Alpha HF Exchange    Energy = -10.84690281192229
 Beta HF Exchange     Energy = -10.65638387860809
 DFT Correlation      Energy =  -3.11798965404235
 DFT Exchange         Energy = -85.51001537979747
 One-Electron (alpha) Energy = -2042.42676420271869
 One-Electron (beta)  Energy = -2008.10472356861828
 Total Coulomb        Energy = 1311.32660962926161
   12   -2692.3212945107      1.76e-06  
 Alpha HF Exchange    Energy = -10.84690296528211
 Beta HF Exchange     Energy = -10.65638434279476
 DFT Correlation      Energy =  -3.11798961876935
 DFT Exchange         Energy = -85.51001789012756
 One-Electron (alpha) Energy = -2042.42679905008072
 One-Electron (beta)  Energy = -2008.10463519317659
 Total Coulomb        Energy = 1311.32655780174355
   13   -2692.3212959028      1.73e-06  
 Alpha HF Exchange    Energy = -10.84690157401926
 Beta HF Exchange     Energy = -10.65638813233072
 DFT Correlation      Energy =  -3.11798873045674
 DFT Exchange         Energy = -85.51002592980738
 One-Electron (alpha) Energy = -2042.42668419093479
 One-Electron (beta)  Energy = -2008.10396640409385
 Total Coulomb        Energy = 1311.32577438935027
   14   -2692.3213052166      1.79e-06  
 Alpha HF Exchange    Energy = -10.84690145769152
 Beta HF Exchange     Energy = -10.65638800779417
 DFT Correlation      Energy =  -3.11798864348787
 DFT Exchange         Energy = -85.51002473562903
 One-Electron (alpha) Energy = -2042.42669128106240
 One-Electron (beta)  Energy = -2008.10387335215887
 Total Coulomb        Energy = 1311.32568624042460
   15   -2692.3213058817      1.73e-06  
 Alpha HF Exchange    Energy = -10.84689504597416
 Beta HF Exchange     Energy = -10.65645033015310
 DFT Correlation      Energy =  -3.11798143253205
 DFT Exchange         Energy = -85.51022021452839
 One-Electron (alpha) Energy = -2042.42612476543854
 One-Electron (beta)  Energy = -2008.10790173507962
 Total Coulomb        Energy = 1311.32936883780985
   16   -2692.3213293302      1.81e-05  
 Alpha HF Exchange    Energy = -10.84689674119178
 Beta HF Exchange     Energy = -10.65642998595474
 DFT Correlation      Energy =  -3.11798319333056
 DFT Exchange         Energy = -85.51015332601121
 One-Electron (alpha) Energy = -2042.42634952885965
 One-Electron (beta)  Energy = -2008.10584105316525
 Total Coulomb        Energy = 1311.32744999897113
   17   -2692.3213284738      1.23e-05  
 Alpha HF Exchange    Energy = -10.84689667729589
 Beta HF Exchange     Energy = -10.65643263812748
 DFT Correlation      Energy =  -3.11798312985506
 DFT Exchange         Energy = -85.51016352970291
 One-Electron (alpha) Energy = -2042.42632002333221
 One-Electron (beta)  Energy = -2008.10630187221454
 Total Coulomb        Energy = 1311.32789532769220
   18   -2692.3213271871      1.31e-05  
 Alpha HF Exchange    Energy = -10.84689704755696
 Beta HF Exchange     Energy = -10.65645959484949
 DFT Correlation      Energy =  -3.11798096462206
 DFT Exchange         Energy = -85.51025611393436
 One-Electron (alpha) Energy = -2042.42653392225202
 One-Electron (beta)  Energy = -2008.10832833304767
 Total Coulomb        Energy = 1311.33024725020232
   19   -2692.3213333703      2.02e-05  
 Alpha HF Exchange    Energy = -10.84689501195888
 Beta HF Exchange     Energy = -10.65646253507587
 DFT Correlation      Energy =  -3.11798011065219
 DFT Exchange         Energy = -85.51025577812042
 One-Electron (alpha) Energy = -2042.42632857272747
 One-Electron (beta)  Energy = -2008.10854400341100
 Total Coulomb        Energy = 1311.33025705810201
   20   -2692.3213335981      2.13e-05  
 Alpha HF Exchange    Energy = -10.84689541041349
 Beta HF Exchange     Energy = -10.65645481981137
 DFT Correlation      Energy =  -3.11798068679012
 DFT Exchange         Energy = -85.51022894319823
 One-Electron (alpha) Energy = -2042.42641198566707
 One-Electron (beta)  Energy = -2008.10766000588592
 Total Coulomb        Energy = 1311.32942203767175
   21   -2692.3213344584      1.91e-05  
 Alpha HF Exchange    Energy = -10.84689748248910
 Beta HF Exchange     Energy = -10.65643658305274
 DFT Correlation      Energy =  -3.11798225684803
 DFT Exchange         Energy = -85.51016903074205
 One-Electron (alpha) Energy = -2042.42673404930224
 One-Electron (beta)  Energy = -2008.10551325806068
 Total Coulomb        Energy = 1311.32752103944654
   22   -2692.3213362653      1.36e-05  
 Alpha HF Exchange    Energy = -10.84689982344345
 Beta HF Exchange     Energy = -10.65641094028876
 DFT Correlation      Energy =  -3.11798441591224
 DFT Exchange         Energy = -85.51008258491049
 One-Electron (alpha) Energy = -2042.42714409728046
 One-Electron (beta)  Energy = -2008.10249990068041
 Total Coulomb        Energy = 1311.32480862677335
   23   -2692.3213377800      6.04e-06  
 Alpha HF Exchange    Energy = -10.84690115759265
 Beta HF Exchange     Energy = -10.65639413477012
 DFT Correlation      Energy =  -3.11798565539397
 DFT Exchange         Energy = -85.51002516636680
 One-Electron (alpha) Energy = -2042.42737197675615
 One-Electron (beta)  Energy = -2008.10054267580745
 Total Coulomb        Energy = 1311.32300728068799
   24   -2692.3213381303      1.18e-06  
 Alpha HF Exchange    Energy = -10.84690150949437
 Beta HF Exchange     Energy = -10.65639092116224
 DFT Correlation      Energy =  -3.11798590963024
 DFT Exchange         Energy = -85.51001459580185
 One-Electron (alpha) Energy = -2042.42742877247474
 One-Electron (beta)  Energy = -2008.10016548006365
 Total Coulomb        Energy = 1311.32267368925932
   25   -2692.3213381436      2.18e-07  Convergence criterion met
 ---------------------------------------
 SCF time:   CPU 59.86s  wall 5.00s 
<S^2> =          2.005217096
 Alpha HF Exchange    Energy = -10.84690150949437
 Beta HF Exchange     Energy = -10.65639092116224
 DFT Correlation      Energy =  -3.11798590963024
 DFT Exchange         Energy = -85.51001459580185
 One-Electron (alpha) Energy = -2042.42742877247474
 One-Electron (beta)  Energy = -2008.10016548006365
 Total Coulomb        Energy = 1311.32267368925932
 Nuclear repulsion Energy = 157.01487535571886
 SCF   energy in the final basis set =    -2692.3213381436
 Total energy in the final basis set =    -2692.3213381436
 
 --------------------------------------------------------------
 
                    Orbital Energies (a.u.)
 --------------------------------------------------------------
 
 Alpha MOs
 -- Occupied --
******* -62.555 -56.380 -56.372 -56.372 -10.188 -10.187 -10.177
 -8.743  -6.579  -6.557  -6.557  -2.670  -2.665  -2.665  -2.648
 -2.648  -0.795  -0.780  -0.674  -0.580  -0.462  -0.428  -0.393
 -0.379  -0.369  -0.349  -0.333  -0.321  -0.321  -0.201
 -- Virtual --
  0.103   0.135   0.142   0.157   0.169   0.178   0.179   0.219
  0.229   0.270   0.291   0.313   0.314   0.513   0.532   0.533
  0.536   0.546   0.546   0.548   0.582   0.583   0.594   0.602
  0.656   0.695   0.785   0.811   0.857   0.876   0.882   0.909
  0.936   0.959   0.997   1.212   1.306   1.428   1.476   1.525
  1.599   1.680   1.681   1.820   1.871   1.953   1.974   1.999
  2.052   2.070   2.121   2.123   2.224   2.259   2.289   2.369
  2.437   2.449   2.520   2.572   2.675   2.709   2.741   2.802
  2.857   2.881   2.920   3.184   3.255   3.356   3.377   3.464
  3.477   3.553   4.238   4.428   4.604   4.650   4.658   4.658
  4.683   4.683   6.208  90.125
 
 Beta MOs
 -- Occupied --
******* -62.554 -56.374 -56.371 -56.371 -10.187 -10.176 -10.174
 -8.739  -6.569  -6.555  -6.555  -2.662  -2.659  -2.659  -2.647
 -2.647  -0.769  -0.752  -0.655  -0.566  -0.458  -0.422  -0.388
 -0.367  -0.344  -0.331  -0.307  -0.307
 -- Virtual --
 -0.233  -0.043   0.107   0.144   0.148   0.158   0.175   0.180
  0.185   0.223   0.234   0.279   0.317   0.318   0.319   0.517
  0.534   0.548   0.565   0.590   0.591   0.592   0.592   0.597
  0.597   0.638   0.667   0.711   0.789   0.818   0.860   0.878
  0.885   0.916   0.941   0.970   1.000   1.222   1.316   1.458
  1.481   1.540   1.621   1.681   1.698   1.830   1.876   1.956
  1.999   2.039   2.052   2.071   2.122   2.129   2.226   2.270
  2.290   2.375   2.442   2.460   2.529   2.596   2.681   2.710
  2.745   2.804   2.859   2.883   2.923   3.186   3.259   3.361
  3.379   3.466   3.483   3.556   4.257   4.445   4.607   4.669
  4.672   4.672   4.686   4.686   6.223  90.131
 --------------------------------------------------------------
 
          Ground-State Mulliken Net Atomic Charges

     Atom                 Charge (a.u.)    Spin (a.u.)
  --------------------------------------------------------
      1 Br                   -0.001609       1.000872
      2 C                    -0.189387      -0.073711
      3 C                    -0.226118       1.079181
      4 C                    -0.307107       0.050013
      5 H                     0.103045       0.012233
      6 H                     0.103275       0.013698
      7 H                     0.102001      -0.047355
      8 H                     0.102330      -0.047399
      9 H                     0.101617       0.013586
     10 H                     0.105908      -0.000614
     11 H                     0.106047      -0.000504
  --------------------------------------------------------
  Sum of atomic charges =    -0.000000
  Sum of spin   charges =     2.000000

 -----------------------------------------------------------------
                    Cartesian Multipole Moments
 -----------------------------------------------------------------
    Charge (ESU x 10^10)
                 0.0000
    Dipole Moment (Debye)
         X      -0.3273      Y       0.0307      Z       0.0018
       Tot       0.3288
    Quadrupole Moments (Debye-Ang)
        XX     -37.4175     XY      -0.5255     YY     -39.7228
        XZ       0.0640     YZ       0.0019     ZZ     -38.8258
    Octopole Moments (Debye-Ang^2)
       XXX    -159.4767    XXY       3.3331    XYY     -65.9971
       YYY       7.6947    XXZ       0.2186    XYZ       0.0000
       YYZ      -0.4361    XZZ     -66.0584    YZZ       1.6277
       ZZZ      -1.2955
    Hexadecapole Moments (Debye-Ang^3)
      XXXX   -2515.4311   XXXY      14.8146   XXYY    -493.9287
      XYYY      15.1977   YYYY     -90.7027   XXXZ      -1.6122
      XXYZ      -0.0355   XYYZ      -2.1910   YYYZ      -0.0854
      XXZZ    -490.7541   XYZZ       5.7098   YYZZ     -23.9502
      XZZZ      -6.4789   YZZZ      -0.0065   ZZZZ     -64.4339
 -----------------------------------------------------------------
 Calculating analytic gradient of the SCF energy
 Gradient of SCF Energy
            1           2           3           4           5           6
    1   0.0002982  -0.0000039  -0.0003327  -0.0000172  -0.0000025  -0.0000020
    2   0.0000223   0.0000123   0.0000249  -0.0000320  -0.0000037   0.0000000
    3   0.0000128   0.0000097  -0.0000075  -0.0000048   0.0000047   0.0000005
            7           8           9          10          11
    1   0.0000188   0.0000322   0.0000101   0.0000019  -0.0000029
    2  -0.0000320  -0.0000307   0.0000100   0.0000160   0.0000131
    3  -0.0000287   0.0000227  -0.0000020  -0.0000052  -0.0000022
 Max gradient component =       3.327E-04
 RMS gradient           =       7.939E-05
 Gradient time:  CPU 8.72 s  wall 0.75 s
 Geometry Optimization Parameters
   NAtoms,    NIC,     NZ,  NCons,   NDum,   NFix, NCnnct, MaxDiis
       11      85       0       1       0       0       0       0

 Cartesian Hessian Update
 Hessian Updated using BFGS Update


** CONSTRAINED OPTIMIZATION IN DELOCALIZED INTERNAL COORDINATES **
   Searching for a Minimum

   Optimization Cycle:  18

                       Coordinates (Angstroms)
     ATOM                X               Y               Z
      1  Br        4.7212921463   -0.0429089333    0.0234145695
      2  C        -0.9605156284    0.4857657944    0.0060222254
      3  C         0.1457505951   -0.5160995324    0.0007598411
      4  C        -2.3684111143   -0.1566152783   -0.0072517102
      5  H        -0.8788295432    1.1277435197    0.8926443659
      6  H        -0.8714346162    1.1450230188   -0.8673884316
      7  H         0.4815143950   -0.9675062621   -0.9280726801
      8  H         0.4950704910   -0.9642035103    0.9261023679
      9  H        -3.1480052790    0.6132206661   -0.0035430724
     10  H        -2.5074597852   -0.7770420139   -0.8982896307
     11  H        -2.5161786611   -0.7947774686    0.8697011550
   Point Group: c1    Number of degrees of freedom:    27


   Energy is  -2692.321338144

              Constraints and their Current Values
                                        Value     Constraint
   Distance(Angs):        1   3             4.600000     4.600000
 Hessian Updated using BFGS Update

 26 Hessian modes will be used to form the next step
  Hessian Eigenvalues:
     0.000775    0.004082    0.031355    0.044981    0.045235    0.048957
     0.063028    0.068474    0.075460    0.080736    0.082983    0.105566
     0.132765    0.155802    0.159767    0.160145    0.195885    0.278747
     0.330653    0.331249    0.338947    0.340286    0.342702    0.343303
     0.343577    0.431258

 Minimum Search - Taking Simple RFO Step
 Searching for Lamda that Minimizes Along All modes
 Value Taken    Lamda =   0.00000000
 Step Taken.  Stepsize is  0.005494

                             Maximum     Tolerance    Cnvgd?
         Gradient           0.000040      0.000300     YES
         Displacement       0.002888      0.001200      NO
         Energy change     -0.000000      0.000001     YES


                       Distance Matrix (Angstroms)
             Br(  1)   C (  2)   C (  3)   C (  4)   H (  5)   H (  6)
   C (  2)  5.706377
   C (  3)  4.600000  1.492510
   C (  4)  7.090681  1.547579  2.539745
   H (  5)  5.786826  1.097682  2.132473  2.162925
   H (  6)  5.786476  1.097908  2.132528  2.162183  1.760133
   H (  7)  4.442513  2.250330  1.085926  3.102826  3.091216  2.509369
   H (  8)  4.418663  2.251153  1.085855  3.118153  2.502991  3.087520
   H (  9)  7.896650  2.191220  3.481984  1.095641  2.493400  2.492352
   H ( 10)  7.324162  2.192145  2.813522  1.094629  3.080274  2.524256
   H ( 11)  7.325469  2.192218  2.813999  1.094592  2.525376  3.079852
             H (  7)   H (  8)   H (  9)   H ( 10)
   H (  8)  1.854228
   H (  9)  4.065325  4.077316
   H ( 10)  2.995185  3.518327  1.773048
   H ( 11)  3.499713  3.016539  1.773195  1.768101
 
 Final energy is   -2692.32133814365     


 ******************************
 **  OPTIMIZATION CONVERGED  **
 ******************************

                       Coordinates (Angstroms)
     ATOM                X               Y               Z
      1  Br        4.7212921463   -0.0429089333    0.0234145695
      2  C        -0.9605156284    0.4857657944    0.0060222254
      3  C         0.1457505951   -0.5160995324    0.0007598411
      4  C        -2.3684111143   -0.1566152783   -0.0072517102
      5  H        -0.8788295432    1.1277435197    0.8926443659
      6  H        -0.8714346162    1.1450230188   -0.8673884316
      7  H         0.4815143950   -0.9675062621   -0.9280726801
      8  H         0.4950704910   -0.9642035103    0.9261023679
      9  H        -3.1480052790    0.6132206661   -0.0035430724
     10  H        -2.5074597852   -0.7770420139   -0.8982896307
     11  H        -2.5161786611   -0.7947774686    0.8697011550

Z-matrix Print:
$molecule
0 3
Br
H  1 4.418663
C  2 1.085855 1 92.725753
H  3 1.085926 2 117.250903 1 62.824278 0
C  3 1.492510 2 120.827550 1 -129.476739 0
H  5 1.097682 3 109.893670 2 36.951218 0
H  5 1.097908 3 109.884543 2 153.924351 0
C  5 1.547579 3 113.306380 2 -84.610464 0
H  8 1.094592 5 110.973925 3 59.898780 0
H  8 1.094629 5 110.965949 3 -59.849444 0
H  8 1.095641 5 110.832322 3 -179.962824 0
$end

PES scan, value:    4.6000 energy: -2692.3213381436
------- Summary of potential scan: ------ 
    4.6000     -2692.3213381436
----------------------------------------- 
Archival summary:
1\1\hpc0242\JobtypUnspecified\ProcedureUnspecified\6-31G**\r137(3)\knomura\WedMar1317:22:382019WedMar1317:22:382019\0\\#,JobtypUnspecified,ProcedureUnspecified,6-31G**,\\0,3\Br\H,1,4.41866\C,2,1.08585,1,92.7258\H,3,1.08593,2,117.251,1,62.8243,0\C,3,1.49251,2,120.828,1,-129.477,0\H,5,1.09768,3,109.894,2,36.9512,0\H,5,1.09791,3,109.885,2,153.924,0\C,5,1.54758,3,113.306,2,-84.6105,0\H,8,1.09459,5,110.974,3,59.8988,0\H,8,1.09463,5,110.966,3,-59.8494,0\H,8,1.09564,5,110.832,3,-179.963,0\\\@

 Total job time:  110.05s(wall), 1286.35s(cpu) 
 Wed Mar 13 17:22:38 2019

        *************************************************************
        *                                                           *
        *  Thank you very much for using Q-Chem.  Have a nice day.  *
        *                                                           *
        *************************************************************


