
Running Job 1 of 1 halogens/Bromine/02/Br_3.xyz.data/inputs/bond_triplet_4.7.in
qchem halogens/Bromine/02/Br_3.xyz.data/inputs/bond_triplet_4.7.in_27921.0 /staging/scratch/2868759/qchem27921/ 1
/usr/usc/qchem/5.1.1/exe/qcprog.exe_s halogens/Bromine/02/Br_3.xyz.data/inputs/bond_triplet_4.7.in_27921.0 /staging/scratch/2868759/qchem27921/
Check license passed

                  Welcome to Q-Chem
     A Quantum Leap Into The Future Of Chemistry


 Q-Chem 5.1, Q-Chem, Inc., Pleasanton, CA (2018)

 Yihan Shao,  Zhengting Gan,  E. Epifanovsky,  A. T. B. Gilbert,  M. Wormit,  
 J. Kussmann,  A. W. Lange,  A. Behn,  Jia Deng,  Xintian Feng,  D. Ghosh,  
 M. Goldey,  P. R. Horn,  L. D. Jacobson,  I. Kaliman,  T. Kus,  A. Landau,  
 Jie Liu,  E. I. Proynov,  R. M. Richard,  R. P. Steele,  E. J. Sundstrom,  
 H. L. Woodcock III,  P. M. Zimmerman,  D. Zuev,  B. Albrecht,  E. Alguire,  
 S. A. Baeppler,  D. Barton,  Z. Benda,  Y. A. Bernard,  E. J. Berquist,  
 K. B. Bravaya,  H. Burton,  D. Casanova,  Chun-Min Chang,  Yunqing Chen,  
 A. Chien,  K. D. Closser,  M. P. Coons,  S. Coriani,  S. Dasgupta,  
 A. L. Dempwolff,  M. Diedenhofen,  Hainam Do,  R. G. Edgar,  Po-Tung Fang,  
 S. Faraji,  S. Fatehi,  Qingguo Feng,  K. D. Fenk,  J. Fosso-Tande,  
 Qinghui Ge,  A. Ghysels,  G. Gidofalvi,  J. Gomes,  J. Gonthier,  A. Gunina,  
 D. Hait,  M. W. D. Hanson-Heine,  P. H. P. Harbach,  A. W. Hauser,  
 J. E. Herr,  E. G. Hohenstein,  Z. C. Holden,  Kerwin Hui,  B. C. Huynh,  
 T.-C. Jagau,  Hyunjun Ji,  B. Kaduk,  K. Khistyaev,  Jaehoon Kim,  
 P. Klunzinger,  K. Koh,  D. Kosenkov,  L. Koulias,  T. Kowalczyk,  
 C. M. Krauter,  A. Kunitsa,  Ka Un Lao,  A. Laurent,  K. V. Lawler,  
 Joonho Lee,  D. Lefrancois,  S. Lehtola,  D. S. Levine,  Yi-Pei Li,  
 You-Sheng Lin,  Fenglai Liu,  E. Livshits,  A. Luenser,  P. Manohar,  
 E. Mansoor,  S. F. Manzer,  Shan-Ping Mao,  Yuezhi Mao,  N. Mardirossian,  
 A. V. Marenich,  T. Markovich,  L. A. Martinez-Martinez,  S. A. Maurer,  
 N. J. Mayhall,  S. C. McKenzie,  J.-M. Mewes,  A. F. Morrison,  
 J. W. Mullinax,  K. Nanda,  T. S. Nguyen-Beck,  R. Olivares-Amaya,  
 J. A. Parkhill,  T. M. Perrine,  F. Plasser,  P. Pokhilko,  S. Prager,  
 A. Prociuk,  E. Ramos,  D. R. Rehn,  F. Rob,  M. Schneider,  N. Sergueev,  
 S. M. Sharada,  S. Sharma,  D. W. Small,  T. Stauch,  T. Stein,  
 Yu-Chuan Su,  A. J. W. Thom,  A. Tkatchenko,  T. Tsuchimochi,  N. M. Tubman,  
 L. Vogt,  M. L. Vidal,  O. Vydrov,  M. A. Watson,  J. Wenzel,  
 M. de Wergifosse,  T. A. Wesolowski,  A. White,  J. Witte,  A. Yamada,  
 Jun Yang,  K. Yao,  S. Yeganeh,  S. R. Yost,  Zhi-Qiang You,  A. Zech,  
 Igor Ying Zhang,  Xing Zhang,  Yan Zhao,  Ying Zhu,  B. R. Brooks,  
 G. K. L. Chan,  C. J. Cramer,  M. S. Gordon,  W. J. Hehre,  A. Klamt,  
 M. W. Schmidt,  C. D. Sherrill,  D. G. Truhlar,  A. Aspuru-Guzik,  R. Baer,  
 A. T. Bell,  N. A. Besley,  Jeng-Da Chai,  A. E. DePrince, III,  
 R. A. DiStasio Jr.,  A. Dreuw,  B. D. Dunietz,  T. R. Furlani,  
 Chao-Ping Hsu,  Yousung Jung,  Jing Kong,  D. S. Lambrecht,  WanZhen Liang,  
 C. Ochsenfeld,  V. A. Rassolov,  L. V. Slipchenko,  J. E. Subotnik,  
 T. Van Voorhis,  J. M. Herbert,  A. I. Krylov,  P. M. W. Gill,  M. Head-Gordon

 Contributors to earlier versions of Q-Chem not listed above: 
 R. D. Adamson,  B. Austin,  J. Baker,  G. J. O. Beran,  K. Brandhorst,  
 S. T. Brown,  E. F. C. Byrd,  A. K. Chakraborty,  C.-L. Cheng,  
 Siu Hung Chien,  D. M. Chipman,  D. L. Crittenden,  H. Dachsel,  
 R. J. Doerksen,  A. D. Dutoi,  L. Fusti-Molnar,  W. A. Goddard III,  
 A. Golubeva-Zadorozhnaya,  S. R. Gwaltney,  G. Hawkins,  A. Heyden,  
 S. Hirata,  G. Kedziora,  F. J. Keil,  C. Kelley,  Jihan Kim,  R. A. King,  
 R. Z. Khaliullin,  P. P. Korambath,  W. Kurlancheek,  A. M. Lee,  M. S. Lee,  
 S. V. Levchenko,  Ching Yeh Lin,  D. Liotard,  R. C. Lochan,  I. Lotan,  
 P. E. Maslen,  N. Nair,  D. P. O'Neill,  D. Neuhauser,  E. Neuscamman,  
 C. M. Oana,  R. Olson,  B. Peters,  R. Peverati,  P. A. Pieniazek,  
 Y. M. Rhee,  J. Ritchie,  M. A. Rohrdanz,  E. Rosta,  N. J. Russ,  
 H. F. Schaefer III,  N. E. Schultz,  N. Shenvi,  A. C. Simmonett,  A. Sodt,  
 D. Stuck,  K. S. Thanthiriwatte,  V. Vanovschi,  Tao Wang,  A. Warshel,  
 C. F. Williams,  Q. Wu,  X. Xu,  W. Zhang

 Please cite Q-Chem as follows:
 Y. Shao et al., Mol. Phys. 113, 184-215 (2015)
 DOI: 10.1080/00268976.2014.952696

 Q-Chem 5.1.1 for Intel X86 EM64T Linux

 Parts of Q-Chem use Armadillo 8.300.2 (Tropical Shenanigans).
 http://arma.sourceforge.net/

 Q-Chem begins on Wed Mar 13 17:20:10 2019  

Host: 
0

     Scratch files written to /staging/scratch/2868759/qchem27921//
 Aug318 |scratch|qcdevops|jenkins|workspace|build_RNUM 6013   
Processing $rem in /usr/usc/qchem/5.1.1/config/preferences.
 MEM_TOTAL  2000 
Input Ideriv = 2
Curr. Ideriv = -1
Max.  Ideriv = 2

Checking the input file for inconsistencies... 	...done.

--------------------------------------------------------------
User input:
--------------------------------------------------------------

$comment
potential surface scanner
$end

$rem
JOBTYPE  PES_SCAN
UNRESTRICTED TRUE
SYM_IGNORE  TRUE
GEOM_OPT_MAX_CYCLES 400
SCF_MAX_CYCLES 400
METHOD   B3LYP
BASIS   6-31G**
PDB_PRINT 2
SCF_CONVERGENCE 6
THRESH 14
SCF_PRINT 1
$end
$molecule
0 3
Br 4.953221 -0.700420 -0.010022
C -1.080220 0.585401 0.014707
C 0.177645 -0.217501 0.015777
C -2.361852 -0.281282 -0.016378
H -1.115763 1.227286 0.904412
H -1.095036 1.255794 -0.855098
H 0.577081 -0.619944 -0.910170
H 0.596352 -0.593712 0.944016
H -3.258529 0.348495 -0.019053
H -2.387834 -0.911865 -0.910905
H -2.412270 -0.939652 0.856812
$end
$scan
stre 1 3 4.700000 4.701000 0.100000
$end
--------------------------------------------------------------
 ----------------------------------------------------------------
             Standard Nuclear Orientation (Angstroms)
    I     Atom           X                Y                Z
 ----------------------------------------------------------------
    1      Br      4.9532210000    -0.7004200000    -0.0100220000
    2      C      -1.0802200000     0.5854010000     0.0147070000
    3      C       0.1776450000    -0.2175010000     0.0157770000
    4      C      -2.3618520000    -0.2812820000    -0.0163780000
    5      H      -1.1157630000     1.2272860000     0.9044120000
    6      H      -1.0950360000     1.2557940000    -0.8550980000
    7      H       0.5770810000    -0.6199440000    -0.9101700000
    8      H       0.5963520000    -0.5937120000     0.9440160000
    9      H      -3.2585290000     0.3484950000    -0.0190530000
   10      H      -2.3878340000    -0.9118650000    -0.9109050000
   11      H      -2.4122700000    -0.9396520000     0.8568120000
 ----------------------------------------------------------------
 Nuclear Repulsion Energy =   153.1788914821 hartrees
 There are       31 alpha and       29 beta electrons
 Requested basis set is 6-31G(d,p)
 There are 41 shells and 115 basis functions

 Total QAlloc Memory Limit   2000 MB
 Mega-Array Size       188 MB
 MEM_STATIC part       192 MB
A total of 1 constraints
  
            1
    1   1.0100000
    2   1.0100000
    3   3.0100000
    4   4.7000000
    5   4.7010000
    6   0.1000000
    7   0.0000000
    8   0.0000000
    9   0.0000000
   10   0.0000000

                       Distance Matrix (Angstroms)
             Br(  1)   C (  2)   C (  3)   C (  4)   H (  5)   H (  6)
   C (  2)  6.168984
   C (  3)  4.800000  1.492272
   C (  4)  7.327074  1.547477  2.540501
   H (  5)  6.433102  1.097659  2.133070  2.162491
   H (  6)  6.412670  1.098275  2.132777  2.161221  1.759863
   H (  7)  4.468483  2.248311  1.085766  3.090450  3.093653  2.513444
   H (  8)  4.461377  2.250515  1.085577  3.125850  2.499788  3.085170
   H (  9)  8.278475  2.191414  3.482651  1.095744  2.493292  2.490555
   H ( 10)  7.399148  2.192810  2.814705  1.094755  3.080504  2.524517
   H ( 11)  7.420181  2.193008  2.817180  1.094739  2.525632  3.079890
             H (  7)   H (  8)   H (  9)   H ( 10)
   H (  8)  1.854472
   H (  9)  4.055104  4.083548
   H ( 10)  2.979251  3.528076  1.772574
   H ( 11)  3.487214  3.029701  1.772743  1.768104
 
 A cutoff of  1.0D-14 yielded    708 shell pairs
 There are      5149 function pairs
 
 -------------------------------------------------------
 OpenMP Integral Computing Module                       
 Release: version 1.0, May 2013, Q-Chem Inc. Pittsburgh 
 -------------------------------------------------------
 Integral Job Info:
 Integral job number is                      11
 Integral operator is                         1
 short-range coefficients                     0
 long-range coefficients              100000000
 Omega coefficients                           0
 if combine SR and LR in K                    0
 Integral screening is                        0
 Integral computing path is                   2
 max size of driver memory is            800000
 size of driver memory is                593474
 size of scratch memory is             15267112
 max col of scratch BK array               1296
 max len of scratch array in speh3          155
 max len of scratch index in speh4           18
 max int batch size is                      520
 min int batch size is                       52
 fixed nKL is                                52
 max L of basis functions is                  2
 order of int derivative is                   0
 number of shells is                         41
 number of basis is                         115
 number of cartesian basis is               115
 number of contracted shell pairs           708
 number of primitive shell pairs           2694
 maxK2 (contraction) of shell pair           36
 max number of K2 of shell pair               1
 max number of CS2 of shell pair             59
 max number of PS2 of shell pair            198
 mem total for path MDJ                  514202
 -------------------------------------------------------
 Smallest overlap matrix eigenvalue = 7.27E-04

 Scale SEOQF with 1.000000e-01/1.000000e+00/1.000000e+00

 Standard Electronic Orientation quadrupole field applied
 Nucleus-field energy     =     0.0000000461 hartrees
 Guess from superposition of atomic densities
 Warning:  Energy on first SCF cycle will be non-variational
 SAD guess density has 59.972873 electrons

 -----------------------------------------------------------------------
  General SCF calculation program by
  Eric Jon Sundstrom, Paul Horn, Yuezhi Mao, Dmitri Zuev, Alec White,
  David Stuck, Shaama M.S., Shane Yost, Joonho Lee, David Small,
  Daniel Levine, Susi Lehtola, Hugh Burton, Evgeny Epifanovsky
 -----------------------------------------------------------------------
 Exchange:     0.2000 Hartree-Fock + 0.0800 Slater + 0.7200 B88
 Correlation:  0.1900 VWN1RPA + 0.8100 LYP
 Using SG-1 standard quadrature grid
 using 12 threads for integral computing
 -------------------------------------------------------
 OpenMP Integral computing Module                
 Release: version 1.0, May 2013, Q-Chem Inc. Pittsburgh 
 -------------------------------------------------------
 -------------------------------------------------------
 OpenMP BLAS3 based DFT computing Module                
 Release: version 1.0, May 2013, Q-Chem Inc. Pittsburgh 
 -------------------------------------------------------
 A unrestricted SCF calculation will be
 performed using DIIS
 SCF converges when DIIS error is below 1.0e-06
 Alpha HF Exchange    Energy = -10.71098084108603
 Beta HF Exchange     Energy = -10.71098084108603
 DFT Correlation      Energy =  -3.10410272751298
 DFT Exchange         Energy = -84.97278005565238
 One-Electron (alpha) Energy = -2019.81657891705481
 One-Electron (beta)  Energy = -2019.81657891705481
 Total Coulomb        Energy = 1300.45222732244065
 ---------------------------------------
  Cycle       Energy         DIIS error
 ---------------------------------------
    1   -2695.5008834488      1.64e-01  
 Alpha HF Exchange    Energy = -10.89571623716366
 Beta HF Exchange     Energy = -10.70115202655426
 DFT Correlation      Energy =  -3.13643995679920
 DFT Exchange         Energy = -85.89585947259705
 One-Electron (alpha) Energy = -2042.09094574004735
 One-Electron (beta)  Energy = -2008.11750317932911
 Total Coulomb        Energy = 1315.44192434579554
    2   -2692.2168007385      9.50e-03  
 Alpha HF Exchange    Energy = -10.79856140756499
 Beta HF Exchange     Energy = -10.61435174504346
 DFT Correlation      Energy =  -3.10161585063664
 DFT Exchange         Energy = -85.14540463157417
 One-Electron (alpha) Energy = -2034.63097401369419
 One-Electron (beta)  Energy = -2001.19601336953588
 Total Coulomb        Energy = 1300.08994206783018
    3   -2692.2180874220      4.12e-03  
 Alpha HF Exchange    Energy = -10.87278462793231
 Beta HF Exchange     Energy = -10.68035650170941
 DFT Correlation      Energy =  -3.12783043755108
 DFT Exchange         Energy = -85.71283767243106
 One-Electron (alpha) Energy = -2040.24936712824115
 One-Electron (beta)  Energy = -2006.21319609058514
 Total Coulomb        Energy = 1311.39956335774900
    4   -2692.2779175725      2.63e-03  
 Alpha HF Exchange    Energy = -10.84903600791456
 Beta HF Exchange     Energy = -10.65803071323307
 DFT Correlation      Energy =  -3.11834681623460
 DFT Exchange         Energy = -85.52446124210988
 One-Electron (alpha) Energy = -2038.59932838821305
 One-Electron (beta)  Energy = -2004.65044903000853
 Total Coulomb        Energy = 1307.90046691744737
    5   -2692.3202937520      3.12e-04  
 Alpha HF Exchange    Energy = -10.84693126737684
 Beta HF Exchange     Energy = -10.65661060399460
 DFT Correlation      Energy =  -3.11810073910156
 DFT Exchange         Energy = -85.51101899386018
 One-Electron (alpha) Energy = -2038.40321429695746
 One-Electron (beta)  Energy = -2004.48088963722967
 Total Coulomb        Energy = 1307.51713797634693
    6   -2692.3207360339      5.46e-05  
 Alpha HF Exchange    Energy = -10.84684104284233
 Beta HF Exchange     Energy = -10.65635882268627
 DFT Correlation      Energy =  -3.11797105500939
 DFT Exchange         Energy = -85.50954755215798
 One-Electron (alpha) Energy = -2038.39020397478157
 One-Electron (beta)  Energy = -2004.46164557535167
 Total Coulomb        Energy = 1307.48292060202607
    7   -2692.3207558926      1.61e-05  
 Alpha HF Exchange    Energy = -10.84691173433693
 Beta HF Exchange     Energy = -10.65642287996738
 DFT Correlation      Energy =  -3.11795218441268
 DFT Exchange         Energy = -85.51001736396714
 One-Electron (alpha) Energy = -2038.39985223901999
 One-Electron (beta)  Energy = -2004.46737715631070
 Total Coulomb        Energy = 1307.49888431344198
    8   -2692.3207577163      6.61e-06  
 Alpha HF Exchange    Energy = -10.84695769541893
 Beta HF Exchange     Energy = -10.65642634264598
 DFT Correlation      Energy =  -3.11796005412609
 DFT Exchange         Energy = -85.51021716904128
 One-Electron (alpha) Energy = -2038.40200370220077
 One-Electron (beta)  Energy = -2004.46702326149125
 Total Coulomb        Energy = 1307.50093856790045
    9   -2692.3207581288      1.72e-06  
 Alpha HF Exchange    Energy = -10.84695761313696
 Beta HF Exchange     Energy = -10.65641944517242
 DFT Correlation      Energy =  -3.11795495427209
 DFT Exchange         Energy = -85.51018428531526
 One-Electron (alpha) Energy = -2038.40161626102281
 One-Electron (beta)  Energy = -2004.46615391964087
 Total Coulomb        Energy = 1307.49963676323068
   10   -2692.3207581871      8.43e-07  Convergence criterion met
 ---------------------------------------
 SCF time:   CPU 25.03s  wall 2.00s 
<S^2> =          2.005217152
 Alpha HF Exchange    Energy = -10.84695761313696
 Beta HF Exchange     Energy = -10.65641944517242
 DFT Correlation      Energy =  -3.11795495427209
 DFT Exchange         Energy = -85.51018428531526
 One-Electron (alpha) Energy = -2038.40161626102281
 One-Electron (beta)  Energy = -2004.46615391964087
 Total Coulomb        Energy = 1307.49963676323068
 Nuclear repulsion Energy = 153.17889152822383
 SCF   energy in the final basis set =    -2692.3207581871
 Total energy in the final basis set =    -2692.3207581871
 
 --------------------------------------------------------------
 
                    Orbital Energies (a.u.)
 --------------------------------------------------------------
 
 Alpha MOs
 -- Occupied --
******* -62.557 -56.381 -56.373 -56.373 -10.185 -10.184 -10.176
 -8.744  -6.581  -6.558  -6.558  -2.671  -2.666  -2.666  -2.649
 -2.649  -0.796  -0.778  -0.671  -0.578  -0.460  -0.426  -0.391
 -0.377  -0.371  -0.348  -0.331  -0.322  -0.322  -0.198
 -- Virtual --
  0.105   0.135   0.144   0.158   0.169   0.180   0.180   0.221
  0.231   0.271   0.290   0.313   0.314   0.516   0.534   0.534
  0.535   0.545   0.545   0.549   0.581   0.582   0.596   0.598
  0.659   0.696   0.787   0.813   0.859   0.878   0.883   0.911
  0.938   0.961   0.999   1.214   1.308   1.429   1.478   1.529
  1.601   1.678   1.683   1.823   1.874   1.955   1.975   2.002
  2.053   2.071   2.122   2.125   2.226   2.260   2.291   2.371
  2.438   2.452   2.521   2.575   2.677   2.711   2.743   2.804
  2.858   2.883   2.921   3.185   3.258   3.358   3.379   3.465
  3.480   3.555   4.240   4.431   4.606   4.649   4.657   4.657
  4.682   4.682   6.206  90.123
 
 Beta MOs
 -- Occupied --
******* -62.555 -56.375 -56.372 -56.372 -10.185 -10.174 -10.171
 -8.740  -6.570  -6.557  -6.556  -2.663  -2.660  -2.660  -2.648
 -2.648  -0.767  -0.753  -0.653  -0.564  -0.456  -0.420  -0.386
 -0.365  -0.342  -0.329  -0.308  -0.308
 -- Virtual --
 -0.235  -0.039   0.109   0.146   0.148   0.159   0.176   0.181
  0.187   0.225   0.236   0.280   0.316   0.317   0.322   0.520
  0.536   0.551   0.567   0.589   0.590   0.591   0.591   0.596
  0.599   0.636   0.670   0.710   0.791   0.820   0.862   0.880
  0.886   0.919   0.943   0.973   1.002   1.225   1.318   1.458
  1.483   1.545   1.622   1.683   1.696   1.832   1.879   1.959
  2.001   2.042   2.053   2.072   2.124   2.131   2.228   2.271
  2.292   2.377   2.443   2.464   2.530   2.600   2.683   2.713
  2.747   2.807   2.860   2.885   2.925   3.186   3.262   3.363
  3.381   3.468   3.486   3.558   4.259   4.447   4.608   4.668
  4.671   4.671   4.685   4.685   6.222  90.130
 --------------------------------------------------------------
 
          Ground-State Mulliken Net Atomic Charges

     Atom                 Charge (a.u.)    Spin (a.u.)
  --------------------------------------------------------
      1 Br                   -0.000368       1.000230
      2 C                    -0.189350      -0.073689
      3 C                    -0.219406       1.079849
      4 C                    -0.307389       0.049920
      5 H                     0.102067       0.011319
      6 H                     0.102746       0.014666
      7 H                     0.100171      -0.047414
      8 H                     0.100533      -0.047527
      9 H                     0.100746       0.013755
     10 H                     0.105006      -0.000682
     11 H                     0.105243      -0.000428
  --------------------------------------------------------
  Sum of atomic charges =     0.000000
  Sum of spin   charges =     2.000000

 -----------------------------------------------------------------
                    Cartesian Multipole Moments
 -----------------------------------------------------------------
    Charge (ESU x 10^10)
                 0.0000
    Dipole Moment (Debye)
         X      -0.2587      Y      -0.0018      Z       0.0018
       Tot       0.2587
    Quadrupole Moments (Debye-Ang)
        XX     -38.8934     XY       0.7150     YY     -38.1786
        XZ      -0.0578     YZ      -0.0746     ZZ     -38.8360
    Octopole Moments (Debye-Ang^2)
       XXX    -194.8153    XXY      26.5487    XYY     -63.1496
       YYY      35.9337    XXZ      -0.4931    XYZ      -0.3820
       YYZ       0.1846    XZZ     -69.7725    YZZ      12.5772
       ZZZ       0.3711
    Hexadecapole Moments (Debye-Ang^3)
      XXXX   -3002.9730   XXXY     284.4295   XXYY    -522.0508
      XYYY     181.4760   YYYY    -132.7592   XXXZ      -2.9092
      XXYZ      -2.0758   XYYZ       1.1062   YYYZ      -0.9185
      XXZZ    -535.4420   XYZZ      66.2283   YYZZ     -32.1425
      XZZZ       2.0545   YZZZ      -0.7045   ZZZZ     -64.4417
 -----------------------------------------------------------------
 Calculating analytic gradient of the SCF energy
 Gradient of SCF Energy
            1           2           3           4           5           6
    1  -0.0001559  -0.0000623   0.0003288   0.0000129  -0.0000015  -0.0000113
    2   0.0000878  -0.0000498   0.0003579  -0.0000190   0.0000004  -0.0000235
    3  -0.0000121  -0.0000102  -0.0000056   0.0000094  -0.0000122  -0.0000180
            7           8           9          10          11
    1  -0.0000536  -0.0000663  -0.0000071   0.0000061   0.0000102
    2  -0.0001505  -0.0001415  -0.0000279  -0.0000282  -0.0000057
    3   0.0000465  -0.0000324   0.0000015   0.0000160   0.0000171
 Max gradient component =       3.579E-04
 RMS gradient           =       1.003E-04
 Gradient time:  CPU 8.90 s  wall 0.78 s
 Geometry Optimization Parameters
   NAtoms,    NIC,     NZ,  NCons,   NDum,   NFix, NCnnct, MaxDiis
       11      85       0       1       0       0       0       0


** CONSTRAINED OPTIMIZATION IN DELOCALIZED INTERNAL COORDINATES **
   Searching for a Minimum

   Optimization Cycle:   1

                       Coordinates (Angstroms)
     ATOM                X               Y               Z
      1  Br        4.9532210000   -0.7004200000   -0.0100220000
      2  C        -1.0802200000    0.5854010000    0.0147070000
      3  C         0.1776450000   -0.2175010000    0.0157770000
      4  C        -2.3618520000   -0.2812820000   -0.0163780000
      5  H        -1.1157630000    1.2272860000    0.9044120000
      6  H        -1.0950360000    1.2557940000   -0.8550980000
      7  H         0.5770810000   -0.6199440000   -0.9101700000
      8  H         0.5963520000   -0.5937120000    0.9440160000
      9  H        -3.2585290000    0.3484950000   -0.0190530000
     10  H        -2.3878340000   -0.9118650000   -0.9109050000
     11  H        -2.4122700000   -0.9396520000    0.8568120000
   Point Group: c1    Number of degrees of freedom:    27


   Energy is  -2692.320758187

              Constraints and their Current Values
                                        Value     Constraint
   Distance(Angs):        1   3             4.800000     4.700000

 Attempting to Generate Delocalized Internal Coordinates

   Using Lagrange Multiplier Algorithm


 28 Hessian modes will be used to form the next step
  Hessian Eigenvalues:
    -0.997986    0.045000    0.045000    0.046861    0.048588    0.067817
     0.074537    0.078133    0.082964    0.082994    0.085691    0.086652
     0.104529    0.132713    0.160000    0.160000    0.160000    0.219524
     0.278667    0.330307    0.332017    0.336039    0.338736    0.339424
     0.341571    0.342689    0.342707    1.002018

 Minimum Search - Taking P-RFO Step
 Searching for Lamda that Maximizes Along the Constraint modes Only
 Value Taken    Lamda =   0.01764893
 Searching for Lamda that Minimizes Along All other modes
 Value Taken    Lamda =  -0.01744669
 Step Taken.  Stepsize is  0.185726

                             Maximum     Tolerance    Cnvgd?
         Gradient            0.188973       0.000300      NO
         Displacement        0.185714       0.001200      NO
         Energy change     *********       0.000001      NO


 New Cartesian Coordinates Obtained by Inverse Iteration

 Displacement from previous Coordinates is:  0.206495
 ----------------------------------------------------------------
             Standard Nuclear Orientation (Angstroms)
    I     Atom           X                Y                Z
 ----------------------------------------------------------------
    1      Br      4.8730731085    -0.6651826576    -0.0101050406
    2      C      -1.0606260037     0.5778912852     0.0146476244
    3      C       0.1911955455    -0.2344137101     0.0158692768
    4      C      -2.3487555978    -0.2791234286    -0.0163858711
    5      H      -1.0914242093     1.2201565383     0.9042587625
    6      H      -1.0704114884     1.2482865913    -0.8552322735
    7      H       0.5522846689    -0.6262337519    -0.9145033089
    8      H       0.5717318646    -0.5995966349     0.9486810705
    9      H      -3.2406471920     0.3574088702    -0.0191636622
   10      H      -2.3794600408    -0.9095950184    -0.9108429733
   11      H      -2.4041656555    -0.9369980835     0.8568743953
 ----------------------------------------------------------------
 Nuclear Repulsion Energy =   154.6212338360 hartrees
 There are       31 alpha and       29 beta electrons

                       Distance Matrix (Angstroms)
             Br(  1)   C (  2)   C (  3)   C (  4)   H (  5)   H (  6)
   C (  2)  6.062560
   C (  3)  4.701725  1.492279
   C (  4)  7.232143  1.547487  2.540549
   H (  5)  6.321850  1.097662  2.133102  2.162478
   H (  6)  6.300842  1.098279  2.132808  2.161205  1.759841
   H (  7)  4.414597  2.216917  1.072148  3.056654  3.069011  2.480017
   H (  8)  4.407393  2.218894  1.071590  3.092459  2.465677  3.060296
   H (  9)  8.177911  2.191403  3.482675  1.095743  2.493231  2.490501
   H ( 10)  7.312339  2.192823  2.814771  1.094756  3.080499  2.524511
   H ( 11)  7.333740  2.193020  2.817235  1.094739  2.525639  3.079883
             H (  7)   H (  8)   H (  9)   H ( 10)
   H (  8)  1.863476
   H (  9)  4.019393  4.048063
   H ( 10)  2.945409  3.501923  1.772578
   H ( 11)  3.460484  2.996370  1.772747  1.768102
 
 Applying Cartesian multipole field
    Component          Value
    ---------          -----
     (2,0,0)        1.00000E-11
     (0,2,0)        2.00000E-10
     (0,0,2)       -3.00000E-10
 Nucleus-field energy     =     0.0000000439 hartrees
 Requested basis set is 6-31G(d,p)
 There are 41 shells and 115 basis functions
 A cutoff of  1.0D-14 yielded    714 shell pairs
 There are      5199 function pairs
 Smallest overlap matrix eigenvalue = 7.27E-04
 Guess from superposition of atomic densities
 Warning:  Energy on first SCF cycle will be non-variational
 SAD guess density has 59.972873 electrons

 -----------------------------------------------------------------------
  General SCF calculation program by
  Eric Jon Sundstrom, Paul Horn, Yuezhi Mao, Dmitri Zuev, Alec White,
  David Stuck, Shaama M.S., Shane Yost, Joonho Lee, David Small,
  Daniel Levine, Susi Lehtola, Hugh Burton, Evgeny Epifanovsky
 -----------------------------------------------------------------------
 Exchange:     0.2000 Hartree-Fock + 0.0800 Slater + 0.7200 B88
 Correlation:  0.1900 VWN1RPA + 0.8100 LYP
 Using SG-1 standard quadrature grid
 using 12 threads for integral computing
 -------------------------------------------------------
 OpenMP Integral computing Module                
 Release: version 1.0, May 2013, Q-Chem Inc. Pittsburgh 
 -------------------------------------------------------
 -------------------------------------------------------
 OpenMP BLAS3 based DFT computing Module                
 Release: version 1.0, May 2013, Q-Chem Inc. Pittsburgh 
 -------------------------------------------------------
 A unrestricted SCF calculation will be
 performed using DIIS
 SCF converges when DIIS error is below 1.0e-06
 Alpha HF Exchange    Energy = -10.71272936195171
 Beta HF Exchange     Energy = -10.71272936195171
 DFT Correlation      Energy =  -3.10454943332094
 DFT Exchange         Energy = -84.97649474618223
 One-Electron (alpha) Energy = -2021.24344895900504
 One-Electron (beta)  Energy = -2021.24344895900504
 Total Coulomb        Energy = 1301.85774824787154
 ---------------------------------------
  Cycle       Energy         DIIS error
 ---------------------------------------
    1   -2695.5144186937      1.64e-01  
 Alpha HF Exchange    Energy = -10.89724780647451
 Beta HF Exchange     Energy = -10.70241798565316
 DFT Correlation      Energy =  -3.13705858548891
 DFT Exchange         Energy = -85.90609849256276
 One-Electron (alpha) Energy = -2043.61077416393596
 One-Electron (beta)  Energy = -2009.51054736798801
 Total Coulomb        Energy = 1316.92767639031649
    2   -2692.2152341319      9.51e-03  
 Alpha HF Exchange    Energy = -10.79949899556919
 Beta HF Exchange     Energy = -10.61530219596929
 DFT Correlation      Energy =  -3.10214905131372
 DFT Exchange         Energy = -85.15210456135080
 One-Electron (alpha) Energy = -2036.12864241714669
 One-Electron (beta)  Energy = -2002.57327538957725
 Total Coulomb        Energy = 1301.53239149095202
    3   -2692.2173472401      4.12e-03  
 Alpha HF Exchange    Energy = -10.87384551481601
 Beta HF Exchange     Energy = -10.68139304443120
 DFT Correlation      Energy =  -3.12830798845474
 DFT Exchange         Energy = -85.72018828074324
 One-Electron (alpha) Energy = -2041.74581837391588
 One-Electron (beta)  Energy = -2007.58785332793127
 Total Coulomb        Energy = 1312.83832705848954
    4   -2692.2778455919      2.62e-03  
 Alpha HF Exchange    Energy = -10.85017648911674
 Beta HF Exchange     Energy = -10.65910486038323
 DFT Correlation      Energy =  -3.11889935358650
 DFT Exchange         Energy = -85.53236800382831
 One-Electron (alpha) Energy = -2040.10182171960059
 One-Electron (beta)  Energy = -2006.03033933760275
 Total Coulomb        Energy = 1309.35177941331722
    5   -2692.3196964709      3.18e-04  
 Alpha HF Exchange    Energy = -10.84806751632100
 Beta HF Exchange     Energy = -10.65772124624159
 DFT Correlation      Energy =  -3.11864959234924
 DFT Exchange         Energy = -85.51903652781786
 One-Electron (alpha) Energy = -2039.90783652658683
 One-Electron (beta)  Energy = -2005.86345449876421
 Total Coulomb        Energy = 1308.97336113591928
    6   -2692.3201708923      5.45e-05  
 Alpha HF Exchange    Energy = -10.84796242995374
 Beta HF Exchange     Energy = -10.65746112190784
 DFT Correlation      Energy =  -3.11851920274610
 DFT Exchange         Energy = -85.51747697252158
 One-Electron (alpha) Energy = -2039.89349764713643
 One-Electron (beta)  Energy = -2005.84327220048522
 Total Coulomb        Energy = 1308.93676482007049
    7   -2692.3201908748      1.59e-05  
 Alpha HF Exchange    Energy = -10.84803514709032
 Beta HF Exchange     Energy = -10.65752746122089
 DFT Correlation      Energy =  -3.11850154367683
 DFT Exchange         Energy = -85.51796430942954
 One-Electron (alpha) Energy = -2039.90328273568980
 One-Electron (beta)  Energy = -2005.84921502298243
 Total Coulomb        Energy = 1308.95309970195467
    8   -2692.3201926383      6.45e-06  
 Alpha HF Exchange    Energy = -10.84807779458527
 Beta HF Exchange     Energy = -10.65753077114396
 DFT Correlation      Energy =  -3.11850917399345
 DFT Exchange         Energy = -85.51815047545145
 One-Electron (alpha) Energy = -2039.90522828775806
 One-Electron (beta)  Energy = -2005.84881315211442
 Total Coulomb        Energy = 1308.95488273615797
    9   -2692.3201930390      1.71e-06  
 Alpha HF Exchange    Energy = -10.84807779802356
 Beta HF Exchange     Energy = -10.65752463877678
 DFT Correlation      Energy =  -3.11850438664104
 DFT Exchange         Energy = -85.51812115119347
 One-Electron (alpha) Energy = -2039.90486539171229
 One-Electron (beta)  Energy = -2005.84800624476293
 Total Coulomb        Energy = 1308.95367261554225
   10   -2692.3201931157      9.04e-07  Convergence criterion met
 ---------------------------------------
 SCF time:   CPU 24.40s  wall 2.00s 
<S^2> =          2.005104419
 Alpha HF Exchange    Energy = -10.84807779802356
 Beta HF Exchange     Energy = -10.65752463877678
 DFT Correlation      Energy =  -3.11850438664104
 DFT Exchange         Energy = -85.51812115119347
 One-Electron (alpha) Energy = -2039.90486539171229
 One-Electron (beta)  Energy = -2005.84800624476293
 Total Coulomb        Energy = 1308.95367261554225
 Nuclear repulsion Energy = 154.62123387985540
 SCF   energy in the final basis set =    -2692.3201931157
 Total energy in the final basis set =    -2692.3201931157
 
 --------------------------------------------------------------
 
                    Orbital Energies (a.u.)
 --------------------------------------------------------------
 
 Alpha MOs
 -- Occupied --
******* -62.556 -56.381 -56.373 -56.373 -10.183 -10.182 -10.176
 -8.744  -6.580  -6.558  -6.558  -2.671  -2.666  -2.666  -2.649
 -2.649  -0.796  -0.778  -0.672  -0.578  -0.463  -0.424  -0.395
 -0.376  -0.371  -0.346  -0.331  -0.322  -0.322  -0.198
 -- Virtual --
  0.104   0.138   0.146   0.158   0.169   0.181   0.182   0.221
  0.232   0.269   0.291   0.313   0.315   0.517   0.530   0.534
  0.537   0.545   0.545   0.550   0.582   0.582   0.597   0.600
  0.661   0.697   0.785   0.812   0.861   0.883   0.884   0.916
  0.940   0.962   1.006   1.219   1.309   1.420   1.479   1.543
  1.603   1.678   1.684   1.824   1.884   1.941   1.980   2.015
  2.053   2.071   2.116   2.125   2.236   2.259   2.297   2.372
  2.449   2.453   2.518   2.602   2.680   2.733   2.744   2.804
  2.846   2.885   2.918   3.185   3.272   3.378   3.405   3.473
  3.490   3.554   4.244   4.433   4.605   4.649   4.657   4.657
  4.682   4.682   6.207  90.124
 
 Beta MOs
 -- Occupied --
******* -62.555 -56.375 -56.372 -56.372 -10.184 -10.174 -10.168
 -8.740  -6.570  -6.556  -6.556  -2.663  -2.660  -2.660  -2.648
 -2.648  -0.768  -0.753  -0.654  -0.564  -0.458  -0.418  -0.390
 -0.364  -0.340  -0.329  -0.308  -0.307
 -- Virtual --
 -0.235  -0.039   0.108   0.147   0.150   0.159   0.175   0.183
  0.189   0.226   0.237   0.277   0.316   0.318   0.324   0.521
  0.538   0.548   0.566   0.589   0.590   0.591   0.591   0.596
  0.602   0.638   0.671   0.712   0.789   0.820   0.864   0.885
  0.886   0.922   0.945   0.975   1.009   1.229   1.319   1.451
  1.483   1.557   1.624   1.685   1.696   1.834   1.889   1.945
  2.004   2.053   2.055   2.072   2.116   2.133   2.238   2.271
  2.298   2.379   2.453   2.465   2.527   2.627   2.686   2.735
  2.748   2.807   2.848   2.887   2.922   3.187   3.275   3.380
  3.410   3.476   3.496   3.557   4.262   4.450   4.607   4.668
  4.671   4.672   4.685   4.685   6.223  90.130
 --------------------------------------------------------------
 
          Ground-State Mulliken Net Atomic Charges

     Atom                 Charge (a.u.)    Spin (a.u.)
  --------------------------------------------------------
      1 Br                   -0.000508       1.000353
      2 C                    -0.191429      -0.073149
      3 C                    -0.216713       1.077873
      4 C                    -0.307029       0.050101
      5 H                     0.100567       0.011237
      6 H                     0.101308       0.014594
      7 H                     0.101763      -0.046801
      8 H                     0.102171      -0.046898
      9 H                     0.100906       0.013798
     10 H                     0.104351      -0.000681
     11 H                     0.104613      -0.000428
  --------------------------------------------------------
  Sum of atomic charges =    -0.000000
  Sum of spin   charges =     2.000000

 -----------------------------------------------------------------
                    Cartesian Multipole Moments
 -----------------------------------------------------------------
    Charge (ESU x 10^10)
                 0.0000
    Dipole Moment (Debye)
         X      -0.2601      Y      -0.0145      Z       0.0022
       Tot       0.2605
    Quadrupole Moments (Debye-Ang)
        XX     -39.1338     XY       0.7349     YY     -38.0633
        XZ      -0.0507     YZ      -0.0742     ZZ     -38.7476
    Octopole Moments (Debye-Ang^2)
       XXX    -193.1912    XXY      25.5217    XYY     -61.2354
       YYY      34.1886    XXZ      -0.4210    XYZ      -0.3794
       YYZ       0.1777    XZZ     -68.4889    YZZ      11.9746
       ZZZ       0.3818
    Hexadecapole Moments (Debye-Ang^3)
      XXXX   -2933.3448   XXXY     267.1484   XXYY    -502.2571
      XYYY     168.1288   YYYY    -127.0764   XXXZ      -2.3195
      XXYZ      -2.0650   XYYZ       1.0607   YYYZ      -0.8782
      XXZZ    -519.9416   XYZZ      61.9044   YYZZ     -31.1574
      XZZZ       2.0377   YZZZ      -0.6827   ZZZZ     -64.2252
 -----------------------------------------------------------------
 Calculating analytic gradient of the SCF energy
 Gradient of SCF Energy
            1           2           3           4           5           6
    1  -0.0001723   0.0006082   0.0119603  -0.0000756   0.0002408   0.0002275
    2   0.0000772  -0.0014629  -0.0092761  -0.0001341  -0.0001244  -0.0001403
    3  -0.0000163  -0.0000195   0.0002670   0.0000021  -0.0000355   0.0000128
            7           8           9          10          11
    1  -0.0063369  -0.0065609   0.0000198   0.0000461   0.0000431
    2   0.0055107   0.0054600   0.0000194   0.0000257   0.0000448
    3   0.0058165  -0.0060687   0.0000027   0.0000454  -0.0000065
 Max gradient component =       1.196E-02
 RMS gradient           =       3.676E-03
 Gradient time:  CPU 8.68 s  wall 0.75 s
 Geometry Optimization Parameters
   NAtoms,    NIC,     NZ,  NCons,   NDum,   NFix, NCnnct, MaxDiis
       11      85       0       1       0       0       0       0

 Cartesian Hessian Update
 Hessian Updated using BFGS Update


** CONSTRAINED OPTIMIZATION IN DELOCALIZED INTERNAL COORDINATES **
   Searching for a Minimum

   Optimization Cycle:   2

                       Coordinates (Angstroms)
     ATOM                X               Y               Z
      1  Br        4.8730731085   -0.6651826576   -0.0101050406
      2  C        -1.0606260037    0.5778912852    0.0146476244
      3  C         0.1911955455   -0.2344137101    0.0158692768
      4  C        -2.3487555978   -0.2791234286   -0.0163858711
      5  H        -1.0914242093    1.2201565383    0.9042587625
      6  H        -1.0704114884    1.2482865913   -0.8552322735
      7  H         0.5522846689   -0.6262337519   -0.9145033089
      8  H         0.5717318646   -0.5995966349    0.9486810705
      9  H        -3.2406471920    0.3574088702   -0.0191636622
     10  H        -2.3794600408   -0.9095950184   -0.9108429733
     11  H        -2.4041656555   -0.9369980835    0.8568743953
   Point Group: c1    Number of degrees of freedom:    27


   Energy is  -2692.320193116

              Constraints and their Current Values
                                        Value     Constraint
   Distance(Angs):        1   3             4.701725     4.700000
 Hessian Updated using BFGS Update

   Using Lagrange Multiplier Algorithm


 27 Hessian modes will be used to form the next step
  Hessian Eigenvalues:
    -0.986475    0.045000    0.045000    0.046800    0.048588    0.067817
     0.074537    0.078133    0.082964    0.082994    0.086240    0.099313
     0.104858    0.132713    0.160000    0.160008    0.219582    0.278667
     0.330314    0.332105    0.338736    0.339423    0.341571    0.342689
     0.342706    0.487360    1.020382

 Minimum Search - Taking P-RFO Step
 Searching for Lamda that Maximizes Along the Constraint modes Only
 Value Taken    Lamda =   0.00002920
 Searching for Lamda that Minimizes Along All other modes
 Value Taken    Lamda =  -0.00044412
 Step Taken.  Stepsize is  0.040388

                             Maximum     Tolerance    Cnvgd?
         Gradient            0.007901       0.000300      NO
         Displacement        0.033849       0.001200      NO
         Energy change      0.000565       0.000001      NO


 New Cartesian Coordinates Obtained by Inverse Iteration

 Displacement from previous Coordinates is:  0.032065
 ----------------------------------------------------------------
             Standard Nuclear Orientation (Angstroms)
    I     Atom           X                Y                Z
 ----------------------------------------------------------------
    1      Br      4.8710322280    -0.6619413219    -0.0100854200
    2      C      -1.0621056771     0.5793070643     0.0146193984
    3      C       0.1905328591    -0.2350268825     0.0158526792
    4      C      -2.3503484583    -0.2776200158    -0.0164010232
    5      H      -1.0937040075     1.2218026221     0.9041547077
    6      H      -1.0726435227     1.2498876815    -0.8552309691
    7      H       0.5599307696    -0.6327507270    -0.9182255714
    8      H       0.5795843934    -0.6060426368     0.9525679814
    9      H      -3.2423182375     0.3587897692    -0.0191765687
   10      H      -2.3812599173    -0.9082251174    -0.9108221632
   11      H      -2.4059054298    -0.9355804357     0.8568449490
 ----------------------------------------------------------------
 Nuclear Repulsion Energy =   154.5518935307 hartrees
 There are       31 alpha and       29 beta electrons

                       Distance Matrix (Angstroms)
             Br(  1)   C (  2)   C (  3)   C (  4)   H (  5)   H (  6)
   C (  2)  6.061636
   C (  3)  4.700000  1.494070
   C (  4)  7.231603  1.547532  2.541443
   H (  5)  6.321582  1.097758  2.135579  2.162139
   H (  6)  6.300527  1.098376  2.135269  2.160890  1.759736
   H (  7)  4.405811  2.229414  1.080343  3.067431  3.081387  2.492708
   H (  8)  4.398449  2.231580  1.080023  3.103429  2.478559  3.072860
   H (  9)  8.177312  2.191597  3.484008  1.095735  2.492765  2.490087
   H ( 10)  7.312163  2.193026  2.815322  1.094809  3.080415  2.524484
   H ( 11)  7.333503  2.193177  2.817718  1.094786  2.525552  3.079783
             H (  7)   H (  8)   H (  9)   H ( 10)
   H (  8)  1.871087
   H (  9)  4.030948  4.059819
   H ( 10)  2.954072  3.511429  1.772507
   H ( 11)  3.469692  3.005147  1.772680  1.768051
 
 Applying Cartesian multipole field
    Component          Value
    ---------          -----
     (2,0,0)        1.00000E-11
     (0,2,0)        2.00000E-10
     (0,0,2)       -3.00000E-10
 Nucleus-field energy     =     0.0000000438 hartrees
 Requested basis set is 6-31G(d,p)
 There are 41 shells and 115 basis functions
 A cutoff of  1.0D-14 yielded    714 shell pairs
 There are      5199 function pairs
 Smallest overlap matrix eigenvalue = 7.27E-04
 Guess from superposition of atomic densities
 Warning:  Energy on first SCF cycle will be non-variational
 SAD guess density has 59.972873 electrons

 -----------------------------------------------------------------------
  General SCF calculation program by
  Eric Jon Sundstrom, Paul Horn, Yuezhi Mao, Dmitri Zuev, Alec White,
  David Stuck, Shaama M.S., Shane Yost, Joonho Lee, David Small,
  Daniel Levine, Susi Lehtola, Hugh Burton, Evgeny Epifanovsky
 -----------------------------------------------------------------------
 Exchange:     0.2000 Hartree-Fock + 0.0800 Slater + 0.7200 B88
 Correlation:  0.1900 VWN1RPA + 0.8100 LYP
 Using SG-1 standard quadrature grid
 using 12 threads for integral computing
 -------------------------------------------------------
 OpenMP Integral computing Module                
 Release: version 1.0, May 2013, Q-Chem Inc. Pittsburgh 
 -------------------------------------------------------
 -------------------------------------------------------
 OpenMP BLAS3 based DFT computing Module                
 Release: version 1.0, May 2013, Q-Chem Inc. Pittsburgh 
 -------------------------------------------------------
 A unrestricted SCF calculation will be
 performed using DIIS
 SCF converges when DIIS error is below 1.0e-06
 Alpha HF Exchange    Energy = -10.71149497368833
 Beta HF Exchange     Energy = -10.71149497368833
 DFT Correlation      Energy =  -3.10427687594487
 DFT Exchange         Energy = -84.97382850414509
 One-Electron (alpha) Energy = -2021.18421414268869
 One-Electron (beta)  Energy = -2021.18421414268869
 Total Coulomb        Energy = 1301.81170897228026
 ---------------------------------------
  Cycle       Energy         DIIS error
 ---------------------------------------
    1   -2695.5059210661      1.64e-01  
 Alpha HF Exchange    Energy = -10.89623492901351
 Beta HF Exchange     Energy = -10.70158349922570
 DFT Correlation      Energy =  -3.13665430547110
 DFT Exchange         Energy = -85.89929574693562
 One-Electron (alpha) Energy = -2043.53451208616661
 One-Electron (beta)  Energy = -2009.44253104195172
 Total Coulomb        Energy = 1316.84280080102417
    2   -2692.2161172333      9.51e-03  
 Alpha HF Exchange    Energy = -10.79886036461024
 Beta HF Exchange     Energy = -10.61463861344081
 DFT Correlation      Energy =  -3.10181267445883
 DFT Exchange         Energy = -85.14744205616353
 One-Electron (alpha) Energy = -2036.06609708249766
 One-Electron (beta)  Energy = -2002.51267070096992
 Total Coulomb        Energy = 1301.47187798591767
    3   -2692.2177499317      4.12e-03  
 Alpha HF Exchange    Energy = -10.87311371298020
 Beta HF Exchange     Energy = -10.68069702912651
 DFT Correlation      Energy =  -3.12798249199598
 DFT Exchange         Energy = -85.71510748345371
 One-Electron (alpha) Energy = -2041.68199330378548
 One-Electron (beta)  Energy = -2007.52800102593596
 Total Coulomb        Energy = 1312.77713523538864
    4   -2692.2778662374      2.63e-03  
 Alpha HF Exchange    Energy = -10.84942269204898
 Beta HF Exchange     Energy = -10.65838372504666
 DFT Correlation      Energy =  -3.11854282609857
 DFT Exchange         Energy = -85.52705776186068
 One-Electron (alpha) Energy = -2040.03658713074810
 One-Electron (beta)  Energy = -2005.96847756588409
 Total Coulomb        Energy = 1309.28655896486566
    5   -2692.3200191623      3.15e-04  
 Alpha HF Exchange    Energy = -10.84730727958478
 Beta HF Exchange     Energy = -10.65697748424977
 DFT Correlation      Energy =  -3.11829167066120
 DFT Exchange         Energy = -85.51361622359511
 One-Electron (alpha) Energy = -2039.84085955450769
 One-Electron (beta)  Energy = -2005.79961475240179
 Total Coulomb        Energy = 1308.90429367648835
    6   -2692.3204797140      5.47e-05  
 Alpha HF Exchange    Energy = -10.84721057247599
 Beta HF Exchange     Energy = -10.65672118024379
 DFT Correlation      Energy =  -3.11816210855386
 DFT Exchange         Energy = -85.51210416738945
 One-Electron (alpha) Energy = -2039.82715292998523
 One-Electron (beta)  Energy = -2005.77981579730363
 Total Coulomb        Energy = 1308.86877342441562
    7   -2692.3204997571      1.61e-05  
 Alpha HF Exchange    Energy = -10.84728202736492
 Beta HF Exchange     Energy = -10.65678625085793
 DFT Correlation      Energy =  -3.11814346332958
 DFT Exchange         Energy = -85.51258065679572
 One-Electron (alpha) Energy = -2039.83688757077016
 One-Electron (beta)  Energy = -2005.78565025319017
 Total Coulomb        Energy = 1308.88493507881253
    8   -2692.3205015690      6.52e-06  
 Alpha HF Exchange    Energy = -10.84732674262282
 Beta HF Exchange     Energy = -10.65678983886656
 DFT Correlation      Energy =  -3.11815126507577
 DFT Exchange         Energy = -85.51277606122719
 One-Electron (alpha) Energy = -2039.83897088467893
 One-Electron (beta)  Energy = -2005.78528535673695
 Total Coulomb        Energy = 1308.88690460332418
    9   -2692.3205019714      1.71e-06  
 Alpha HF Exchange    Energy = -10.84732672212806
 Beta HF Exchange     Energy = -10.65678330933240
 DFT Correlation      Energy =  -3.11814628395575
 DFT Exchange         Energy = -85.51274493461702
 One-Electron (alpha) Energy = -2039.83859769465744
 One-Electron (beta)  Energy = -2005.78444654930308
 Total Coulomb        Energy = 1308.88564988743337
   10   -2692.3205020321      8.46e-07  Convergence criterion met
 ---------------------------------------
 SCF time:   CPU 24.66s  wall 2.00s 
<S^2> =          2.005167500
 Alpha HF Exchange    Energy = -10.84732672212806
 Beta HF Exchange     Energy = -10.65678330933240
 DFT Correlation      Energy =  -3.11814628395575
 DFT Exchange         Energy = -85.51274493461702
 One-Electron (alpha) Energy = -2039.83859769465744
 One-Electron (beta)  Energy = -2005.78444654930308
 Total Coulomb        Energy = 1308.88564988743337
 Nuclear repulsion Energy = 154.55189357447915
 SCF   energy in the final basis set =    -2692.3205020321
 Total energy in the final basis set =    -2692.3205020321
 
 --------------------------------------------------------------
 
                    Orbital Energies (a.u.)
 --------------------------------------------------------------
 
 Alpha MOs
 -- Occupied --
******* -62.556 -56.381 -56.373 -56.373 -10.184 -10.183 -10.176
 -8.744  -6.580  -6.558  -6.558  -2.671  -2.666  -2.666  -2.649
 -2.649  -0.796  -0.778  -0.672  -0.577  -0.462  -0.424  -0.393
 -0.376  -0.371  -0.346  -0.331  -0.322  -0.322  -0.198
 -- Virtual --
  0.104   0.136   0.145   0.158   0.169   0.181   0.182   0.220
  0.232   0.269   0.291   0.313   0.315   0.517   0.531   0.534
  0.537   0.545   0.545   0.550   0.582   0.582   0.597   0.600
  0.660   0.697   0.785   0.812   0.860   0.881   0.883   0.913
  0.938   0.961   1.005   1.218   1.309   1.422   1.478   1.539
  1.603   1.678   1.684   1.824   1.881   1.940   1.977   2.010
  2.053   2.071   2.117   2.125   2.234   2.259   2.295   2.370
  2.444   2.452   2.517   2.591   2.679   2.723   2.743   2.800
  2.844   2.884   2.917   3.185   3.266   3.376   3.387   3.469
  3.479   3.552   4.242   4.432   4.605   4.649   4.657   4.657
  4.682   4.682   6.207  90.124
 
 Beta MOs
 -- Occupied --
******* -62.555 -56.375 -56.372 -56.372 -10.184 -10.174 -10.170
 -8.740  -6.570  -6.556  -6.556  -2.663  -2.660  -2.660  -2.648
 -2.648  -0.767  -0.753  -0.653  -0.564  -0.457  -0.419  -0.388
 -0.364  -0.341  -0.329  -0.308  -0.307
 -- Virtual --
 -0.235  -0.039   0.108   0.147   0.149   0.159   0.175   0.182
  0.188   0.225   0.237   0.277   0.316   0.318   0.323   0.522
  0.538   0.549   0.566   0.589   0.590   0.591   0.591   0.596
  0.601   0.638   0.671   0.711   0.789   0.819   0.863   0.883
  0.886   0.920   0.943   0.973   1.008   1.228   1.319   1.452
  1.483   1.554   1.624   1.684   1.696   1.833   1.885   1.944
  2.003   2.048   2.054   2.072   2.117   2.133   2.235   2.270
  2.296   2.377   2.448   2.464   2.525   2.615   2.685   2.725
  2.747   2.802   2.846   2.886   2.920   3.186   3.270   3.378
  3.392   3.472   3.485   3.555   4.261   4.448   4.607   4.668
  4.671   4.672   4.685   4.685   6.223  90.130
 --------------------------------------------------------------
 
          Ground-State Mulliken Net Atomic Charges

     Atom                 Charge (a.u.)    Spin (a.u.)
  --------------------------------------------------------
      1 Br                   -0.000496       1.000366
      2 C                    -0.190669      -0.073251
      3 C                    -0.217429       1.079048
      4 C                    -0.307147       0.049795
      5 H                     0.101002       0.011180
      6 H                     0.101715       0.014513
      7 H                     0.101263      -0.047120
      8 H                     0.101666      -0.047224
      9 H                     0.100821       0.013806
     10 H                     0.104506      -0.000682
     11 H                     0.104767      -0.000430
  --------------------------------------------------------
  Sum of atomic charges =    -0.000000
  Sum of spin   charges =     2.000000

 -----------------------------------------------------------------
                    Cartesian Multipole Moments
 -----------------------------------------------------------------
    Charge (ESU x 10^10)
                -0.0000
    Dipole Moment (Debye)
         X      -0.2625      Y      -0.0109      Z       0.0022
       Tot       0.2628
    Quadrupole Moments (Debye-Ang)
        XX     -39.2031     XY       0.6827     YY     -37.9859
        XZ      -0.0466     YZ      -0.0732     ZZ     -38.7702
    Octopole Moments (Debye-Ang^2)
       XXX    -194.2075    XXY      25.1873    XYY     -60.7653
       YYY      33.8831    XXZ      -0.3790    XYZ      -0.3786
       YYZ       0.1747    XZZ     -68.4397    YZZ      11.9117
       ZZZ       0.3802
    Hexadecapole Moments (Debye-Ang^3)
      XXXX   -2943.0350   XXXY     264.6880   XXYY    -499.5853
      XYYY     166.5376   YYYY    -126.3877   XXXZ      -2.0109
      XXYZ      -2.0677   XYYZ       1.0482   YYYZ      -0.8690
      XXZZ    -519.6987   XYZZ      61.5996   YYZZ     -31.0772
      XZZZ       2.0328   YZZZ      -0.6780   ZZZZ     -64.3782
 -----------------------------------------------------------------
 Calculating analytic gradient of the SCF energy
 Gradient of SCF Energy
            1           2           3           4           5           6
    1  -0.0001745  -0.0000034   0.0076919  -0.0000878  -0.0000020  -0.0000115
    2   0.0000771  -0.0006072  -0.0053047  -0.0000191   0.0000066  -0.0000096
    3  -0.0000167  -0.0000063   0.0000871   0.0000039  -0.0000027  -0.0000252
            7           8           9          10          11
    1  -0.0037022  -0.0037618   0.0000061   0.0000219   0.0000232
    2   0.0029327   0.0029496  -0.0000222  -0.0000128   0.0000095
    3   0.0011757  -0.0012515   0.0000013   0.0000196   0.0000149
 Max gradient component =       7.692E-03
 RMS gradient           =       2.029E-03
 Gradient time:  CPU 8.84 s  wall 0.78 s
 Geometry Optimization Parameters
   NAtoms,    NIC,     NZ,  NCons,   NDum,   NFix, NCnnct, MaxDiis
       11      85       0       1       0       0       0       0

 Cartesian Hessian Update
 Hessian Updated using BFGS Update


** CONSTRAINED OPTIMIZATION IN DELOCALIZED INTERNAL COORDINATES **
   Searching for a Minimum

   Optimization Cycle:   3

                       Coordinates (Angstroms)
     ATOM                X               Y               Z
      1  Br        4.8710322280   -0.6619413219   -0.0100854200
      2  C        -1.0621056771    0.5793070643    0.0146193984
      3  C         0.1905328591   -0.2350268825    0.0158526792
      4  C        -2.3503484583   -0.2776200158   -0.0164010232
      5  H        -1.0937040075    1.2218026221    0.9041547077
      6  H        -1.0726435227    1.2498876815   -0.8552309691
      7  H         0.5599307696   -0.6327507270   -0.9182255714
      8  H         0.5795843934   -0.6060426368    0.9525679814
      9  H        -3.2423182375    0.3587897692   -0.0191765687
     10  H        -2.3812599173   -0.9082251174   -0.9108221632
     11  H        -2.4059054298   -0.9355804357    0.8568449490
   Point Group: c1    Number of degrees of freedom:    27


   Energy is  -2692.320502032

              Constraints and their Current Values
                                        Value     Constraint
   Distance(Angs):        1   3             4.700000     4.700000
 Hessian Updated using BFGS Update

 25 Hessian modes will be used to form the next step
  Hessian Eigenvalues:
     0.045000    0.045000    0.046813    0.048586    0.058911    0.067817
     0.074537    0.078137    0.082965    0.082995    0.086336    0.104847
     0.132713    0.159999    0.160009    0.219548    0.278666    0.330314
     0.331089    0.338718    0.339407    0.341571    0.342688    0.342706
     0.432852

 Minimum Search - Taking Simple RFO Step
 Searching for Lamda that Minimizes Along All modes
 Value Taken    Lamda =  -0.00029901
 Step Taken.  Stepsize is  0.067170

                             Maximum     Tolerance    Cnvgd?
         Gradient           0.003941      0.000300      NO
         Displacement       0.061006      0.001200      NO
         Energy change     -0.000309      0.000001      NO


 New Cartesian Coordinates Obtained by Inverse Iteration

 Displacement from previous Coordinates is:  0.045146
 ----------------------------------------------------------------
             Standard Nuclear Orientation (Angstroms)
    I     Atom           X                Y                Z
 ----------------------------------------------------------------
    1      Br      4.8683261060    -0.6557048594    -0.0099460432
    2      C      -1.0643601263     0.5806044411     0.0145436110
    3      C       0.1872140590    -0.2355507646     0.0158145079
    4      C      -2.3531077660    -0.2753911199    -0.0163974058
    5      H      -1.0949599928     1.2230868311     0.9040412043
    6      H      -1.0738453591     1.2511073598    -0.8552867100
    7      H       0.5711941253    -0.6422325724    -0.9162426213
    8      H       0.5908658141    -0.6155384092     0.9506260844
    9      H      -3.2446465419     0.3616566796    -0.0191163063
   10      H      -2.3846852889    -0.9060723221    -0.9107615624
   11      H      -2.4092000294    -0.9333652640     0.8568232414
 ----------------------------------------------------------------
 Nuclear Repulsion Energy =   154.5168435972 hartrees
 There are       31 alpha and       29 beta electrons

                       Distance Matrix (Angstroms)
             Br(  1)   C (  2)   C (  3)   C (  4)   H (  5)   H (  6)
   C (  2)  6.060184
   C (  3)  4.700000  1.494172
   C (  4)  7.231444  1.547435  2.540838
   H (  5)  6.318703  1.097691  2.135542  2.162309
   H (  6)  6.297613  1.098303  2.135238  2.161121  1.759678
   H (  7)  4.391685  2.244266  1.086996  3.081531  3.093367  2.508905
   H (  8)  4.384174  2.246504  1.086829  3.117341  2.494939  3.084956
   H (  9)  8.176517  2.191511  3.483611  1.095755  2.493077  2.490518
   H ( 10)  7.313024  2.193093  2.814748  1.094826  3.080620  2.524837
   H ( 11)  7.334219  2.193202  2.817021  1.094802  2.525815  3.080002
             H (  7)   H (  8)   H (  9)   H ( 10)
   H (  8)  1.867163
   H (  9)  4.046390  4.075103
   H ( 10)  2.967636  3.521800  1.772485
   H ( 11)  3.480125  3.018312  1.772660  1.767965
 
 Applying Cartesian multipole field
    Component          Value
    ---------          -----
     (2,0,0)        1.00000E-11
     (0,2,0)        2.00000E-10
     (0,0,2)       -3.00000E-10
 Nucleus-field energy     =     0.0000000436 hartrees
 Requested basis set is 6-31G(d,p)
 There are 41 shells and 115 basis functions
 A cutoff of  1.0D-14 yielded    715 shell pairs
 There are      5203 function pairs
 Smallest overlap matrix eigenvalue = 7.27E-04
 Guess from superposition of atomic densities
 Warning:  Energy on first SCF cycle will be non-variational
 SAD guess density has 59.972873 electrons

 -----------------------------------------------------------------------
  General SCF calculation program by
  Eric Jon Sundstrom, Paul Horn, Yuezhi Mao, Dmitri Zuev, Alec White,
  David Stuck, Shaama M.S., Shane Yost, Joonho Lee, David Small,
  Daniel Levine, Susi Lehtola, Hugh Burton, Evgeny Epifanovsky
 -----------------------------------------------------------------------
 Exchange:     0.2000 Hartree-Fock + 0.0800 Slater + 0.7200 B88
 Correlation:  0.1900 VWN1RPA + 0.8100 LYP
 Using SG-1 standard quadrature grid
 using 12 threads for integral computing
 -------------------------------------------------------
 OpenMP Integral computing Module                
 Release: version 1.0, May 2013, Q-Chem Inc. Pittsburgh 
 -------------------------------------------------------
 -------------------------------------------------------
 OpenMP BLAS3 based DFT computing Module                
 Release: version 1.0, May 2013, Q-Chem Inc. Pittsburgh 
 -------------------------------------------------------
 A unrestricted SCF calculation will be
 performed using DIIS
 SCF converges when DIIS error is below 1.0e-06
 Alpha HF Exchange    Energy = -10.71066095187573
 Beta HF Exchange     Energy = -10.71066095187573
 DFT Correlation      Energy =  -3.10408335931020
 DFT Exchange         Energy = -84.97202001726745
 One-Electron (alpha) Energy = -2021.15627088314818
 One-Electron (beta)  Energy = -2021.15627088314818
 Total Coulomb        Energy = 1301.79259393661164
 ---------------------------------------
  Cycle       Energy         DIIS error
 ---------------------------------------
    1   -2695.5005294692      1.64e-01  
 Alpha HF Exchange    Energy = -10.89549587768826
 Beta HF Exchange     Energy = -10.70096720705835
 DFT Correlation      Energy =  -3.13636466269404
 DFT Exchange         Energy = -85.89430841835431
 One-Electron (alpha) Energy = -2043.49274062203017
 One-Electron (beta)  Energy = -2009.40735841231890
 Total Coulomb        Energy = 1316.79361782493470
    2   -2692.2167737344      9.50e-03  
 Alpha HF Exchange    Energy = -10.79840739716980
 Beta HF Exchange     Energy = -10.61418963741759
 DFT Correlation      Energy =  -3.10157781266362
 DFT Exchange         Energy = -85.14421208367020
 One-Electron (alpha) Energy = -2036.03527041317193
 One-Electron (beta)  Energy = -2002.48434777017451
 Total Coulomb        Energy = 1301.44313164339633
    3   -2692.2180298301      4.11e-03  
 Alpha HF Exchange    Energy = -10.87260516524942
 Beta HF Exchange     Energy = -10.68019660035515
 DFT Correlation      Energy =  -3.12776517646483
 DFT Exchange         Energy = -85.71154563599293
 One-Electron (alpha) Energy = -2041.65109241643040
 One-Electron (beta)  Energy = -2007.50072749518972
 Total Coulomb        Energy = 1312.74928271606518
    4   -2692.2778061328      2.63e-03  
 Alpha HF Exchange    Energy = -10.84887209820123
 Beta HF Exchange     Energy = -10.65786484790761
 DFT Correlation      Energy =  -3.11829031572045
 DFT Exchange         Energy = -85.52321055210052
 One-Electron (alpha) Energy = -2040.00309043416337
 One-Electron (beta)  Energy = -2005.93872920204035
 Total Coulomb        Energy = 1309.25300215319862
    5   -2692.3202116562      3.12e-04  
 Alpha HF Exchange    Energy = -10.84676031672772
 Beta HF Exchange     Energy = -10.65644207216403
 DFT Correlation      Energy =  -3.11804200462090
 DFT Exchange         Energy = -85.50972691290114
 One-Electron (alpha) Energy = -2039.80632971368641
 One-Electron (beta)  Energy = -2005.76856036777303
 Total Coulomb        Energy = 1308.86836079852105
    6   -2692.3206569486      5.47e-05  
 Alpha HF Exchange    Energy = -10.84667082316731
 Beta HF Exchange     Energy = -10.65618975495242
 DFT Correlation      Energy =  -3.11791275889797
 DFT Exchange         Energy = -85.50825735366476
 One-Electron (alpha) Energy = -2039.79327601038926
 One-Electron (beta)  Energy = -2005.74922593459110
 Total Coulomb        Energy = 1308.83401208800615
    7   -2692.3206769069      1.62e-05  
 Alpha HF Exchange    Energy = -10.84674124772454
 Beta HF Exchange     Energy = -10.65625370248735
 DFT Correlation      Energy =  -3.11789352060844
 DFT Exchange         Energy = -85.50872511343923
 One-Electron (alpha) Energy = -2039.80294096665989
 One-Electron (beta)  Energy = -2005.75495460839261
 Total Coulomb        Energy = 1308.84998677872022
    8   -2692.3206787398      6.60e-06  
 Alpha HF Exchange    Energy = -10.84678758748333
 Beta HF Exchange     Energy = -10.65625735379474
 DFT Correlation      Energy =  -3.11790142520217
 DFT Exchange         Energy = -85.50892714507935
 One-Electron (alpha) Energy = -2039.80512696426649
 One-Electron (beta)  Energy = -2005.75462254003014
 Total Coulomb        Energy = 1308.85210023976492
    9   -2692.3206791353      1.69e-06  
 Alpha HF Exchange    Energy = -10.84678753389017
 Beta HF Exchange     Energy = -10.65625047958369
 DFT Correlation      Energy =  -3.11789630440610
 DFT Exchange         Energy = -85.50889441614495
 One-Electron (alpha) Energy = -2039.80474192920201
 One-Electron (beta)  Energy = -2005.75376485372044
 Total Coulomb        Energy = 1308.85081270438832
   10   -2692.3206791718      7.62e-07  Convergence criterion met
 ---------------------------------------
 SCF time:   CPU 24.58s  wall 3.00s 
<S^2> =          2.005218988
 Alpha HF Exchange    Energy = -10.84678753389017
 Beta HF Exchange     Energy = -10.65625047958369
 DFT Correlation      Energy =  -3.11789630440610
 DFT Exchange         Energy = -85.50889441614495
 One-Electron (alpha) Energy = -2039.80474192920201
 One-Electron (beta)  Energy = -2005.75376485372044
 Total Coulomb        Energy = 1308.85081270438832
 Nuclear repulsion Energy = 154.51684364077229
 SCF   energy in the final basis set =    -2692.3206791718
 Total energy in the final basis set =    -2692.3206791718
 
 --------------------------------------------------------------
 
                    Orbital Energies (a.u.)
 --------------------------------------------------------------
 
 Alpha MOs
 -- Occupied --
******* -62.556 -56.381 -56.373 -56.373 -10.185 -10.184 -10.176
 -8.744  -6.580  -6.558  -6.558  -2.671  -2.666  -2.666  -2.649
 -2.649  -0.796  -0.777  -0.671  -0.577  -0.460  -0.425  -0.391
 -0.376  -0.371  -0.347  -0.331  -0.322  -0.322  -0.197
 -- Virtual --
  0.104   0.135   0.144   0.158   0.169   0.180   0.181   0.220
  0.232   0.270   0.290   0.313   0.315   0.517   0.533   0.534
  0.536   0.545   0.545   0.550   0.581   0.582   0.597   0.600
  0.660   0.696   0.786   0.812   0.859   0.879   0.883   0.912
  0.938   0.961   1.001   1.216   1.308   1.426   1.478   1.534
  1.602   1.678   1.683   1.823   1.876   1.947   1.974   2.005
  2.053   2.071   2.120   2.125   2.229   2.259   2.292   2.370
  2.438   2.452   2.518   2.578   2.678   2.714   2.743   2.801
  2.849   2.883   2.918   3.185   3.259   3.363   3.379   3.466
  3.475   3.552   4.240   4.431   4.606   4.649   4.657   4.657
  4.682   4.682   6.207  90.124
 
 Beta MOs
 -- Occupied --
******* -62.555 -56.375 -56.372 -56.372 -10.185 -10.174 -10.171
 -8.740  -6.570  -6.556  -6.556  -2.663  -2.660  -2.660  -2.648
 -2.648  -0.767  -0.753  -0.652  -0.563  -0.456  -0.419  -0.386
 -0.365  -0.341  -0.329  -0.308  -0.307
 -- Virtual --
 -0.235  -0.039   0.108   0.146   0.147   0.159   0.175   0.181
  0.188   0.224   0.236   0.278   0.316   0.318   0.323   0.522
  0.537   0.551   0.566   0.589   0.590   0.591   0.591   0.596
  0.600   0.638   0.671   0.711   0.790   0.819   0.862   0.881
  0.886   0.919   0.943   0.972   1.004   1.227   1.318   1.455
  1.483   1.549   1.623   1.684   1.696   1.832   1.881   1.950
  2.001   2.043   2.054   2.072   2.121   2.132   2.231   2.271
  2.293   2.376   2.443   2.464   2.527   2.603   2.684   2.715
  2.747   2.804   2.851   2.885   2.921   3.186   3.263   3.368
  3.381   3.468   3.481   3.555   4.260   4.447   4.608   4.668
  4.671   4.672   4.685   4.685   6.222  90.130
 --------------------------------------------------------------
 
          Ground-State Mulliken Net Atomic Charges

     Atom                 Charge (a.u.)    Spin (a.u.)
  --------------------------------------------------------
      1 Br                   -0.000454       1.000395
      2 C                    -0.189774      -0.073401
      3 C                    -0.218428       1.079802
      4 C                    -0.307305       0.049658
      5 H                     0.101633       0.011170
      6 H                     0.102310       0.014490
      7 H                     0.100545      -0.047363
      8 H                     0.100965      -0.047473
      9 H                     0.100674       0.013845
     10 H                     0.104792      -0.000687
     11 H                     0.105043      -0.000436
  --------------------------------------------------------
  Sum of atomic charges =     0.000000
  Sum of spin   charges =     2.000000

 -----------------------------------------------------------------
                    Cartesian Multipole Moments
 -----------------------------------------------------------------
    Charge (ESU x 10^10)
                -0.0000
    Dipole Moment (Debye)
         X      -0.2612      Y      -0.0075      Z       0.0022
       Tot       0.2613
    Quadrupole Moments (Debye-Ang)
        XX     -39.3317     XY       0.5678     YY     -37.8052
        XZ      -0.0375     YZ      -0.0698     ZZ     -38.8136
    Octopole Moments (Debye-Ang^2)
       XXX    -196.3371    XXY      24.2845    XYY     -59.7534
       YYY      33.2454    XXZ      -0.2863    XYZ      -0.3677
       YYZ       0.1657    XZZ     -68.3710    YZZ      11.8047
       ZZZ       0.3716
    Hexadecapole Moments (Debye-Ang^3)
      XXXX   -2964.5224   XXXY     258.1988   XXYY    -493.9462
      XYYY     163.2427   YYYY    -124.8411   XXXZ      -1.3379
      XXYZ      -2.0297   XYYZ       1.0057   YYYZ      -0.8437
      XXZZ    -519.3878   XYZZ      61.0057   YYZZ     -30.8683
      XZZZ       2.0011   YZZZ      -0.6623   ZZZZ     -64.4866
 -----------------------------------------------------------------
 Calculating analytic gradient of the SCF energy
 Gradient of SCF Energy
            1           2           3           4           5           6
    1  -0.0001805  -0.0004429   0.0022181   0.0000459  -0.0000877  -0.0000903
    2   0.0000769   0.0001686  -0.0007078  -0.0000062   0.0000441   0.0000258
    3  -0.0000176  -0.0000009  -0.0000278   0.0000073  -0.0000256  -0.0000026
            7           8           9          10          11
    1  -0.0007373  -0.0007041   0.0000037  -0.0000147  -0.0000101
    2   0.0002309   0.0002880  -0.0000326  -0.0000556  -0.0000321
    3  -0.0015700   0.0016052   0.0000010   0.0000066   0.0000244
 Max gradient component =       2.218E-03
 RMS gradient           =       6.013E-04
 Gradient time:  CPU 8.74 s  wall 0.75 s
 Geometry Optimization Parameters
   NAtoms,    NIC,     NZ,  NCons,   NDum,   NFix, NCnnct, MaxDiis
       11      85       0       1       0       0       0       0

 Cartesian Hessian Update
 Hessian Updated using BFGS Update


** CONSTRAINED OPTIMIZATION IN DELOCALIZED INTERNAL COORDINATES **
   Searching for a Minimum

   Optimization Cycle:   4

                       Coordinates (Angstroms)
     ATOM                X               Y               Z
      1  Br        4.8683261060   -0.6557048594   -0.0099460432
      2  C        -1.0643601263    0.5806044411    0.0145436110
      3  C         0.1872140590   -0.2355507646    0.0158145079
      4  C        -2.3531077660   -0.2753911199   -0.0163974058
      5  H        -1.0949599928    1.2230868311    0.9040412043
      6  H        -1.0738453591    1.2511073598   -0.8552867100
      7  H         0.5711941253   -0.6422325724   -0.9162426213
      8  H         0.5908658141   -0.6155384092    0.9506260844
      9  H        -3.2446465419    0.3616566796   -0.0191163063
     10  H        -2.3846852889   -0.9060723221   -0.9107615624
     11  H        -2.4092000294   -0.9333652640    0.8568232414
   Point Group: c1    Number of degrees of freedom:    27


   Energy is  -2692.320679172

              Constraints and their Current Values
                                        Value     Constraint
   Distance(Angs):        1   3             4.700000     4.700000
 Hessian Updated using BFGS Update

 26 Hessian modes will be used to form the next step
  Hessian Eigenvalues:
     0.039271    0.045000    0.045002    0.046905    0.048591    0.067817
     0.074537    0.078137    0.082965    0.082995    0.086390    0.104847
     0.132713    0.160000    0.160008    0.160020    0.219693    0.278667
     0.330312    0.330725    0.338739    0.339426    0.341571    0.342687
     0.342706    0.516327

 Minimum Search - Taking Simple RFO Step
 Searching for Lamda that Minimizes Along All modes
 Value Taken    Lamda =  -0.00004348
 Step Taken.  Stepsize is  0.031118

                             Maximum     Tolerance    Cnvgd?
         Gradient           0.001411      0.000300      NO
         Displacement       0.027883      0.001200      NO
         Energy change     -0.000177      0.000001      NO


 New Cartesian Coordinates Obtained by Inverse Iteration

 Displacement from previous Coordinates is:  0.022253
 ----------------------------------------------------------------
             Standard Nuclear Orientation (Angstroms)
    I     Atom           X                Y                Z
 ----------------------------------------------------------------
    1      Br      4.8669247713    -0.6516396859    -0.0097966286
    2      C      -1.0648457561     0.5801282475     0.0144815333
    3      C       0.1853744789    -0.2363860604     0.0157837889
    4      C      -2.3546151551    -0.2742459530    -0.0163810941
    5      H      -1.0942235297     1.2225250428     0.9040534240
    6      H      -1.0731443526     1.2505077411    -0.8554232312
    7      H       0.5756175297    -0.6459308680    -0.9126296325
    8      H       0.5952323066    -0.6192840812     0.9469359925
    9      H      -3.2454636057     0.3638035914    -0.0190280336
   10      H      -2.3868230081    -0.9048009018    -0.9107665120
   11      H      -2.4112386794    -0.9320770724     0.8568683934
 ----------------------------------------------------------------
 Nuclear Repulsion Energy =   154.5392778534 hartrees
 There are       31 alpha and       29 beta electrons

                       Distance Matrix (Angstroms)
             Br(  1)   C (  2)   C (  3)   C (  4)   H (  5)   H (  6)
   C (  2)  6.058361
   C (  3)  4.700000  1.493234
   C (  4)  7.231397  1.547389  2.540475
   H (  5)  6.315291  1.097668  2.134201  2.162432
   H (  6)  6.294257  1.098277  2.133946  2.161257  1.759825
   H (  7)  4.385255  2.248083  1.087184  3.086693  3.095131  2.513597
   H (  8)  4.377641  2.250316  1.087032  3.122280  2.499672  3.086762
   H (  9)  8.175699  2.191578  3.483115  1.095776  2.493455  2.490938
   H ( 10)  7.313870  2.192880  2.814511  1.094789  3.080568  2.524712
   H ( 11)  7.334945  2.192978  2.816702  1.094766  2.525681  3.079954
             H (  7)   H (  8)   H (  9)   H ( 10)
   H (  8)  1.859860
   H (  9)  4.052005  4.080502
   H ( 10)  2.973730  3.524944  1.772518
   H ( 11)  3.483434  3.024040  1.772691  1.768014
 
 Applying Cartesian multipole field
    Component          Value
    ---------          -----
     (2,0,0)        1.00000E-11
     (0,2,0)        2.00000E-10
     (0,0,2)       -3.00000E-10
 Nucleus-field energy     =     0.0000000434 hartrees
 Requested basis set is 6-31G(d,p)
 There are 41 shells and 115 basis functions
 A cutoff of  1.0D-14 yielded    716 shell pairs
 There are      5207 function pairs
 Smallest overlap matrix eigenvalue = 7.27E-04
 Guess from superposition of atomic densities
 Warning:  Energy on first SCF cycle will be non-variational
 SAD guess density has 59.972873 electrons

 -----------------------------------------------------------------------
  General SCF calculation program by
  Eric Jon Sundstrom, Paul Horn, Yuezhi Mao, Dmitri Zuev, Alec White,
  David Stuck, Shaama M.S., Shane Yost, Joonho Lee, David Small,
  Daniel Levine, Susi Lehtola, Hugh Burton, Evgeny Epifanovsky
 -----------------------------------------------------------------------
 Exchange:     0.2000 Hartree-Fock + 0.0800 Slater + 0.7200 B88
 Correlation:  0.1900 VWN1RPA + 0.8100 LYP
 Using SG-1 standard quadrature grid
 using 12 threads for integral computing
 -------------------------------------------------------
 OpenMP Integral computing Module                
 Release: version 1.0, May 2013, Q-Chem Inc. Pittsburgh 
 -------------------------------------------------------
 -------------------------------------------------------
 OpenMP BLAS3 based DFT computing Module                
 Release: version 1.0, May 2013, Q-Chem Inc. Pittsburgh 
 -------------------------------------------------------
 A unrestricted SCF calculation will be
 performed using DIIS
 SCF converges when DIIS error is below 1.0e-06
 Alpha HF Exchange    Energy = -10.71073033713180
 Beta HF Exchange     Energy = -10.71073033713180
 DFT Correlation      Energy =  -3.10409220547454
 DFT Exchange         Energy = -84.97216863699700
 One-Electron (alpha) Energy = -2021.17840173621448
 One-Electron (beta)  Energy = -2021.17840173621448
 Total Coulomb        Energy = 1301.81391955839740
 ---------------------------------------
  Cycle       Energy         DIIS error
 ---------------------------------------
    1   -2695.5013275340      1.64e-01  
 Alpha HF Exchange    Energy = -10.89551250295641
 Beta HF Exchange     Energy = -10.70097815460673
 DFT Correlation      Energy =  -3.13637691758976
 DFT Exchange         Energy = -85.89441250725983
 One-Electron (alpha) Energy = -2043.51441903518003
 One-Electron (beta)  Energy = -2009.42880668246266
 Total Coulomb        Energy = 1316.81438397036231
    2   -2692.2168439329      9.50e-03  
 Alpha HF Exchange    Energy = -10.79842770581639
 Beta HF Exchange     Energy = -10.61423173837835
 DFT Correlation      Energy =  -3.10159386368463
 DFT Exchange         Energy = -85.14443169041901
 One-Electron (alpha) Energy = -2036.05760942280199
 One-Electron (beta)  Energy = -2002.50699748641932
 Total Coulomb        Energy = 1301.46591526857310
    3   -2692.2180987421      4.11e-03  
 Alpha HF Exchange    Energy = -10.87263312644150
 Beta HF Exchange     Energy = -10.68021619835405
 DFT Correlation      Energy =  -3.12778645124848
 DFT Exchange         Energy = -85.71173378386150
 One-Electron (alpha) Energy = -2041.67379437879117
 One-Electron (beta)  Energy = -2007.52350756232045
 Total Coulomb        Energy = 1312.77256648012985
    4   -2692.2778271241      2.63e-03  
 Alpha HF Exchange    Energy = -10.84888297760737
 Beta HF Exchange     Energy = -10.65788545155636
 DFT Correlation      Energy =  -3.11830397502605
 DFT Exchange         Energy = -85.52332483150091
 One-Electron (alpha) Energy = -2040.02474620490489
 One-Electron (beta)  Energy = -2005.96088273961095
 Total Coulomb        Energy = 1309.27450510951985
    5   -2692.3202431739      3.12e-04  
 Alpha HF Exchange    Energy = -10.84677699935585
 Beta HF Exchange     Energy = -10.65646329667408
 DFT Correlation      Energy =  -3.11805829279986
 DFT Exchange         Energy = -85.50987007396658
 One-Electron (alpha) Energy = -2039.82820706765460
 One-Electron (beta)  Energy = -2005.79088083710371
 Total Coulomb        Energy = 1308.89029349329144
    6   -2692.3206851775      5.46e-05  
 Alpha HF Exchange    Energy = -10.84668796195867
 Beta HF Exchange     Energy = -10.65621162341232
 DFT Correlation      Energy =  -3.11792887047900
 DFT Exchange         Energy = -85.50840412527901
 One-Electron (alpha) Energy = -2039.81525045191529
 One-Electron (beta)  Energy = -2005.77165320136078
 Total Coulomb        Energy = 1308.85615329055918
    7   -2692.3207050470      1.62e-05  
 Alpha HF Exchange    Energy = -10.84675838373646
 Beta HF Exchange     Energy = -10.65627551596955
 DFT Correlation      Energy =  -3.11790975326966
 DFT Exchange         Energy = -85.50887193892736
 One-Electron (alpha) Energy = -2039.82489940499931
 One-Electron (beta)  Energy = -2005.77737399322859
 Total Coulomb        Energy = 1308.87210422197427
    8   -2692.3207068713      6.61e-06  
 Alpha HF Exchange    Energy = -10.84680472121653
 Beta HF Exchange     Energy = -10.65627906652469
 DFT Correlation      Energy =  -3.11791764065204
 DFT Exchange         Energy = -85.50907355624061
 One-Electron (alpha) Energy = -2039.82708081451869
 One-Electron (beta)  Energy = -2005.77704606871362
 Total Coulomb        Energy = 1308.87421670470508
    9   -2692.3207072663      1.69e-06  
 Alpha HF Exchange    Energy = -10.84680464678332
 Beta HF Exchange     Energy = -10.65627217145351
 DFT Correlation      Energy =  -3.11791253081186
 DFT Exchange         Energy = -85.50904066118146
 One-Electron (alpha) Energy = -2039.82669196327220
 One-Electron (beta)  Energy = -2005.77619370498815
 Total Coulomb        Energy = 1308.87293048057222
   10   -2692.3207073011      7.60e-07  Convergence criterion met
 ---------------------------------------
 SCF time:   CPU 24.51s  wall 2.00s 
<S^2> =          2.005221010
 Alpha HF Exchange    Energy = -10.84680464678332
 Beta HF Exchange     Energy = -10.65627217145351
 DFT Correlation      Energy =  -3.11791253081186
 DFT Exchange         Energy = -85.50904066118146
 One-Electron (alpha) Energy = -2039.82669196327220
 One-Electron (beta)  Energy = -2005.77619370498815
 Total Coulomb        Energy = 1308.87293048057222
 Nuclear repulsion Energy = 154.53927789681330
[...]
     0.003009    0.035743    0.045001    0.045007    0.048595    0.067817
     0.074429    0.077462    0.078185    0.082967    0.082995    0.104921
     0.132713    0.159991    0.160000    0.160049    0.219307    0.278677
     0.330222    0.330368    0.338736    0.339423    0.341579    0.342687
     0.342705    0.500547

 Minimum Search - Taking Simple RFO Step
 Searching for Lamda that Minimizes Along All modes
 Value Taken    Lamda =   0.00000000
 Step Taken.  Stepsize is  0.007196

                             Maximum     Tolerance    Cnvgd?
         Gradient           0.000310      0.000300      NO
         Displacement       0.004689      0.001200      NO
         Energy change     -0.000004      0.000001      NO


 New Cartesian Coordinates Obtained by Inverse Iteration

 Displacement from previous Coordinates is:  0.005055
 ----------------------------------------------------------------
             Standard Nuclear Orientation (Angstroms)
    I     Atom           X                Y                Z
 ----------------------------------------------------------------
    1      Br      4.8656412315    -0.6348802583    -0.0082165619
    2      C      -1.0627865811     0.5736599547     0.0142545584
    3      C       0.1814780636    -0.2500875147     0.0153001054
    4      C      -2.3594308304    -0.2704666459    -0.0161147902
    5      H      -1.0873587008     1.2165290560     0.9037047189
    6      H      -1.0666925699     1.2441720022    -0.8556641767
    7      H       0.5818142447    -0.6500152222    -0.9110493526
    8      H       0.6025157371    -0.6226584533     0.9436395463
    9      H      -3.2450148051     0.3748271579    -0.0180957592
   10      H      -2.3968780183    -0.9004576020    -0.9106418550
   11      H      -2.4204927714    -0.9280224744     0.8569815666
 ----------------------------------------------------------------
 Nuclear Repulsion Energy =   154.5870480482 hartrees
 There are       31 alpha and       29 beta electrons

                       Distance Matrix (Angstroms)
             Br(  1)   C (  2)   C (  3)   C (  4)   H (  5)   H (  6)
   C (  2)  6.050399
   C (  3)  4.700000  1.492232
   C (  4)  7.234261  1.547501  2.541185
   H (  5)  6.300597  1.097728  2.133114  2.162265
   H (  6)  6.280254  1.098344  2.132914  2.161052  1.759707
   H (  7)  4.377957  2.249062  1.085511  3.097723  3.092484  2.511690
   H (  8)  4.368114  2.251259  1.085309  3.133416  2.497975  3.083635
   H (  9)  8.173270  2.191507  3.483172  1.095750  2.492721  2.490456
   H ( 10)  7.323188  2.192774  2.815718  1.094746  3.080313  2.524253
   H ( 11)  7.343177  2.192853  2.817495  1.094717  2.525575  3.079669
             H (  7)   H (  8)   H (  9)   H ( 10)
   H (  8)  1.855006
   H (  9)  4.061070  4.089426
   H ( 10)  2.989202  3.537216  1.772661
   H ( 11)  3.495292  3.039628  1.772855  1.767996
 
 Applying Cartesian multipole field
    Component          Value
    ---------          -----
     (2,0,0)        1.00000E-11
     (0,2,0)        2.00000E-10
     (0,0,2)       -3.00000E-10
 Nucleus-field energy     =     0.0000000428 hartrees
 Requested basis set is 6-31G(d,p)
 There are 41 shells and 115 basis functions
 A cutoff of  1.0D-14 yielded    716 shell pairs
 There are      5207 function pairs
 Smallest overlap matrix eigenvalue = 7.27E-04
 Guess from superposition of atomic densities
 Warning:  Energy on first SCF cycle will be non-variational
 SAD guess density has 59.972873 electrons

 -----------------------------------------------------------------------
  General SCF calculation program by
  Eric Jon Sundstrom, Paul Horn, Yuezhi Mao, Dmitri Zuev, Alec White,
  David Stuck, Shaama M.S., Shane Yost, Joonho Lee, David Small,
  Daniel Levine, Susi Lehtola, Hugh Burton, Evgeny Epifanovsky
 -----------------------------------------------------------------------
 Exchange:     0.2000 Hartree-Fock + 0.0800 Slater + 0.7200 B88
 Correlation:  0.1900 VWN1RPA + 0.8100 LYP
 Using SG-1 standard quadrature grid
 using 12 threads for integral computing
 -------------------------------------------------------
 OpenMP Integral computing Module                
 Release: version 1.0, May 2013, Q-Chem Inc. Pittsburgh 
 -------------------------------------------------------
 -------------------------------------------------------
 OpenMP BLAS3 based DFT computing Module                
 Release: version 1.0, May 2013, Q-Chem Inc. Pittsburgh 
 -------------------------------------------------------
 A unrestricted SCF calculation will be
 performed using DIIS
 SCF converges when DIIS error is below 1.0e-06
 Alpha HF Exchange    Energy = -10.71098889158207
 Beta HF Exchange     Energy = -10.71098889158207
 DFT Correlation      Energy =  -3.10413760056572
 DFT Exchange         Energy = -84.97276059491315
 One-Electron (alpha) Energy = -2021.22396423090777
 One-Electron (beta)  Energy = -2021.22396423090777
 Total Coulomb        Energy = 1301.85637036102594
 ---------------------------------------
  Cycle       Energy         DIIS error
 ---------------------------------------
    1   -2695.5033859884      1.64e-01  
 Alpha HF Exchange    Energy = -10.89570635734349
 Beta HF Exchange     Energy = -10.70117153546630
 DFT Correlation      Energy =  -3.13647504542491
 DFT Exchange         Energy = -85.89584253680911
 One-Electron (alpha) Energy = -2043.56262990780078
 One-Electron (beta)  Energy = -2009.47834880541564
 Total Coulomb        Energy = 1316.86637429056827
    2   -2692.2167518066      9.50e-03  
 Alpha HF Exchange    Energy = -10.79852504203224
 Beta HF Exchange     Energy = -10.61442428977507
 DFT Correlation      Energy =  -3.10167889816887
 DFT Exchange         Energy = -85.14543959199105
 One-Electron (alpha) Energy = -2036.10317053091990
 One-Electron (beta)  Energy = -2002.55653646860310
 Total Coulomb        Energy = 1301.51462359348488
    3   -2692.2181031369      4.11e-03  
 Alpha HF Exchange    Energy = -10.87276153152007
 Beta HF Exchange     Energy = -10.68037794904598
 DFT Correlation      Energy =  -3.12787888255516
 DFT Exchange         Energy = -85.71277621667372
 One-Electron (alpha) Energy = -2041.71968770292210
 One-Electron (beta)  Energy = -2007.57286052474205
 Total Coulomb        Energy = 1312.82138760547900
    4   -2692.2779071109      2.63e-03  
 Alpha HF Exchange    Energy = -10.84900192116079
 Beta HF Exchange     Energy = -10.65806034412742
 DFT Correlation      Energy =  -3.11839613625772
 DFT Exchange         Energy = -85.52438180014227
 One-Electron (alpha) Energy = -2040.07023808167423
 One-Electron (beta)  Energy = -2006.01042842725178
 Total Coulomb        Energy = 1309.32319610422178
    5   -2692.3202625153      3.11e-04  
 Alpha HF Exchange    Energy = -10.84690211878014
 Beta HF Exchange     Energy = -10.65664232492637
 DFT Correlation      Energy =  -3.11815334129844
 DFT Exchange         Energy = -85.51097088814900
 One-Electron (alpha) Energy = -2039.87429166156994
 One-Electron (beta)  Energy = -2005.84107363194448
 Total Coulomb        Energy = 1308.94028190952054
    6   -2692.3207039661      5.45e-05  
 Alpha HF Exchange    Energy = -10.84681229545503
 Beta HF Exchange     Energy = -10.65639056963994
 DFT Correlation      Energy =  -3.11802380535715
 DFT Exchange         Energy = -85.50950115583231
 One-Electron (alpha) Energy = -2039.86130749185213
 One-Electron (beta)  Energy = -2005.82189754456022
 Total Coulomb        Energy = 1308.90616104272931
    7   -2692.3207237289      1.61e-05  
 Alpha HF Exchange    Energy = -10.84688299572710
 Beta HF Exchange     Energy = -10.65645463423700
 DFT Correlation      Energy =  -3.11800506998954
 DFT Exchange         Energy = -85.50997142578309
 One-Electron (alpha) Energy = -2039.87095296837333
 One-Electron (beta)  Energy = -2005.82764106489753
 Total Coulomb        Energy = 1308.92213450429836
    8   -2692.3207255636      6.62e-06  
 Alpha HF Exchange    Energy = -10.84692884691189
 Beta HF Exchange     Energy = -10.65645792724120
 DFT Correlation      Energy =  -3.11801292576022
 DFT Exchange         Energy = -85.51017016261517
 One-Electron (alpha) Energy = -2039.87308777610701
 One-Electron (beta)  Energy = -2005.82730687863113
 Total Coulomb        Energy = 1308.92419043038058
    9   -2692.3207259958      1.76e-06  
 Alpha HF Exchange    Energy = -10.84692877617060
 Beta HF Exchange     Energy = -10.65645111693763
 DFT Correlation      Energy =  -3.11800786754252
 DFT Exchange         Energy = -85.51013758847539
 One-Electron (alpha) Energy = -2039.87269967112729
 One-Electron (beta)  Energy = -2005.82647716873430
 Total Coulomb        Energy = 1308.92292802067118
   10   -2692.3207260773      9.11e-07  Convergence criterion met
 ---------------------------------------
 SCF time:   CPU 24.60s  wall 3.00s 
<S^2> =          2.005235208
 Alpha HF Exchange    Energy = -10.84692877617060
 Beta HF Exchange     Energy = -10.65645111693763
 DFT Correlation      Energy =  -3.11800786754252
 DFT Exchange         Energy = -85.51013758847539
 One-Electron (alpha) Energy = -2039.87269967112729
 One-Electron (beta)  Energy = -2005.82647716873430
 Total Coulomb        Energy = 1308.92292802067118
 Nuclear repulsion Energy = 154.58704809106248
 SCF   energy in the final basis set =    -2692.3207260773
 Total energy in the final basis set =    -2692.3207260773
 
 --------------------------------------------------------------
 
                    Orbital Energies (a.u.)
 --------------------------------------------------------------
 
 Alpha MOs
 -- Occupied --
******* -62.557 -56.381 -56.373 -56.373 -10.184 -10.184 -10.175
 -8.744  -6.581  -6.558  -6.558  -2.671  -2.666  -2.666  -2.649
 -2.649  -0.796  -0.777  -0.671  -0.577  -0.460  -0.425  -0.391
 -0.376  -0.371  -0.347  -0.330  -0.322  -0.322  -0.197
 -- Virtual --
  0.105   0.135   0.144   0.158   0.170   0.180   0.181   0.222
  0.232   0.273   0.288   0.313   0.315   0.517   0.534   0.535
  0.535   0.545   0.545   0.550   0.581   0.582   0.597   0.602
  0.660   0.696   0.789   0.813   0.860   0.878   0.883   0.912
  0.939   0.961   1.001   1.214   1.309   1.434   1.479   1.524
  1.602   1.678   1.683   1.824   1.876   1.955   1.980   2.000
  2.053   2.072   2.123   2.126   2.227   2.262   2.292   2.371
  2.442   2.451   2.524   2.576   2.677   2.711   2.743   2.803
  2.861   2.883   2.922   3.186   3.259   3.360   3.381   3.466
  3.480   3.557   4.241   4.431   4.607   4.649   4.657   4.657
  4.682   4.682   6.206  90.124
 
 Beta MOs
 -- Occupied --
******* -62.555 -56.375 -56.372 -56.372 -10.185 -10.174 -10.170
 -8.740  -6.570  -6.557  -6.557  -2.663  -2.660  -2.660  -2.648
 -2.648  -0.767  -0.753  -0.652  -0.563  -0.455  -0.420  -0.385
 -0.365  -0.342  -0.328  -0.308  -0.308
 -- Virtual --
 -0.235  -0.038   0.109   0.146   0.148   0.159   0.176   0.181
  0.188   0.226   0.237   0.280   0.315   0.318   0.323   0.521
  0.536   0.552   0.568   0.589   0.590   0.591   0.591   0.596
  0.600   0.639   0.671   0.711   0.793   0.820   0.863   0.880
  0.886   0.919   0.944   0.973   1.003   1.225   1.318   1.464
  1.484   1.539   1.624   1.684   1.696   1.833   1.880   1.958
  2.003   2.042   2.054   2.073   2.125   2.131   2.228   2.274
  2.293   2.377   2.446   2.462   2.534   2.601   2.683   2.712
  2.747   2.806   2.863   2.885   2.926   3.187   3.263   3.365
  3.382   3.468   3.485   3.560   4.260   4.447   4.609   4.668
  4.671   4.671   4.685   4.685   6.222  90.130
 --------------------------------------------------------------
 
          Ground-State Mulliken Net Atomic Charges

     Atom                 Charge (a.u.)    Spin (a.u.)
  --------------------------------------------------------
      1 Br                   -0.000364       1.000460
      2 C                    -0.189313      -0.073964
      3 C                    -0.219892       1.080218
      4 C                    -0.307136       0.049777
      5 H                     0.101609       0.011460
      6 H                     0.102259       0.014876
      7 H                     0.100925      -0.047664
      8 H                     0.101437      -0.047781
      9 H                     0.100337       0.013662
     10 H                     0.104939      -0.000651
     11 H                     0.105199      -0.000393
  --------------------------------------------------------
  Sum of atomic charges =     0.000000
  Sum of spin   charges =     2.000000

 -----------------------------------------------------------------
                    Cartesian Multipole Moments
 -----------------------------------------------------------------
    Charge (ESU x 10^10)
                 0.0000
    Dipole Moment (Debye)
         X      -0.2320      Y       0.0040      Z       0.0022
       Tot       0.2320
    Quadrupole Moments (Debye-Ang)
        XX     -39.6479     XY       0.2260     YY     -37.4389
        XZ      -0.0141     YZ      -0.0519     ZZ     -38.8356
    Octopole Moments (Debye-Ang^2)
       XXX    -201.1541    XXY      20.9521    XYY     -57.3823
       YYY      31.7855    XXZ      -0.0895    XYZ      -0.2956
       YYZ       0.1126    XZZ     -68.2727    YZZ      11.5114
       ZZZ       0.2809
    Hexadecapole Moments (Debye-Ang^3)
      XXXX   -3015.0074   XXXY     232.0301   XXYY    -479.9982
      XYYY     153.9027   YYYY    -120.2011   XXXZ      -0.1145
      XXYZ      -1.6930   XYYZ       0.7430   YYYZ      -0.7146
      XXZZ    -519.2062   XYZZ      58.9873   YYZZ     -30.1790
      XZZZ       1.5607   YZZZ      -0.5579   ZZZZ     -64.4319
 -----------------------------------------------------------------
 Calculating analytic gradient of the SCF energy
 Gradient of SCF Energy
            1           2           3           4           5           6
    1  -0.0001822   0.0000446   0.0002198  -0.0000185  -0.0000138  -0.0000213
    2   0.0000669  -0.0000575  -0.0000461  -0.0000183   0.0000192  -0.0000039
    3  -0.0000162  -0.0000167   0.0000129   0.0000088  -0.0000183  -0.0000097
            7           8           9          10          11
    1  -0.0000135  -0.0000343   0.0000012   0.0000061   0.0000118
    2   0.0000446   0.0000479  -0.0000214  -0.0000250  -0.0000063
    3   0.0000775  -0.0000700   0.0000032   0.0000144   0.0000141
 Max gradient component =       2.198E-04
 RMS gradient           =       5.893E-05
 Gradient time:  CPU 8.68 s  wall 0.75 s
 Geometry Optimization Parameters
   NAtoms,    NIC,     NZ,  NCons,   NDum,   NFix, NCnnct, MaxDiis
       11      85       0       1       0       0       0       0

 Cartesian Hessian Update
 Hessian Updated using BFGS Update


** CONSTRAINED OPTIMIZATION IN DELOCALIZED INTERNAL COORDINATES **
   Searching for a Minimum

   Optimization Cycle:  11

                       Coordinates (Angstroms)
     ATOM                X               Y               Z
      1  Br        4.8656412315   -0.6348802583   -0.0082165619
      2  C        -1.0627865811    0.5736599547    0.0142545584
      3  C         0.1814780636   -0.2500875147    0.0153001054
      4  C        -2.3594308304   -0.2704666459   -0.0161147902
      5  H        -1.0873587008    1.2165290560    0.9037047189
      6  H        -1.0666925699    1.2441720022   -0.8556641767
      7  H         0.5818142447   -0.6500152222   -0.9110493526
      8  H         0.6025157371   -0.6226584533    0.9436395463
      9  H        -3.2450148051    0.3748271579   -0.0180957592
     10  H        -2.3968780183   -0.9004576020   -0.9106418550
     11  H        -2.4204927714   -0.9280224744    0.8569815666
   Point Group: c1    Number of degrees of freedom:    27


   Energy is  -2692.320726077

              Constraints and their Current Values
                                        Value     Constraint
   Distance(Angs):        1   3             4.700000     4.700000
 Hessian Updated using BFGS Update

 26 Hessian modes will be used to form the next step
  Hessian Eigenvalues:
     0.003360    0.035769    0.044889    0.045001    0.047934    0.067816
     0.074306    0.076445    0.077527    0.082944    0.082994    0.103933
     0.132712    0.159278    0.160000    0.160010    0.215339    0.277518
     0.325786    0.330336    0.338370    0.339208    0.341505    0.342686
     0.342705    0.393974

 Minimum Search - Taking Simple RFO Step
 Searching for Lamda that Minimizes Along All modes
 Value Taken    Lamda =   0.00000000
 Step Taken.  Stepsize is  0.000767

                             Maximum     Tolerance    Cnvgd?
         Gradient           0.000083      0.000300     YES
         Displacement       0.000416      0.001200     YES
         Energy change     -0.000001      0.000001      NO


                       Distance Matrix (Angstroms)
             Br(  1)   C (  2)   C (  3)   C (  4)   H (  5)   H (  6)
   C (  2)  6.050399
   C (  3)  4.700000  1.492232
   C (  4)  7.234261  1.547501  2.541185
   H (  5)  6.300597  1.097728  2.133114  2.162265
   H (  6)  6.280254  1.098344  2.132914  2.161052  1.759707
   H (  7)  4.377957  2.249062  1.085511  3.097723  3.092484  2.511690
   H (  8)  4.368114  2.251259  1.085309  3.133416  2.497975  3.083635
   H (  9)  8.173270  2.191507  3.483172  1.095750  2.492721  2.490456
   H ( 10)  7.323188  2.192774  2.815718  1.094746  3.080313  2.524253
   H ( 11)  7.343177  2.192853  2.817495  1.094717  2.525575  3.079669
             H (  7)   H (  8)   H (  9)   H ( 10)
   H (  8)  1.855006
   H (  9)  4.061070  4.089426
   H ( 10)  2.989202  3.537216  1.772661
   H ( 11)  3.495292  3.039628  1.772855  1.767996
 
 Final energy is   -2692.32072607725     


 ******************************
 **  OPTIMIZATION CONVERGED  **
 ******************************

                       Coordinates (Angstroms)
     ATOM                X               Y               Z
      1  Br        4.8656412315   -0.6348802583   -0.0082165619
      2  C        -1.0627865811    0.5736599547    0.0142545584
      3  C         0.1814780636   -0.2500875147    0.0153001054
      4  C        -2.3594308304   -0.2704666459   -0.0161147902
      5  H        -1.0873587008    1.2165290560    0.9037047189
      6  H        -1.0666925699    1.2441720022   -0.8556641767
      7  H         0.5818142447   -0.6500152222   -0.9110493526
      8  H         0.6025157371   -0.6226584533    0.9436395463
      9  H        -3.2450148051    0.3748271579   -0.0180957592
     10  H        -2.3968780183   -0.9004576020   -0.9106418550
     11  H        -2.4204927714   -0.9280224744    0.8569815666

Z-matrix Print:
$molecule
0 3
Br
H  1 4.368114
C  2 1.085309 1 101.138738
H  3 1.085511 2 117.413165 1 43.108959 0
C  3 1.492232 2 120.902491 1 -148.258944 0
H  5 1.097728 3 109.961113 2 35.242629 0
H  5 1.098344 3 109.908384 2 152.183481 0
C  5 1.547501 3 113.425619 2 -86.388789 0
H  8 1.094717 5 111.022401 3 60.000409 0
H  8 1.094746 5 111.014326 3 -59.778289 0
H  8 1.095750 5 110.853958 3 -179.874042 0
$end

PES scan, value:    4.7000 energy: -2692.3207260773
------- Summary of potential scan: ------ 
    4.7000     -2692.3207260773
----------------------------------------- 
Archival summary:
1\1\hpc0242\JobtypUnspecified\ProcedureUnspecified\6-31G**\r137(3)\knomura\WedMar1317:20:462019WedMar1317:20:462019\0\\#,JobtypUnspecified,ProcedureUnspecified,6-31G**,\\0,3\Br\H,1,4.36811\C,2,1.08531,1,101.139\H,3,1.08551,2,117.413,1,43.109,0\C,3,1.49223,2,120.902,1,-148.259,0\H,5,1.09773,3,109.961,2,35.2426,0\H,5,1.09834,3,109.908,2,152.183,0\C,5,1.5475,3,113.426,2,-86.3888,0\H,8,1.09472,5,111.022,3,60.0004,0\H,8,1.09475,5,111.014,3,-59.7783,0\H,8,1.09575,5,110.854,3,-179.874,0\\\@

 Total job time:  36.63s(wall), 417.94s(cpu) 
 Wed Mar 13 17:20:46 2019

        *************************************************************
        *                                                           *
        *  Thank you very much for using Q-Chem.  Have a nice day.  *
        *                                                           *
        *************************************************************


