
Running Job 1 of 1 halogens/Bromine/02/Br_3.xyz.data/inputs/bond_triplet_3.8.in
qchem halogens/Bromine/02/Br_3.xyz.data/inputs/bond_triplet_3.8.in_28401.0 /staging/scratch/2868759/qchem28401/ 1
/usr/usc/qchem/5.1.1/exe/qcprog.exe_s halogens/Bromine/02/Br_3.xyz.data/inputs/bond_triplet_3.8.in_28401.0 /staging/scratch/2868759/qchem28401/
Check license passed

                  Welcome to Q-Chem
     A Quantum Leap Into The Future Of Chemistry


 Q-Chem 5.1, Q-Chem, Inc., Pleasanton, CA (2018)

 Yihan Shao,  Zhengting Gan,  E. Epifanovsky,  A. T. B. Gilbert,  M. Wormit,  
 J. Kussmann,  A. W. Lange,  A. Behn,  Jia Deng,  Xintian Feng,  D. Ghosh,  
 M. Goldey,  P. R. Horn,  L. D. Jacobson,  I. Kaliman,  T. Kus,  A. Landau,  
 Jie Liu,  E. I. Proynov,  R. M. Richard,  R. P. Steele,  E. J. Sundstrom,  
 H. L. Woodcock III,  P. M. Zimmerman,  D. Zuev,  B. Albrecht,  E. Alguire,  
 S. A. Baeppler,  D. Barton,  Z. Benda,  Y. A. Bernard,  E. J. Berquist,  
 K. B. Bravaya,  H. Burton,  D. Casanova,  Chun-Min Chang,  Yunqing Chen,  
 A. Chien,  K. D. Closser,  M. P. Coons,  S. Coriani,  S. Dasgupta,  
 A. L. Dempwolff,  M. Diedenhofen,  Hainam Do,  R. G. Edgar,  Po-Tung Fang,  
 S. Faraji,  S. Fatehi,  Qingguo Feng,  K. D. Fenk,  J. Fosso-Tande,  
 Qinghui Ge,  A. Ghysels,  G. Gidofalvi,  J. Gomes,  J. Gonthier,  A. Gunina,  
 D. Hait,  M. W. D. Hanson-Heine,  P. H. P. Harbach,  A. W. Hauser,  
 J. E. Herr,  E. G. Hohenstein,  Z. C. Holden,  Kerwin Hui,  B. C. Huynh,  
 T.-C. Jagau,  Hyunjun Ji,  B. Kaduk,  K. Khistyaev,  Jaehoon Kim,  
 P. Klunzinger,  K. Koh,  D. Kosenkov,  L. Koulias,  T. Kowalczyk,  
 C. M. Krauter,  A. Kunitsa,  Ka Un Lao,  A. Laurent,  K. V. Lawler,  
 Joonho Lee,  D. Lefrancois,  S. Lehtola,  D. S. Levine,  Yi-Pei Li,  
 You-Sheng Lin,  Fenglai Liu,  E. Livshits,  A. Luenser,  P. Manohar,  
 E. Mansoor,  S. F. Manzer,  Shan-Ping Mao,  Yuezhi Mao,  N. Mardirossian,  
 A. V. Marenich,  T. Markovich,  L. A. Martinez-Martinez,  S. A. Maurer,  
 N. J. Mayhall,  S. C. McKenzie,  J.-M. Mewes,  A. F. Morrison,  
 J. W. Mullinax,  K. Nanda,  T. S. Nguyen-Beck,  R. Olivares-Amaya,  
 J. A. Parkhill,  T. M. Perrine,  F. Plasser,  P. Pokhilko,  S. Prager,  
 A. Prociuk,  E. Ramos,  D. R. Rehn,  F. Rob,  M. Schneider,  N. Sergueev,  
 S. M. Sharada,  S. Sharma,  D. W. Small,  T. Stauch,  T. Stein,  
 Yu-Chuan Su,  A. J. W. Thom,  A. Tkatchenko,  T. Tsuchimochi,  N. M. Tubman,  
 L. Vogt,  M. L. Vidal,  O. Vydrov,  M. A. Watson,  J. Wenzel,  
 M. de Wergifosse,  T. A. Wesolowski,  A. White,  J. Witte,  A. Yamada,  
 Jun Yang,  K. Yao,  S. Yeganeh,  S. R. Yost,  Zhi-Qiang You,  A. Zech,  
 Igor Ying Zhang,  Xing Zhang,  Yan Zhao,  Ying Zhu,  B. R. Brooks,  
 G. K. L. Chan,  C. J. Cramer,  M. S. Gordon,  W. J. Hehre,  A. Klamt,  
 M. W. Schmidt,  C. D. Sherrill,  D. G. Truhlar,  A. Aspuru-Guzik,  R. Baer,  
 A. T. Bell,  N. A. Besley,  Jeng-Da Chai,  A. E. DePrince, III,  
 R. A. DiStasio Jr.,  A. Dreuw,  B. D. Dunietz,  T. R. Furlani,  
 Chao-Ping Hsu,  Yousung Jung,  Jing Kong,  D. S. Lambrecht,  WanZhen Liang,  
 C. Ochsenfeld,  V. A. Rassolov,  L. V. Slipchenko,  J. E. Subotnik,  
 T. Van Voorhis,  J. M. Herbert,  A. I. Krylov,  P. M. W. Gill,  M. Head-Gordon

 Contributors to earlier versions of Q-Chem not listed above: 
 R. D. Adamson,  B. Austin,  J. Baker,  G. J. O. Beran,  K. Brandhorst,  
 S. T. Brown,  E. F. C. Byrd,  A. K. Chakraborty,  C.-L. Cheng,  
 Siu Hung Chien,  D. M. Chipman,  D. L. Crittenden,  H. Dachsel,  
 R. J. Doerksen,  A. D. Dutoi,  L. Fusti-Molnar,  W. A. Goddard III,  
 A. Golubeva-Zadorozhnaya,  S. R. Gwaltney,  G. Hawkins,  A. Heyden,  
 S. Hirata,  G. Kedziora,  F. J. Keil,  C. Kelley,  Jihan Kim,  R. A. King,  
 R. Z. Khaliullin,  P. P. Korambath,  W. Kurlancheek,  A. M. Lee,  M. S. Lee,  
 S. V. Levchenko,  Ching Yeh Lin,  D. Liotard,  R. C. Lochan,  I. Lotan,  
 P. E. Maslen,  N. Nair,  D. P. O'Neill,  D. Neuhauser,  E. Neuscamman,  
 C. M. Oana,  R. Olson,  B. Peters,  R. Peverati,  P. A. Pieniazek,  
 Y. M. Rhee,  J. Ritchie,  M. A. Rohrdanz,  E. Rosta,  N. J. Russ,  
 H. F. Schaefer III,  N. E. Schultz,  N. Shenvi,  A. C. Simmonett,  A. Sodt,  
 D. Stuck,  K. S. Thanthiriwatte,  V. Vanovschi,  Tao Wang,  A. Warshel,  
 C. F. Williams,  Q. Wu,  X. Xu,  W. Zhang

 Please cite Q-Chem as follows:
 Y. Shao et al., Mol. Phys. 113, 184-215 (2015)
 DOI: 10.1080/00268976.2014.952696

 Q-Chem 5.1.1 for Intel X86 EM64T Linux

 Parts of Q-Chem use Armadillo 8.300.2 (Tropical Shenanigans).
 http://arma.sourceforge.net/

 Q-Chem begins on Wed Mar 13 17:31:32 2019  

Host: 
0

     Scratch files written to /staging/scratch/2868759/qchem28401//
 Aug318 |scratch|qcdevops|jenkins|workspace|build_RNUM 6013   
Processing $rem in /usr/usc/qchem/5.1.1/config/preferences.
 MEM_TOTAL  2000 
Input Ideriv = 2
Curr. Ideriv = -1
Max.  Ideriv = 2

Checking the input file for inconsistencies... 	...done.

--------------------------------------------------------------
User input:
--------------------------------------------------------------

$comment
potential surface scanner
$end

$rem
JOBTYPE  PES_SCAN
UNRESTRICTED TRUE
SYM_IGNORE  TRUE
GEOM_OPT_MAX_CYCLES 400
SCF_MAX_CYCLES 400
METHOD   B3LYP
BASIS   6-31G**
PDB_PRINT 2
SCF_CONVERGENCE 6
THRESH 14
SCF_PRINT 1
$end
$molecule
0 3
Br 4.076178 -0.041434 0.009966
C -0.894762 0.482396 0.007670
C 0.206305 -0.525247 0.006014
C -2.306234 -0.152046 -0.008817
H -0.812518 1.124483 0.894359
H -0.799927 1.141179 -0.865516
H 0.557959 -0.964027 -0.922321
H 0.553898 -0.972348 0.931853
H -3.082398 0.621398 -0.007048
H -2.446400 -0.772261 -0.899904
H -2.459316 -0.789493 0.867845
$end
$scan
stre 1 3 3.800000 3.801000 0.100000
$end
--------------------------------------------------------------
 ----------------------------------------------------------------
             Standard Nuclear Orientation (Angstroms)
    I     Atom           X                Y                Z
 ----------------------------------------------------------------
    1      Br      4.0761780000    -0.0414340000     0.0099660000
    2      C      -0.8947620000     0.4823960000     0.0076700000
    3      C       0.2063050000    -0.5252470000     0.0060140000
    4      C      -2.3062340000    -0.1520460000    -0.0088170000
    5      H      -0.8125180000     1.1244830000     0.8943590000
    6      H      -0.7999270000     1.1411790000    -0.8655160000
    7      H       0.5579590000    -0.9640270000    -0.9223210000
    8      H       0.5538980000    -0.9723480000     0.9318530000
    9      H      -3.0823980000     0.6213980000    -0.0070480000
   10      H      -2.4464000000    -0.7722610000    -0.8999040000
   11      H      -2.4593160000    -0.7894930000     0.8678450000
 ----------------------------------------------------------------
 Nuclear Repulsion Energy =   168.9635481188 hartrees
 There are       31 alpha and       29 beta electrons
 Requested basis set is 6-31G(d,p)
 There are 41 shells and 115 basis functions

 Total QAlloc Memory Limit   2000 MB
 Mega-Array Size       188 MB
 MEM_STATIC part       192 MB
A total of 1 constraints
  
            1
    1   1.0100000
    2   1.0100000
    3   3.0100000
    4   3.8000000
    5   3.8010000
    6   0.1000000
    7   0.0000000
    8   0.0000000
    9   0.0000000
   10   0.0000000

                       Distance Matrix (Angstroms)
             Br(  1)   C (  2)   C (  3)   C (  4)   H (  5)   H (  6)
   C (  2)  4.998465
   C (  3)  3.900001  1.492547
   C (  4)  6.383398  1.547592  2.540148
   H (  5)  5.103025  1.097842  2.132784  2.162508
   H (  6)  5.093274  1.097926  2.132849  2.162250  1.759999
   H (  7)  3.754757  2.251093  1.085354  3.114066  3.088755  2.505788
   H (  8)  3.758049  2.251446  1.085310  3.120595  2.503038  3.087130
   H (  9)  7.189217  2.192097  3.482891  1.095741  2.493589  2.493354
   H ( 10)  6.626160  2.192130  2.813991  1.094691  3.080031  2.524541
   H ( 11)  6.633870  2.192130  2.813914  1.094673  2.525065  3.079871
             H (  7)   H (  8)   H (  9)   H ( 10)
   H (  8)  1.854197
   H (  9)  4.074739  4.079732
   H ( 10)  3.010556  3.520960  1.773125
   H ( 11)  3.512706  3.019436  1.773212  1.767880
 
 A cutoff of  1.0D-14 yielded    747 shell pairs
 There are      5582 function pairs
 
 -------------------------------------------------------
 OpenMP Integral Computing Module                       
 Release: version 1.0, May 2013, Q-Chem Inc. Pittsburgh 
 -------------------------------------------------------
 Integral Job Info:
 Integral job number is                      11
 Integral operator is                         1
 short-range coefficients                     0
 long-range coefficients              100000000
 Omega coefficients                           0
 if combine SR and LR in K                    0
 Integral screening is                        0
 Integral computing path is                   2
 max size of driver memory is            800000
 size of driver memory is                593474
 size of scratch memory is             15267112
 max col of scratch BK array               1296
 max len of scratch array in speh3          155
 max len of scratch index in speh4           18
 max int batch size is                      520
 min int batch size is                       52
 fixed nKL is                                52
 max L of basis functions is                  2
 order of int derivative is                   0
 number of shells is                         41
 number of basis is                         115
 number of cartesian basis is               115
 number of contracted shell pairs           747
 number of primitive shell pairs           2838
 maxK2 (contraction) of shell pair           36
 max number of K2 of shell pair               1
 max number of CS2 of shell pair             59
 max number of PS2 of shell pair            246
 mem total for path MDJ                  515340
 -------------------------------------------------------
 Smallest overlap matrix eigenvalue = 7.27E-04

 Scale SEOQF with 1.000000e-01/1.000000e+00/1.000000e+00

 Standard Electronic Orientation quadrupole field applied
 Nucleus-field energy     =     0.0000000244 hartrees
 Guess from superposition of atomic densities
 Warning:  Energy on first SCF cycle will be non-variational
 SAD guess density has 59.972873 electrons

 -----------------------------------------------------------------------
  General SCF calculation program by
  Eric Jon Sundstrom, Paul Horn, Yuezhi Mao, Dmitri Zuev, Alec White,
  David Stuck, Shaama M.S., Shane Yost, Joonho Lee, David Small,
  Daniel Levine, Susi Lehtola, Hugh Burton, Evgeny Epifanovsky
 -----------------------------------------------------------------------
 Exchange:     0.2000 Hartree-Fock + 0.0800 Slater + 0.7200 B88
 Correlation:  0.1900 VWN1RPA + 0.8100 LYP
 Using SG-1 standard quadrature grid
 using 12 threads for integral computing
 -------------------------------------------------------
 OpenMP Integral computing Module                
 Release: version 1.0, May 2013, Q-Chem Inc. Pittsburgh 
 -------------------------------------------------------
 -------------------------------------------------------
 OpenMP BLAS3 based DFT computing Module                
 Release: version 1.0, May 2013, Q-Chem Inc. Pittsburgh 
 -------------------------------------------------------
 A unrestricted SCF calculation will be
 performed using DIIS
 SCF converges when DIIS error is below 1.0e-06
 Alpha HF Exchange    Energy = -10.71113509501153
 Beta HF Exchange     Energy = -10.71113509501153
 DFT Correlation      Energy =  -3.10506467341359
 DFT Exchange         Energy = -84.97269046635375
 One-Electron (alpha) Energy = -2035.59478186676301
 One-Electron (beta)  Energy = -2035.59478186676301
 Total Coulomb        Energy = 1316.19639520512442
 ---------------------------------------
  Cycle       Energy         DIIS error
 ---------------------------------------
    1   -2695.5296457150      1.64e-01  
 Alpha HF Exchange    Energy = -10.89570068789063
 Beta HF Exchange     Energy = -10.70084372198434
 DFT Correlation      Energy =  -3.13712830584259
 DFT Exchange         Energy = -85.89513131161067
 One-Electron (alpha) Energy = -2058.64887249822368
 One-Electron (beta)  Energy = -2023.25561083779485
 Total Coulomb        Energy = 1331.35266694667621
    2   -2692.2170722734      9.50e-03  
 Alpha HF Exchange    Energy = -10.79854048893120
 Beta HF Exchange     Energy = -10.61385649281311
 DFT Correlation      Energy =  -3.10258376925818
 DFT Exchange         Energy = -85.14449435386521
 One-Electron (alpha) Energy = -2051.19681954162570
 One-Electron (beta)  Energy = -2016.30559461252824
 Total Coulomb        Energy = 1315.98036545214927
    3   -2692.2179756636      4.12e-03  
 Alpha HF Exchange    Energy = -10.87282678153583
 Beta HF Exchange     Energy = -10.67999749309806
 DFT Correlation      Energy =  -3.12859122795441
 DFT Exchange         Energy = -85.71188092554442
 One-Electron (alpha) Energy = -2056.78116683500230
 One-Electron (beta)  Energy = -2021.28432695769902
 Total Coulomb        Energy = 1327.21733711073375
    4   -2692.2779049669      2.64e-03  
 Alpha HF Exchange    Energy = -10.84910987690702
 Beta HF Exchange     Energy = -10.65780371927811
 DFT Correlation      Energy =  -3.11913798479841
 DFT Exchange         Energy = -85.52415039597702
 One-Electron (alpha) Energy = -2055.16320299109930
 One-Electron (beta)  Energy = -2019.74674751271618
 Total Coulomb        Energy = 1323.77597949227743
    5   -2692.3206248453      3.13e-04  
 Alpha HF Exchange    Energy = -10.84699856346198
 Beta HF Exchange     Energy = -10.65635187353716
 DFT Correlation      Energy =  -3.11891026005700
 DFT Exchange         Energy = -85.51056072693309
 One-Electron (alpha) Energy = -2054.96138857025335
 One-Electron (beta)  Energy = -2019.56730709670069
 Total Coulomb        Energy = 1323.37690818443753
    6   -2692.3210607633      5.56e-05  
 Alpha HF Exchange    Energy = -10.84690621058192
 Beta HF Exchange     Energy = -10.65610077778659
 DFT Correlation      Energy =  -3.11877309836002
 DFT Exchange         Energy = -85.50906232532265
 One-Electron (alpha) Energy = -2054.94893598627232
 One-Electron (beta)  Energy = -2019.54731337990142
 Total Coulomb        Energy = 1323.34245904054546
    7   -2692.3210845945      1.74e-05  
 Alpha HF Exchange    Energy = -10.84697241890975
 Beta HF Exchange     Energy = -10.65616576248977
 DFT Correlation      Energy =  -3.11875219763059
 DFT Exchange         Energy = -85.50951689187657
 One-Electron (alpha) Energy = -2054.95870694360383
 One-Electron (beta)  Energy = -2019.55246018330217
 Total Coulomb        Energy = 1323.35793649960351
    8   -2692.3210897550      8.43e-06  
 Alpha HF Exchange    Energy = -10.84701918101296
 Beta HF Exchange     Energy = -10.65616936950981
 DFT Correlation      Energy =  -3.11875806160392
 DFT Exchange         Energy = -85.50971893424435
 One-Electron (alpha) Energy = -2054.96101965493745
 One-Electron (beta)  Energy = -2019.55169828147541
 Total Coulomb        Energy = 1323.35974120207698
    9   -2692.3210941375      5.29e-06  
 Alpha HF Exchange    Energy = -10.84701947791216
 Beta HF Exchange     Energy = -10.65616209961444
 DFT Correlation      Energy =  -3.11875124330805
 DFT Exchange         Energy = -85.50968726978095
 One-Electron (alpha) Energy = -2054.96069239591179
 One-Electron (beta)  Energy = -2019.55038928787485
 Total Coulomb        Energy = 1323.35805481080001
   10   -2692.3210988204      5.10e-06  
 Alpha HF Exchange    Energy = -10.84701957854084
 Beta HF Exchange     Energy = -10.65616041475210
 DFT Correlation      Energy =  -3.11874949935766
 DFT Exchange         Energy = -85.50968181735071
 One-Electron (alpha) Energy = -2054.96074362140916
 One-Electron (beta)  Energy = -2019.55011486103899
 Total Coulomb        Energy = 1323.35781984927530
   11   -2692.3211017999      5.05e-06  
 Alpha HF Exchange    Energy = -10.84701955238442
 Beta HF Exchange     Energy = -10.65615938938223
 DFT Correlation      Energy =  -3.11874838840585
 DFT Exchange         Energy = -85.50967880066943
 One-Electron (alpha) Energy = -2054.96074352973073
 One-Electron (beta)  Energy = -2019.54986122233345
 Total Coulomb        Energy = 1323.35755824649800
   12   -2692.3211044932      5.06e-06  
 Alpha HF Exchange    Energy = -10.84701876962566
 Beta HF Exchange     Energy = -10.65616439007139
 DFT Correlation      Energy =  -3.11875494308711
 DFT Exchange         Energy = -85.50968829596209
 One-Electron (alpha) Energy = -2054.96054727439559
 One-Electron (beta)  Energy = -2019.55150245034065
 Total Coulomb        Energy = 1323.35904115629000
   13   -2692.3210868240      5.02e-06  
 Alpha HF Exchange    Energy = -10.84701298182314
 Beta HF Exchange     Energy = -10.65622013979760
 DFT Correlation      Energy =  -3.11878183982932
 DFT Exchange         Energy = -85.50984013297736
 One-Electron (alpha) Energy = -2054.95922343809616
 One-Electron (beta)  Energy = -2019.56245146381252
 Total Coulomb        Energy = 1323.36897683388224
   14   -2692.3210050192      1.13e-05  
 Alpha HF Exchange    Energy = -10.84698696826953
 Beta HF Exchange     Energy = -10.65653888198666
 DFT Correlation      Energy =  -3.11879657325058
 DFT Exchange         Energy = -85.51083775555129
 One-Electron (alpha) Energy = -2054.95335026891780
 One-Electron (beta)  Energy = -2019.60363625569607
 Total Coulomb        Energy = 1323.40580188046192
   15   -2692.3207966800      8.96e-05  
 Alpha HF Exchange    Energy = -10.84701235305462
 Beta HF Exchange     Energy = -10.65626895668274
 DFT Correlation      Energy =  -3.11879153880558
 DFT Exchange         Energy = -85.51000210103747
 One-Electron (alpha) Energy = -2054.95870953715621
 One-Electron (beta)  Energy = -2019.56980068658822
 Total Coulomb        Energy = 1323.37607053416082
   16   -2692.3209664959      2.16e-05  
 Alpha HF Exchange    Energy = -10.84701258557219
 Beta HF Exchange     Energy = -10.65626545598560
 DFT Correlation      Energy =  -3.11879056682528
 DFT Exchange         Energy = -85.50999145351709
 One-Electron (alpha) Energy = -2054.95876781667903
 One-Electron (beta)  Energy = -2019.56924923809993
 Total Coulomb        Energy = 1323.37555925846050
   17   -2692.3209697150      2.10e-05  
 Alpha HF Exchange    Energy = -10.84701067423436
 Beta HF Exchange     Energy = -10.65626259813504
 DFT Correlation      Energy =  -3.11879496167599
 DFT Exchange         Energy = -85.50996887657912
 One-Electron (alpha) Energy = -2054.95854217195165
 One-Electron (beta)  Energy = -2019.56950748889335
 Total Coulomb        Energy = 1323.37557851397150
   18   -2692.3209601143      1.95e-05  
 Alpha HF Exchange    Energy = -10.84694820893878
 Beta HF Exchange     Energy = -10.65680261604362
 DFT Correlation      Energy =  -3.11879884912674
 DFT Exchange         Energy = -85.51159203306787
 One-Electron (alpha) Energy = -2054.94657167413834
 One-Electron (beta)  Energy = -2019.63410393693061
 Total Coulomb        Energy = 1323.43070247765172
   19   -2692.3205666974      1.55e-04  
 Alpha HF Exchange    Energy = -10.84693402031002
 Beta HF Exchange     Energy = -10.65688225686255
 DFT Correlation      Energy =  -3.11878651136854
 DFT Exchange         Energy = -85.51182553240000
 One-Electron (alpha) Energy = -2054.94403832575881
 One-Electron (beta)  Energy = -2019.64260231694607
 Total Coulomb        Energy = 1323.43703394291651
   20   -2692.3204868775      1.78e-04  
 Alpha HF Exchange    Energy = -10.84694176879813
 Beta HF Exchange     Energy = -10.65682102806984
 DFT Correlation      Energy =  -3.11880015417008
 DFT Exchange         Energy = -85.51162320306055
 One-Electron (alpha) Energy = -2054.94595659880179
 One-Electron (beta)  Energy = -2019.63591454089760
 Total Coulomb        Energy = 1323.43196136197116
   21   -2692.3205477886      1.59e-04  
 Alpha HF Exchange    Energy = -10.84695114130588
 Beta HF Exchange     Energy = -10.65674283401170
 DFT Correlation      Energy =  -3.11881289193636
 DFT Exchange         Energy = -85.51137230005862
 One-Electron (alpha) Energy = -2054.94790967391737
 One-Electron (beta)  Energy = -2019.62741729717322
 Total Coulomb        Energy = 1323.42504285293853
   22   -2692.3206151422      1.36e-04  
 Alpha HF Exchange    Energy = -10.84696762610124
 Beta HF Exchange     Energy = -10.65658946809622
 DFT Correlation      Energy =  -3.11883781263817
 DFT Exchange         Energy = -85.51086750332266
 One-Electron (alpha) Energy = -2054.95167883450995
 One-Electron (beta)  Energy = -2019.61093712457091
 Total Coulomb        Energy = 1323.41161512027043
   23   -2692.3207151057      9.04e-05  
 Alpha HF Exchange    Energy = -10.84698147719648
 Beta HF Exchange     Energy = -10.65648998037434
 DFT Correlation      Energy =  -3.11885770288527
 DFT Exchange         Energy = -85.51055183150676
 One-Electron (alpha) Energy = -2054.95454647315364
 One-Electron (beta)  Energy = -2019.59978176733080
 Total Coulomb        Energy = 1323.40290170302433
   24   -2692.3207593862      5.90e-05  
 Alpha HF Exchange    Energy = -10.84699937123715
 Beta HF Exchange     Energy = -10.65627924337700
 DFT Correlation      Energy =  -3.11888834463195
 DFT Exchange         Energy = -85.50984408062899
 One-Electron (alpha) Energy = -2054.95873169511879
 One-Electron (beta)  Energy = -2019.57672125508748
 Total Coulomb        Energy = 1323.38312321463809
   25   -2692.3207926322      1.93e-06  
 Alpha HF Exchange    Energy = -10.84700060203948
 Beta HF Exchange     Energy = -10.65628587068591
 DFT Correlation      Energy =  -3.11888919650564
 DFT Exchange         Energy = -85.50986975641982
 One-Electron (alpha) Energy = -2054.95890540637856
 One-Electron (beta)  Energy = -2019.57720453970023
 Total Coulomb        Energy = 1323.38381476139898
   26   -2692.3207924671      9.80e-07  Convergence criterion met
 ---------------------------------------
 SCF time:   CPU 64.89s  wall 6.00s 
<S^2> =          2.005244564
 Alpha HF Exchange    Energy = -10.84700060203948
 Beta HF Exchange     Energy = -10.65628587068591
 DFT Correlation      Energy =  -3.11888919650564
 DFT Exchange         Energy = -85.50986975641982
 One-Electron (alpha) Energy = -2054.95890540637856
 One-Electron (beta)  Energy = -2019.57720453970023
 Total Coulomb        Energy = 1323.38381476139898
 Nuclear repulsion Energy = 168.96354814322478
 SCF   energy in the final basis set =    -2692.3207924671
 Total energy in the final basis set =    -2692.3207924671
 
 --------------------------------------------------------------
 
                    Orbital Energies (a.u.)
 --------------------------------------------------------------
 
 Alpha MOs
 -- Occupied --
******* -62.554 -56.379 -56.371 -56.371 -10.184 -10.183 -10.175
 -8.742  -6.578  -6.556  -6.556  -2.669  -2.664  -2.664  -2.647
 -2.647  -0.794  -0.777  -0.671  -0.577  -0.459  -0.425  -0.390
 -0.376  -0.369  -0.347  -0.330  -0.320  -0.320  -0.195
 -- Virtual --
  0.104   0.135   0.144   0.159   0.171   0.180   0.184   0.222
  0.232   0.273   0.292   0.317   0.318   0.516   0.533   0.535
  0.537   0.547   0.547   0.553   0.576   0.583   0.598   0.651
  0.666   0.721   0.790   0.815   0.861   0.879   0.884   0.912
  0.938   0.961   1.001   1.214   1.309   1.436   1.479   1.523
  1.603   1.683   1.690   1.825   1.879   1.956   1.982   2.005
  2.053   2.072   2.125   2.126   2.227   2.263   2.292   2.373
  2.443   2.451   2.527   2.576   2.678   2.711   2.742   2.803
  2.863   2.883   2.923   3.186   3.259   3.361   3.380   3.466
  3.480   3.558   4.243   4.432   4.608   4.651   4.659   4.659
  4.684   4.686   6.213  90.139
 
 Beta MOs
 -- Occupied --
******* -62.553 -56.373 -56.370 -56.370 -10.185 -10.174 -10.170
 -8.738  -6.567  -6.554  -6.554  -2.661  -2.657  -2.657  -2.646
 -2.646  -0.767  -0.751  -0.652  -0.563  -0.455  -0.420  -0.385
 -0.364  -0.342  -0.328  -0.306  -0.305
 -- Virtual --
 -0.233  -0.038   0.108   0.146   0.147   0.160   0.176   0.181
  0.193   0.226   0.237   0.282   0.318   0.322   0.330   0.521
  0.537   0.553   0.569   0.585   0.591   0.592   0.593   0.597
  0.601   0.668   0.676   0.751   0.794   0.823   0.864   0.881
  0.888   0.919   0.944   0.974   1.004   1.225   1.319   1.468
  1.483   1.537   1.624   1.684   1.709   1.834   1.883   1.959
  2.003   2.047   2.054   2.073   2.126   2.134   2.228   2.275
  2.293   2.378   2.448   2.462   2.537   2.601   2.684   2.712
  2.746   2.806   2.865   2.885   2.926   3.187   3.263   3.366
  3.382   3.468   3.486   3.561   4.262   4.448   4.610   4.670
  4.673   4.674   4.687   4.689   6.229  90.145
 --------------------------------------------------------------
 
          Ground-State Mulliken Net Atomic Charges

     Atom                 Charge (a.u.)    Spin (a.u.)
  --------------------------------------------------------
      1 Br                   -0.003219       1.005499
      2 C                    -0.190983      -0.073552
      3 C                    -0.215369       1.074657
      4 C                    -0.306999       0.049698
      5 H                     0.101716       0.012812
      6 H                     0.101873       0.013443
      7 H                     0.101252      -0.047660
      8 H                     0.101460      -0.047672
      9 H                     0.100067       0.013806
     10 H                     0.105075      -0.000539
     11 H                     0.105126      -0.000491
  --------------------------------------------------------
  Sum of atomic charges =    -0.000000
  Sum of spin   charges =     2.000000

 -----------------------------------------------------------------
                    Cartesian Multipole Moments
 -----------------------------------------------------------------
    Charge (ESU x 10^10)
                -0.0000
    Dipole Moment (Debye)
         X      -0.2675      Y       0.0290      Z      -0.0002
       Tot       0.2691
    Quadrupole Moments (Debye-Ang)
        XX     -40.4286     XY      -0.6901     YY     -36.9595
        XZ      -0.0122     YZ       0.0617     ZZ     -38.8421
    Octopole Moments (Debye-Ang^2)
       XXX    -166.7153    XXY       1.9528    XYY     -43.5889
       YYY       7.3765    XXZ      -0.2281    XYZ       0.2833
       YYZ      -0.1803    XZZ     -55.0912    YZZ       1.6301
       ZZZ      -0.6277
    Hexadecapole Moments (Debye-Ang^3)
      XXXX   -2240.1429   XXXY       6.0799   XXYY    -337.2216
      XYYY      12.1799   YYYY     -84.3785   XXXZ      -2.8889
      XXYZ       1.1463   XYYZ      -0.8195   YYYZ       0.0020
      XXZZ    -381.9593   XYZZ       5.1222   YYZZ     -22.9225
      XZZZ      -2.6523   YZZZ       0.0870   ZZZZ     -64.4366
 -----------------------------------------------------------------
 Calculating analytic gradient of the SCF energy
 Gradient of SCF Energy
            1           2           3           4           5           6
    1  -0.0005905   0.0000834   0.0005767  -0.0000340  -0.0000048  -0.0000025
    2  -0.0000588  -0.0000140   0.0000550  -0.0000065  -0.0000010   0.0000049
    3   0.0000049   0.0000031  -0.0000021  -0.0000028   0.0000001   0.0000051
            7           8           9          10          11
    1  -0.0000256  -0.0000193   0.0000094   0.0000043   0.0000028
    2   0.0000045   0.0000055   0.0000026   0.0000058   0.0000021
    3   0.0000394  -0.0000416  -0.0000006  -0.0000006  -0.0000051
 Max gradient component =       5.905E-04
 RMS gradient           =       1.457E-04
 Gradient time:  CPU 9.27 s  wall 0.83 s
 Geometry Optimization Parameters
   NAtoms,    NIC,     NZ,  NCons,   NDum,   NFix, NCnnct, MaxDiis
       11      85       0       1       0       0       0       0


** CONSTRAINED OPTIMIZATION IN DELOCALIZED INTERNAL COORDINATES **
   Searching for a Minimum

   Optimization Cycle:   1

                       Coordinates (Angstroms)
     ATOM                X               Y               Z
      1  Br        4.0761780000   -0.0414340000    0.0099660000
      2  C        -0.8947620000    0.4823960000    0.0076700000
      3  C         0.2063050000   -0.5252470000    0.0060140000
      4  C        -2.3062340000   -0.1520460000   -0.0088170000
      5  H        -0.8125180000    1.1244830000    0.8943590000
      6  H        -0.7999270000    1.1411790000   -0.8655160000
      7  H         0.5579590000   -0.9640270000   -0.9223210000
      8  H         0.5538980000   -0.9723480000    0.9318530000
      9  H        -3.0823980000    0.6213980000   -0.0070480000
     10  H        -2.4464000000   -0.7722610000   -0.8999040000
     11  H        -2.4593160000   -0.7894930000    0.8678450000
   Point Group: c1    Number of degrees of freedom:    27


   Energy is  -2692.320792467

              Constraints and their Current Values
                                        Value     Constraint
   Distance(Angs):        1   3             3.900001     3.800000

 Attempting to Generate Delocalized Internal Coordinates

   Using Lagrange Multiplier Algorithm


 28 Hessian modes will be used to form the next step
  Hessian Eigenvalues:
    -0.995674    0.045000    0.045000    0.048613    0.051614    0.067853
     0.078148    0.082972    0.083064    0.083752    0.085851    0.088459
     0.104465    0.132669    0.160000    0.160000    0.160000    0.219524
     0.278568    0.327654    0.331720    0.339125    0.339219    0.341095
     0.341575    0.342761    0.342781    1.004345

 Minimum Search - Taking P-RFO Step
 Searching for Lamda that Maximizes Along the Constraint modes Only
 Value Taken    Lamda =   0.01780971
 Searching for Lamda that Minimizes Along All other modes
 Value Taken    Lamda =  -0.01728794
 Step Taken.  Stepsize is  0.185716

                             Maximum     Tolerance    Cnvgd?
         Gradient            0.188974       0.000300      NO
         Displacement        0.185715       0.001200      NO
         Energy change     *********       0.000001      NO


 New Cartesian Coordinates Obtained by Inverse Iteration

 Displacement from previous Coordinates is:  0.229810
 ----------------------------------------------------------------
             Standard Nuclear Orientation (Angstroms)
    I     Atom           X                Y                Z
 ----------------------------------------------------------------
    1      Br      3.9811405339    -0.0023142545     0.0099219555
    2      C      -0.8755535777     0.4755701123     0.0076426537
    3      C       0.2177228711    -0.5406308890     0.0059668155
    4      C      -2.2918395515    -0.1479833572    -0.0087652365
    5      H      -0.7882883250     1.1170182901     0.8943173034
    6      H      -0.7756428058     1.1335688464    -0.8655698388
    7      H       0.5389764023    -0.9771209596    -0.9299992989
    8      H       0.5349674452    -0.9855274657     0.9394787753
    9      H      -3.0620756373     0.6313756019    -0.0069827815
   10      H      -2.4368264785    -0.7671353475    -0.8998273837
   11      H      -2.4497958767    -0.7842205773     0.8679180362
 ----------------------------------------------------------------
 Nuclear Repulsion Energy =   171.0645192747 hartrees
 There are       31 alpha and       29 beta electrons

                       Distance Matrix (Angstroms)
             Br(  1)   C (  2)   C (  3)   C (  4)   H (  5)   H (  6)
   C (  2)  4.880149
   C (  3)  3.801725  1.492622
   C (  4)  6.274699  1.547564  2.540136
   H (  5)  4.978204  1.097845  2.132845  2.162511
   H (  6)  4.968270  1.097927  2.132908  2.162254  1.760010
   H (  7)  3.698945  2.233916  1.081554  3.090252  3.078178  2.487446
   H (  8)  3.702282  2.234434  1.081675  3.097012  2.484702  3.076763
   H (  9)  7.071686  2.192115  3.482936  1.095750  2.493652  2.493420
   H ( 10)  6.527089  2.192120  2.813965  1.094697  3.080044  2.524556
   H ( 11)  6.534866  2.192119  2.813886  1.094679  2.525077  3.079884
             H (  7)   H (  8)   H (  9)   H ( 10)
   H (  8)  1.869501
   H (  9)  4.050530  4.055722
   H ( 10)  2.983355  3.501757  1.773116
   H ( 11)  3.493204  2.992400  1.773203  1.767876
 
 Applying Cartesian multipole field
    Component          Value
    ---------          -----
     (2,0,0)        1.00000E-11
     (0,2,0)        2.00000E-10
     (0,0,2)       -3.00000E-10
 Nucleus-field energy     =     0.0000000234 hartrees
 Requested basis set is 6-31G(d,p)
 There are 41 shells and 115 basis functions
 A cutoff of  1.0D-14 yielded    748 shell pairs
 There are      5606 function pairs
 Smallest overlap matrix eigenvalue = 7.27E-04
 Guess from superposition of atomic densities
 Warning:  Energy on first SCF cycle will be non-variational
 SAD guess density has 59.972873 electrons

 -----------------------------------------------------------------------
  General SCF calculation program by
  Eric Jon Sundstrom, Paul Horn, Yuezhi Mao, Dmitri Zuev, Alec White,
  David Stuck, Shaama M.S., Shane Yost, Joonho Lee, David Small,
  Daniel Levine, Susi Lehtola, Hugh Burton, Evgeny Epifanovsky
 -----------------------------------------------------------------------
 Exchange:     0.2000 Hartree-Fock + 0.0800 Slater + 0.7200 B88
 Correlation:  0.1900 VWN1RPA + 0.8100 LYP
 Using SG-1 standard quadrature grid
 using 12 threads for integral computing
 -------------------------------------------------------
 OpenMP Integral computing Module                
 Release: version 1.0, May 2013, Q-Chem Inc. Pittsburgh 
 -------------------------------------------------------
 -------------------------------------------------------
 OpenMP BLAS3 based DFT computing Module                
 Release: version 1.0, May 2013, Q-Chem Inc. Pittsburgh 
 -------------------------------------------------------
 A unrestricted SCF calculation will be
 performed using DIIS
 SCF converges when DIIS error is below 1.0e-06
 Alpha HF Exchange    Energy = -10.71171373989026
 Beta HF Exchange     Energy = -10.71171373989026
 DFT Correlation      Energy =  -3.10539206145482
 DFT Exchange         Energy = -84.97373440437146
 One-Electron (alpha) Energy = -2037.69104428447963
 One-Electron (beta)  Energy = -2037.69104428447963
 Total Coulomb        Energy = 1318.28315225217875
 ---------------------------------------
  Cycle       Energy         DIIS error
 ---------------------------------------
    1   -2695.5369709643      1.64e-01  
 Alpha HF Exchange    Energy = -10.89623533192300
 Beta HF Exchange     Energy = -10.70110940905728
 DFT Correlation      Energy =  -3.13752065824276
 DFT Exchange         Energy = -85.89813131709506
 One-Electron (alpha) Energy = -2060.87327337471424
 One-Electron (beta)  Energy = -2025.27558530768511
 Total Coulomb        Energy = 1333.50121227109139
    2   -2692.2161238296      9.50e-03  
 Alpha HF Exchange    Energy = -10.79890446817218
 Beta HF Exchange     Energy = -10.61405806399242
 DFT Correlation      Energy =  -3.10298496631880
 DFT Exchange         Energy = -85.14652033081612
 One-Electron (alpha) Energy = -2053.41229864259913
 One-Electron (beta)  Energy = -2018.31882420458442
 Total Coulomb        Energy = 1318.11183275055441
    3   -2692.2172386279      4.12e-03  
 Alpha HF Exchange    Energy = -10.87319071261089
 Beta HF Exchange     Energy = -10.68018258730492
 DFT Correlation      Energy =  -3.12893179921235
 DFT Exchange         Energy = -85.71377683947784
 One-Electron (alpha) Energy = -2058.98865758390366
 One-Electron (beta)  Energy = -2023.28954889672036
 Total Coulomb        Energy = 1329.33215076951251
    4   -2692.2776183517      2.63e-03  
 Alpha HF Exchange    Energy = -10.84954524495123
 Beta HF Exchange     Energy = -10.65805486055884
 DFT Correlation      Energy =  -3.11951739131372
 DFT Exchange         Energy = -85.52657887951216
 One-Electron (alpha) Energy = -2057.37980218373013
 One-Electron (beta)  Energy = -2021.76003484730791
 Total Coulomb        Energy = 1325.90877672817783
    5   -2692.3202373811      3.17e-04  
 Alpha HF Exchange    Energy = -10.84742503193746
 Beta HF Exchange     Energy = -10.65661047130204
 DFT Correlation      Energy =  -3.11928883515039
 DFT Exchange         Energy = -85.51297698753581
 One-Electron (alpha) Energy = -2057.17746773967247
 One-Electron (beta)  Energy = -2021.58010788972024
 Total Coulomb        Energy = 1325.50867145067332
    6   -2692.3206862066      5.58e-05  
 Alpha HF Exchange    Energy = -10.84732769469884
 Beta HF Exchange     Energy = -10.65635587690440
 DFT Correlation      Energy =  -3.11915096699465
 DFT Exchange         Energy = -85.51144486495851
 One-Electron (alpha) Energy = -2057.16446883393928
 One-Electron (beta)  Energy = -2021.55965916530636
 Total Coulomb        Energy = 1325.47317777241392
    7   -2692.3207103323      1.76e-05  
 Alpha HF Exchange    Energy = -10.84739433222848
 Beta HF Exchange     Energy = -10.65642256785328
 DFT Correlation      Energy =  -3.11913003364903
 DFT Exchange         Energy = -85.51190686093153
 One-Electron (alpha) Energy = -2057.17434819659411
 One-Electron (beta)  Energy = -2021.56497185182957
 Total Coulomb        Energy = 1325.48893897983862
    8   -2692.3207155652      8.43e-06  
 Alpha HF Exchange    Energy = -10.84744021341284
 Beta HF Exchange     Energy = -10.65642598058355
 DFT Correlation      Energy =  -3.11913560694501
 DFT Exchange         Energy = -85.51210479919345
 One-Electron (alpha) Energy = -2057.17662437609215
 One-Electron (beta)  Energy = -2021.56423886458538
 Total Coulomb        Energy = 1325.49073052102426
    9   -2692.3207200217      5.34e-06  
 Alpha HF Exchange    Energy = -10.84744070846241
 Beta HF Exchange     Energy = -10.65641865757818
 DFT Correlation      Energy =  -3.11912884241893
 DFT Exchange         Energy = -85.51207444078400
 One-Electron (alpha) Energy = -2057.17631023085551
 One-Electron (beta)  Energy = -2021.56300079053722
 Total Coulomb        Energy = 1325.48912959700215
   10   -2692.3207247756      5.17e-06  
 Alpha HF Exchange    Energy = -10.84744081044772
 Beta HF Exchange     Energy = -10.65641672890695
 DFT Correlation      Energy =  -3.11912709712986
 DFT Exchange         Energy = -85.51206840448776
 One-Electron (alpha) Energy = -2057.17635587315499
 One-Electron (beta)  Energy = -2021.56276466665804
 Total Coulomb        Energy = 1325.48892661114837
   11   -2692.3207276716      5.14e-06  
 Alpha HF Exchange    Energy = -10.84744081961609
 Beta HF Exchange     Energy = -10.65641632159543
 DFT Correlation      Energy =  -3.11912674250180
 DFT Exchange         Energy = -85.51206730513032
 One-Electron (alpha) Energy = -2057.17635574874248
 One-Electron (beta)  Energy = -2021.56269499010409
 Total Coulomb        Energy = 1325.48885412635104
   12   -2692.3207285033      5.15e-06  
 Alpha HF Exchange    Energy = -10.84743665524741
 Beta HF Exchange     Energy = -10.65644327590349
 DFT Correlation      Energy =  -3.11914539439136
 DFT Exchange         Energy = -85.51212595464747
 One-Electron (alpha) Energy = -2057.17566745072145
 One-Electron (beta)  Energy = -2021.56750649542141
 Total Coulomb        Energy = 1325.49312808376362
   13   -2692.3206778445      5.67e-06  
 Alpha HF Exchange    Energy = -10.84743491020121
 Beta HF Exchange     Energy = -10.65645238207038
 DFT Correlation      Energy =  -3.11914985461263
 DFT Exchange         Energy = -85.51214603162236
 One-Electron (alpha) Energy = -2057.17540795547211
 One-Electron (beta)  Energy = -2021.56894186201430
 Total Coulomb        Energy = 1325.49434864699515
   14   -2692.3206650510      6.33e-06  
 Alpha HF Exchange    Energy = -10.84742124585135
 Beta HF Exchange     Energy = -10.65662805599284
 DFT Correlation      Energy =  -3.11916766645714
 DFT Exchange         Energy = -85.51267907124858
 One-Electron (alpha) Energy = -2057.17268230589843
 One-Electron (beta)  Energy = -2021.59049009585920
 Total Coulomb        Energy = 1325.51399308097871
   15   -2692.3205560623      4.36e-05  
 Alpha HF Exchange    Energy = -10.84742858402431
 Beta HF Exchange     Energy = -10.65654727208301
 DFT Correlation      Energy =  -3.11917437145782
 DFT Exchange         Energy = -85.51242516084145
 One-Electron (alpha) Energy = -2057.17415087416930
 One-Electron (beta)  Energy = -2021.58163832555761
 Total Coulomb        Energy = 1325.50626201382374
   16   -2692.3205832763      2.16e-05  
 Alpha HF Exchange    Energy = -10.84741417608975
 Beta HF Exchange     Energy = -10.65662363479125
 DFT Correlation      Energy =  -3.11919173191088
 DFT Exchange         Energy = -85.51260503420377
 One-Electron (alpha) Energy = -2057.17215692594664
 One-Electron (beta)  Energy = -2021.59054512840476
 Total Coulomb        Energy = 1325.51349818426593
   17   -2692.3205191490      3.54e-05  
 Alpha HF Exchange    Energy = -10.84737732979293
 Beta HF Exchange     Energy = -10.65694465998067
 DFT Correlation      Energy =  -3.11916944702689
 DFT Exchange         Energy = -85.51358091854411
 One-Electron (alpha) Energy = -2057.16585716757163
 One-Electron (beta)  Energy = -2021.62363922399845
 Total Coulomb        Energy = 1325.54169136021051
   18   -2692.3203580887      1.17e-04  
 Alpha HF Exchange    Energy = -10.84738990420849
 Beta HF Exchange     Energy = -10.65687109523275
 DFT Correlation      Energy =  -3.11918400799203
 DFT Exchange         Energy = -85.51335911954064
 One-Electron (alpha) Energy = -2057.16830283457966
 One-Electron (beta)  Energy = -2021.61558582430052
 Total Coulomb        Energy = 1325.53576858123938
   19   -2692.3204049066      9.45e-05  
 Alpha HF Exchange    Energy = -10.84740346613017
 Beta HF Exchange     Energy = -10.65670235137365
 DFT Correlation      Energy =  -3.11921021772069
 DFT Exchange         Energy = -85.51279156544945
 One-Electron (alpha) Energy = -2057.17171217627583
 One-Electron (beta)  Energy = -2021.59704231184787
 Total Coulomb        Energy = 1325.51987119356340
   20   -2692.3204715972      4.58e-05  
 Alpha HF Exchange    Energy = -10.84741376925146
 Beta HF Exchange     Energy = -10.65662483337726
 DFT Correlation      Energy =  -3.11922457748906
 DFT Exchange         Energy = -85.51254632263098
 One-Electron (alpha) Energy = -2057.17369291868863
 One-Electron (beta)  Energy = -2021.58819228129278
 Total Coulomb        Energy = 1325.51268840946932
   21   -2692.3204869952      2.20e-05  
 Alpha HF Exchange    Energy = -10.84741899592446
 Beta HF Exchange     Energy = -10.65654801316500
 DFT Correlation      Energy =  -3.11923516336629
 DFT Exchange         Energy = -85.51228555795230
 One-Electron (alpha) Energy = -2057.17509438637353
 One-Electron (beta)  Energy = -2021.57981249328600
 Total Coulomb        Energy = 1325.50538356209722
   22   -2692.3204917499      4.58e-07  Convergence criterion met
 ---------------------------------------
 SCF time:   CPU 54.47s  wall 4.00s 
<S^2> =          2.005200620
 Alpha HF Exchange    Energy = -10.84741899592446
 Beta HF Exchange     Energy = -10.65654801316500
 DFT Correlation      Energy =  -3.11923516336629
 DFT Exchange         Energy = -85.51228555795230
 One-Electron (alpha) Energy = -2057.17509438637353
 One-Electron (beta)  Energy = -2021.57981249328600
 Total Coulomb        Energy = 1325.50538356209722
 Nuclear repulsion Energy = 171.06451929804629
 SCF   energy in the final basis set =    -2692.3204917499
 Total energy in the final basis set =    -2692.3204917499
 
 --------------------------------------------------------------
 
                    Orbital Energies (a.u.)
 --------------------------------------------------------------
 
 Alpha MOs
 -- Occupied --
******* -62.554 -56.378 -56.371 -56.371 -10.183 -10.183 -10.175
 -8.741  -6.578  -6.555  -6.555  -2.669  -2.663  -2.663  -2.647
 -2.647  -0.794  -0.777  -0.671  -0.577  -0.461  -0.424  -0.392
 -0.376  -0.368  -0.346  -0.330  -0.320  -0.319  -0.195
 -- Virtual --
  0.103   0.137   0.145   0.159   0.171   0.181   0.185   0.221
  0.232   0.271   0.293   0.318   0.321   0.515   0.531   0.536
  0.537   0.547   0.547   0.553   0.574   0.583   0.600   0.655
  0.669   0.730   0.787   0.815   0.861   0.882   0.884   0.914
  0.939   0.962   1.006   1.218   1.310   1.428   1.479   1.535
  1.604   1.684   1.693   1.825   1.884   1.943   1.981   2.014
  2.053   2.072   2.119   2.128   2.233   2.262   2.295   2.373
  2.445   2.452   2.522   2.589   2.681   2.721   2.743   2.801
  2.848   2.884   2.918   3.186   3.266   3.379   3.382   3.469
  3.479   3.554   4.246   4.433   4.607   4.652   4.659   4.660
  4.685   4.687   6.215  90.142
 
 Beta MOs
 -- Occupied --
******* -62.552 -56.373 -56.369 -56.369 -10.184 -10.174 -10.169
 -8.737  -6.567  -6.554  -6.554  -2.661  -2.657  -2.657  -2.646
 -2.646  -0.767  -0.750  -0.652  -0.563  -0.456  -0.418  -0.387
 -0.364  -0.341  -0.328  -0.306  -0.304
 -- Virtual --
 -0.233  -0.039   0.107   0.147   0.149   0.160   0.176   0.182
  0.194   0.225   0.237   0.281   0.319   0.322   0.333   0.521
  0.538   0.552   0.568   0.583   0.591   0.593   0.594   0.597
  0.603   0.670   0.679   0.762   0.791   0.823   0.864   0.884
  0.888   0.921   0.944   0.974   1.008   1.229   1.319   1.459
  1.483   1.549   1.625   1.685   1.711   1.835   1.889   1.947
  2.005   2.053   2.054   2.073   2.119   2.137   2.235   2.273
  2.296   2.379   2.450   2.464   2.531   2.614   2.686   2.723
  2.747   2.803   2.851   2.886   2.921   3.187   3.269   3.380
  3.387   3.471   3.485   3.556   4.264   4.450   4.609   4.671
  4.674   4.675   4.688   4.690   6.231  90.149
 --------------------------------------------------------------
 
          Ground-State Mulliken Net Atomic Charges

     Atom                 Charge (a.u.)    Spin (a.u.)
  --------------------------------------------------------
      1 Br                   -0.003580       1.006758
      2 C                    -0.192256      -0.072956
      3 C                    -0.212358       1.071798
      4 C                    -0.306877       0.049976
      5 H                     0.100796       0.012652
      6 H                     0.100959       0.013279
      7 H                     0.101772      -0.047182
      8 H                     0.101943      -0.047200
      9 H                     0.100212       0.013952
     10 H                     0.104668      -0.000562
     11 H                     0.104721      -0.000514
  --------------------------------------------------------
  Sum of atomic charges =     0.000000
  Sum of spin   charges =     2.000000

 -----------------------------------------------------------------
                    Cartesian Multipole Moments
 -----------------------------------------------------------------
    Charge (ESU x 10^10)
                 0.0000
    Dipole Moment (Debye)
         X      -0.2867      Y       0.0130      Z      -0.0004
       Tot       0.2870
    Quadrupole Moments (Debye-Ang)
        XX     -40.5349     XY      -0.7671     YY     -36.9837
        XZ      -0.0147     YZ       0.0531     ZZ     -38.7889
    Octopole Moments (Debye-Ang^2)
       XXX    -162.2087    XXY       0.3958    XYY     -42.4197
       YYY       5.7882    XXZ      -0.2457    XYZ       0.2427
       YYZ      -0.1739    XZZ     -53.5603    YZZ       0.9281
       ZZZ      -0.6249
    Hexadecapole Moments (Debye-Ang^3)
      XXXX   -2148.8538   XXXY      -8.5525   XXYY    -324.5904
      XYYY       4.3953   YYYY     -84.6429   XXXZ      -2.9291
      XXYZ       0.9415   XYYZ      -0.7804   YYYZ      -0.0227
      XXZZ    -366.8658   XYZZ       2.0897   YYZZ     -22.9361
      XZZZ      -2.5904   YZZZ       0.0573   ZZZZ     -64.4115
 -----------------------------------------------------------------
 Calculating analytic gradient of the SCF energy
 Gradient of SCF Energy
            1           2           3           4           5           6
    1  -0.0009424   0.0003313   0.0055299  -0.0000975   0.0001121   0.0001138
    2  -0.0000708  -0.0009787  -0.0043983  -0.0000390  -0.0001048  -0.0000966
    3   0.0000052  -0.0000105  -0.0001024  -0.0000039  -0.0000110   0.0000193
            7           8           9          10          11
    1  -0.0025950  -0.0025471   0.0000297   0.0000327   0.0000326
    2   0.0028231   0.0027806   0.0000299   0.0000291   0.0000255
    3   0.0005025  -0.0003939  -0.0000003   0.0000210  -0.0000259
 Max gradient component =       5.530E-03
 RMS gradient           =       1.570E-03
 Gradient time:  CPU 9.28 s  wall 0.82 s
 Geometry Optimization Parameters
   NAtoms,    NIC,     NZ,  NCons,   NDum,   NFix, NCnnct, MaxDiis
       11      85       0       1       0       0       0       0

 Cartesian Hessian Update
 Hessian Updated using BFGS Update


** CONSTRAINED OPTIMIZATION IN DELOCALIZED INTERNAL COORDINATES **
   Searching for a Minimum

   Optimization Cycle:   2

                       Coordinates (Angstroms)
     ATOM                X               Y               Z
      1  Br        3.9811405339   -0.0023142545    0.0099219555
      2  C        -0.8755535777    0.4755701123    0.0076426537
      3  C         0.2177228711   -0.5406308890    0.0059668155
      4  C        -2.2918395515   -0.1479833572   -0.0087652365
      5  H        -0.7882883250    1.1170182901    0.8943173034
      6  H        -0.7756428058    1.1335688464   -0.8655698388
      7  H         0.5389764023   -0.9771209596   -0.9299992989
      8  H         0.5349674452   -0.9855274657    0.9394787753
      9  H        -3.0620756373    0.6313756019   -0.0069827815
     10  H        -2.4368264785   -0.7671353475   -0.8998273837
     11  H        -2.4497958767   -0.7842205773    0.8679180362
   Point Group: c1    Number of degrees of freedom:    27


   Energy is  -2692.320491750

              Constraints and their Current Values
                                        Value     Constraint
   Distance(Angs):        1   3             3.801725     3.800000
 Hessian Updated using BFGS Update

   Using Lagrange Multiplier Algorithm


 27 Hessian modes will be used to form the next step
  Hessian Eigenvalues:
    -0.994874    0.045000    0.045000    0.048627    0.051614    0.067853
     0.078148    0.082972    0.083064    0.085851    0.088436    0.102840
     0.106097    0.132669    0.160000    0.160020    0.219840    0.278571
     0.327659    0.332533    0.339125    0.339220    0.341575    0.342760
     0.342781    0.373662    1.005823

 Minimum Search - Taking P-RFO Step
 Searching for Lamda that Maximizes Along the Constraint modes Only
 Value Taken    Lamda =   0.00000664
 Searching for Lamda that Minimizes Along All other modes
 Value Taken    Lamda =  -0.00010834
 Step Taken.  Stepsize is  0.027266

                             Maximum     Tolerance    Cnvgd?
         Gradient            0.003260       0.000300      NO
         Displacement        0.019043       0.001200      NO
         Energy change      0.000301       0.000001      NO


 New Cartesian Coordinates Obtained by Inverse Iteration

 Displacement from previous Coordinates is:  0.019402
 ----------------------------------------------------------------
             Standard Nuclear Orientation (Angstroms)
    I     Atom           X                Y                Z
 ----------------------------------------------------------------
    1      Br      3.9789563104    -0.0012205598     0.0099367485
    2      C      -0.8763378181     0.4772491313     0.0076592909
    3      C       0.2174169335    -0.5404855437     0.0059784116
    4      C      -2.2923225020    -0.1470573497    -0.0087509680
    5      H      -0.7897344812     1.1189690563     0.8942909283
    6      H      -0.7770768397     1.1354906710    -0.8655336425
    7      H       0.5431439020    -0.9818843905    -0.9291869070
    8      H       0.5390471910    -0.9902534196     0.9385672018
    9      H      -3.0632202155     0.6316418301    -0.0069911012
   10      H      -2.4370527816    -0.7663920688    -0.8997903492
   11      H      -2.4500346987    -0.7834573566     0.8679213867
 ----------------------------------------------------------------
 Nuclear Repulsion Energy =   171.0577235907 hartrees
 There are       31 alpha and       29 beta electrons

                       Distance Matrix (Angstroms)
             Br(  1)   C (  2)   C (  3)   C (  4)   H (  5)   H (  6)
   C (  2)  4.878813
   C (  3)  3.800000  1.494017
   C (  4)  6.273002  1.547592  2.540432
   H (  5)  4.977682  1.097916  2.134770  2.162424
   H (  6)  4.967737  1.097998  2.134818  2.162169  1.759948
   H (  7)  3.694382  2.240910  1.084189  3.095805  3.084675  2.496059
   H (  8)  3.697772  2.241309  1.084186  3.102426  2.493279  3.083140
   H (  9)  7.070576  2.192375  3.483767  1.095746  2.493699  2.493474
   H ( 10)  6.525202  2.192245  2.813834  1.094748  3.080093  2.524649
   H ( 11)  6.532990  2.192249  2.813766  1.094729  2.525177  3.079938
             H (  7)   H (  8)   H (  9)   H ( 10)
   H (  8)  1.867777
   H (  9)  4.057065  4.062137
   H ( 10)  2.988122  3.505259  1.773041
   H ( 11)  3.496869  2.997060  1.773126  1.767842
 
 Applying Cartesian multipole field
    Component          Value
    ---------          -----
     (2,0,0)        1.00000E-11
     (0,2,0)        2.00000E-10
     (0,0,2)       -3.00000E-10
 Nucleus-field energy     =     0.0000000234 hartrees
 Requested basis set is 6-31G(d,p)
 There are 41 shells and 115 basis functions
 A cutoff of  1.0D-14 yielded    748 shell pairs
 There are      5606 function pairs
 Smallest overlap matrix eigenvalue = 7.27E-04
 Guess from superposition of atomic densities
 Warning:  Energy on first SCF cycle will be non-variational
 SAD guess density has 59.972873 electrons

 -----------------------------------------------------------------------
  General SCF calculation program by
  Eric Jon Sundstrom, Paul Horn, Yuezhi Mao, Dmitri Zuev, Alec White,
  David Stuck, Shaama M.S., Shane Yost, Joonho Lee, David Small,
  Daniel Levine, Susi Lehtola, Hugh Burton, Evgeny Epifanovsky
 -----------------------------------------------------------------------
 Exchange:     0.2000 Hartree-Fock + 0.0800 Slater + 0.7200 B88
 Correlation:  0.1900 VWN1RPA + 0.8100 LYP
 Using SG-1 standard quadrature grid
 using 12 threads for integral computing
 -------------------------------------------------------
 OpenMP Integral computing Module                
 Release: version 1.0, May 2013, Q-Chem Inc. Pittsburgh 
 -------------------------------------------------------
 -------------------------------------------------------
 OpenMP BLAS3 based DFT computing Module                
 Release: version 1.0, May 2013, Q-Chem Inc. Pittsburgh 
 -------------------------------------------------------
 A unrestricted SCF calculation will be
 performed using DIIS
 SCF converges when DIIS error is below 1.0e-06
 Alpha HF Exchange    Energy = -10.71121652401173
 Beta HF Exchange     Energy = -10.71121652401173
 DFT Correlation      Energy =  -3.10528369122769
 DFT Exchange         Energy = -84.97268872967209
 One-Electron (alpha) Energy = -2037.68774607868659
 One-Electron (beta)  Energy = -2037.68774607868659
 Total Coulomb        Energy = 1318.28483989114716
 ---------------------------------------
  Cycle       Energy         DIIS error
 ---------------------------------------
    1   -2695.5333341211      1.64e-01  
 Alpha HF Exchange    Energy = -10.89585092857243
 Beta HF Exchange     Energy = -10.70079515035425
 DFT Correlation      Energy =  -3.13735656341045
 DFT Exchange         Energy = -85.89554165639744
 One-Electron (alpha) Energy = -2060.86416895336743
 One-Electron (beta)  Energy = -2025.26639765938512
 Total Coulomb        Energy = 1333.48590086052604
    2   -2692.2164864369      9.50e-03  
 Alpha HF Exchange    Energy = -10.79869212845082
 Beta HF Exchange     Energy = -10.61385620716910
 DFT Correlation      Energy =  -3.10286475801239
 DFT Exchange         Energy = -85.14502180669282
 One-Electron (alpha) Energy = -2053.41091518451822
 One-Electron (beta)  Energy = -2018.31431695176548
 Total Coulomb        Energy = 1318.11042158476448
    3   -2692.2175218378      4.12e-03  
 Alpha HF Exchange    Energy = -10.87291699024546
 Beta HF Exchange     Energy = -10.67992843749235
 DFT Correlation      Energy =  -3.12880195314870
 DFT Exchange         Energy = -85.71189070115108
 One-Electron (alpha) Energy = -2058.98545090499329
 One-Electron (beta)  Energy = -2023.28499265235610
 Total Coulomb        Energy = 1329.32864195452180
    4   -2692.2776160708      2.63e-03  
 Alpha HF Exchange    Energy = -10.84926170051422
 Beta HF Exchange     Energy = -10.65779288480073
 DFT Correlation      Energy =  -3.11937770355932
 DFT Exchange         Energy = -85.52460354154701
 One-Electron (alpha) Energy = -2057.37535980253097
 One-Electron (beta)  Energy = -2021.75416225554022
 Total Coulomb        Energy = 1325.90252675140277
    5   -2692.3203075231      3.16e-04  
 Alpha HF Exchange    Energy = -10.84714294246091
 Beta HF Exchange     Energy = -10.65634259919725
 DFT Correlation      Energy =  -3.11915016647171
 DFT Exchange         Energy = -85.51098808410194
 One-Electron (alpha) Energy = -2057.17266984051685
 One-Electron (beta)  Energy = -2021.57383734788118
 Total Coulomb        Energy = 1325.50165570584682
    6   -2692.3207516607      5.57e-05  
 Alpha HF Exchange    Energy = -10.84704830723168
 Beta HF Exchange     Energy = -10.65608928215915
 DFT Correlation      Energy =  -3.11901252043722
 DFT Exchange         Energy = -85.50947160725198
 One-Electron (alpha) Energy = -2057.15987630221161
 One-Electron (beta)  Energy = -2021.55354756803513
 Total Coulomb        Energy = 1325.46654634122615
    7   -2692.3207756321      1.76e-05  
 Alpha HF Exchange    Energy = -10.84711454393252
 Beta HF Exchange     Energy = -10.65615534357544
 DFT Correlation      Energy =  -3.11899133785125
 DFT Exchange         Energy = -85.50992951946070
 One-Electron (alpha) Energy = -2057.16972534497563
 One-Electron (beta)  Energy = -2021.55881780725895
 Total Coulomb        Energy = 1325.48222949308092
    8   -2692.3207807899      8.41e-06  
 Alpha HF Exchange    Energy = -10.84716108537259
 Beta HF Exchange     Energy = -10.65615873602096
 DFT Correlation      Energy =  -3.11899697083200
 DFT Exchange         Energy = -85.51013004851040
 One-Electron (alpha) Energy = -2057.17203699922538
 One-Electron (beta)  Energy = -2021.55809551811308
 Total Coulomb        Energy = 1325.48407059312672
    9   -2692.3207851509      5.28e-06  
 Alpha HF Exchange    Energy = -10.84716157827134
 Beta HF Exchange     Energy = -10.65615128059217
 DFT Correlation      Energy =  -3.11899015528190
 DFT Exchange         Energy = -85.51009907687343
 One-Electron (alpha) Energy = -2057.17171999589073
 One-Electron (beta)  Energy = -2021.55685161664132
 Total Coulomb        Energy = 1325.48246029584107
   10   -2692.3207897937      5.10e-06  
 Alpha HF Exchange    Energy = -10.84716170426216
 Beta HF Exchange     Energy = -10.65614935496457
 DFT Correlation      Energy =  -3.11898844084259
 DFT Exchange         Energy = -85.51009314462311
 One-Electron (alpha) Energy = -2057.17176595780802
 One-Electron (beta)  Energy = -2021.55661943727591
 Total Coulomb        Energy = 1325.48226180993493
   11   -2692.3207926158      5.08e-06  
 Alpha HF Exchange    Energy = -10.84716171441578
 Beta HF Exchange     Energy = -10.65614897750477
 DFT Correlation      Energy =  -3.11898811292005
 DFT Exchange         Energy = -85.51009212735622
 One-Electron (alpha) Energy = -2057.17176589592827
 One-Electron (beta)  Energy = -2021.55655539531131
 Total Coulomb        Energy = 1325.48219523507964
   12   -2692.3207933743      5.08e-06  
 Alpha HF Exchange    Energy = -10.84715745730328
 Beta HF Exchange     Energy = -10.65617582628088
 DFT Correlation      Energy =  -3.11900667602020
 DFT Exchange         Energy = -85.51015029598445
 One-Electron (alpha) Energy = -2057.17108045159557
 One-Electron (beta)  Energy = -2021.56132127758997
 Total Coulomb        Energy = 1325.48642477576664
   13   -2692.3207435950      5.59e-06  
 Alpha HF Exchange    Energy = -10.84715565248585
 Beta HF Exchange     Energy = -10.65618506036334
 DFT Correlation      Energy =  -3.11901120194225
 DFT Exchange         Energy = -85.51017055847899
 One-Electron (alpha) Energy = -2057.17081673702705
 One-Electron (beta)  Energy = -2021.56277037510358
 Total Coulomb        Energy = 1325.48765516922890
   14   -2692.3207308021      6.26e-06  
 Alpha HF Exchange    Energy = -10.84714272951216
 Beta HF Exchange     Energy = -10.65635084878920
 DFT Correlation      Energy =  -3.11902842219337
 DFT Exchange         Energy = -85.51067343486993
 One-Electron (alpha) Energy = -2057.16827305466040
 One-Electron (beta)  Energy = -2021.58310966260001
 Total Coulomb        Energy = 1325.50622517610327
   15   -2692.3206293625      4.13e-05  
 Alpha HF Exchange    Energy = -10.84714902959980
 Beta HF Exchange     Energy = -10.65628104510822
 DFT Correlation      Energy =  -3.11903602006240
 DFT Exchange         Energy = -85.51045222695674
 One-Electron (alpha) Energy = -2057.16954586397242
 One-Electron (beta)  Energy = -2021.57554769664716
 Total Coulomb        Energy = 1325.49963872074750
   16   -2692.3206495476      2.17e-05  
 Alpha HF Exchange    Energy = -10.84712558828328
 Beta HF Exchange     Energy = -10.65643309819162
 DFT Correlation      Energy =  -3.11905105037479
 DFT Exchange         Energy = -85.51085697064610
 One-Electron (alpha) Energy = -2057.16609492122143
 One-Electron (beta)  Energy = -2021.59229881549300
 Total Coulomb        Energy = 1325.51358003553719
   17   -2692.3205567946      5.40e-05  
 Alpha HF Exchange    Energy = -10.84710205316140
 Beta HF Exchange     Energy = -10.65663555605042
 DFT Correlation      Energy =  -3.11903334183334
 DFT Exchange         Energy = -85.51147640640443
 One-Electron (alpha) Energy = -2057.16202394914990
 One-Electron (beta)  Energy = -2021.61310643884462
 Total Coulomb        Energy = 1325.53119773814979
   18   -2692.3204563933      1.07e-04  
 Alpha HF Exchange    Energy = -10.84711567976219
 Beta HF Exchange     Energy = -10.65655577860014
 DFT Correlation      Energy =  -3.11905039388799
 DFT Exchange         Energy = -85.51123326027920
 One-Electron (alpha) Energy = -2057.16477064475566
 One-Electron (beta)  Energy = -2021.60420518120350
 Total Coulomb        Energy = 1325.52470578570160
   19   -2692.3205015387      8.15e-05  
 Alpha HF Exchange    Energy = -10.84712817206758
 Beta HF Exchange     Energy = -10.65638767434905
 DFT Correlation      Energy =  -3.11907613894256
 DFT Exchange         Energy = -85.51066383019874
 One-Electron (alpha) Energy = -2057.16800982993436
 One-Electron (beta)  Energy = -2021.58567125343006
 Total Coulomb        Energy = 1325.50865787526914
   20   -2692.3205554096      3.32e-05  
 Alpha HF Exchange    Energy = -10.84713603909378
 Beta HF Exchange     Energy = -10.65633888622628
 DFT Correlation      Energy =  -3.11908653571848
 DFT Exchange         Energy = -85.51051345686099
 One-Electron (alpha) Energy = -2057.16946267641515
 One-Electron (beta)  Energy = -2021.57992289584649
 Total Coulomb        Energy = 1325.50417413163973
   21   -2692.3205627445      1.75e-05  
 Alpha HF Exchange    Energy = -10.84714029603632
 Beta HF Exchange     Energy = -10.65627610250833
 DFT Correlation      Energy =  -3.11909513593859
 DFT Exchange         Energy = -85.51030044208423
 One-Electron (alpha) Energy = -2057.17060476688312
 One-Electron (beta)  Energy = -2021.57308907207107
 Total Coulomb        Energy = 1325.49821643479982
   22   -2692.3205657667      6.38e-08  Convergence criterion met
 ---------------------------------------
 SCF time:   CPU 54.71s  wall 4.00s 
<S^2> =          2.005223647
 Alpha HF Exchange    Energy = -10.84714029603632
 Beta HF Exchange     Energy = -10.65627610250833
 DFT Correlation      Energy =  -3.11909513593859
 DFT Exchange         Energy = -85.51030044208423
 One-Electron (alpha) Energy = -2057.17060476688312
 One-Electron (beta)  Energy = -2021.57308907207107
 Total Coulomb        Energy = 1325.49821643479982
 Nuclear repulsion Energy = 171.05772361403893
 SCF   energy in the final basis set =    -2692.3205657667
 Total energy in the final basis set =    -2692.3205657667
 
 --------------------------------------------------------------
 
                    Orbital Energies (a.u.)
 --------------------------------------------------------------
 
 Alpha MOs
 -- Occupied --
******* -62.554 -56.378 -56.371 -56.371 -10.184 -10.183 -10.175
 -8.741  -6.578  -6.555  -6.555  -2.669  -2.663  -2.663  -2.647
 -2.647  -0.794  -0.777  -0.670  -0.577  -0.460  -0.424  -0.391
 -0.376  -0.369  -0.346  -0.330  -0.320  -0.319  -0.195
 -- Virtual --
  0.103   0.136   0.144   0.159   0.171   0.181   0.185   0.221
  0.232   0.271   0.293   0.318   0.321   0.515   0.531   0.536
  0.536   0.547   0.547   0.553   0.574   0.583   0.600   0.655
  0.669   0.731   0.787   0.815   0.861   0.881   0.884   0.913
  0.938   0.961   1.004   1.217   1.309   1.429   1.478   1.533
  1.604   1.684   1.693   1.825   1.882   1.946   1.979   2.012
  2.053   2.072   2.120   2.128   2.231   2.262   2.293   2.373
  2.443   2.452   2.522   2.584   2.680   2.717   2.743   2.801
  2.850   2.884   2.918   3.186   3.263   3.373   3.379   3.468
  3.477   3.554   4.245   4.432   4.607   4.652   4.659   4.660
  4.685   4.687   6.215  90.142
 
 Beta MOs
 -- Occupied --
******* -62.552 -56.373 -56.369 -56.369 -10.184 -10.174 -10.170
 -8.737  -6.567  -6.554  -6.554  -2.661  -2.657  -2.657  -2.646
 -2.646  -0.767  -0.750  -0.652  -0.563  -0.456  -0.419  -0.386
 -0.364  -0.341  -0.328  -0.306  -0.304
 -- Virtual --
 -0.233  -0.038   0.107   0.146   0.148   0.160   0.176   0.182
  0.194   0.225   0.237   0.281   0.319   0.322   0.333   0.521
  0.538   0.552   0.568   0.583   0.591   0.593   0.594   0.597
  0.603   0.670   0.678   0.762   0.792   0.823   0.864   0.883
  0.888   0.920   0.944   0.974   1.007   1.228   1.319   1.460
  1.483   1.547   1.625   1.684   1.712   1.834   1.886   1.950
  2.003   2.051   2.054   2.073   2.121   2.136   2.233   2.273
  2.294   2.379   2.448   2.464   2.531   2.608   2.686   2.719
  2.747   2.804   2.853   2.886   2.922   3.187   3.266   3.378
  3.381   3.470   3.483   3.556   4.263   4.449   4.609   4.671
  4.674   4.675   4.688   4.690   6.231  90.149
 --------------------------------------------------------------
 
          Ground-State Mulliken Net Atomic Charges

     Atom                 Charge (a.u.)    Spin (a.u.)
  --------------------------------------------------------
      1 Br                   -0.003587       1.006782
      2 C                    -0.191962      -0.072965
      3 C                    -0.212809       1.072367
      4 C                    -0.306983       0.049710
      5 H                     0.101099       0.012577
      6 H                     0.101260       0.013197
      7 H                     0.101507      -0.047273
      8 H                     0.101696      -0.047286
      9 H                     0.100171       0.013976
     10 H                     0.104778      -0.000566
     11 H                     0.104829      -0.000519
  --------------------------------------------------------
  Sum of atomic charges =     0.000000
  Sum of spin   charges =     2.000000

 -----------------------------------------------------------------
                    Cartesian Multipole Moments
 -----------------------------------------------------------------
    Charge (ESU x 10^10)
                 0.0000
    Dipole Moment (Debye)
         X      -0.2885      Y       0.0148      Z      -0.0003
       Tot       0.2888
    Quadrupole Moments (Debye-Ang)
        XX     -40.5295     XY      -0.7714     YY     -36.9706
        XZ      -0.0146     YZ       0.0544     ZZ     -38.8074
    Octopole Moments (Debye-Ang^2)
       XXX    -162.1097    XXY       0.4329    XYY     -42.3698
       YYY       5.7087    XXZ      -0.2454    XYZ       0.2472
       YYZ      -0.1740    XZZ     -53.5195    YZZ       0.9100
       ZZZ      -0.6264
    Hexadecapole Moments (Debye-Ang^3)
      XXXX   -2147.2047   XXXY      -8.2425   XXYY    -324.3380
      XYYY       4.2820   YYYY     -84.7702   XXXZ      -2.9250
      XXYZ       0.9598   XYYZ      -0.7800   YYYZ      -0.0225
      XXZZ    -366.5663   XYZZ       2.0376   YYZZ     -22.9545
      XZZZ      -2.5914   YZZZ       0.0581   ZZZZ     -64.4545
 -----------------------------------------------------------------
 Calculating analytic gradient of the SCF energy
 Gradient of SCF Energy
            1           2           3           4           5           6
    1  -0.0009555  -0.0000671   0.0042263  -0.0000720  -0.0000314  -0.0000270
    2  -0.0000672  -0.0002493  -0.0028722   0.0000339   0.0000261   0.0000330
    3   0.0000053  -0.0000005  -0.0000301  -0.0000028   0.0000186  -0.0000115
            7           8           9          10          11
    1  -0.0015586  -0.0015441   0.0000091   0.0000106   0.0000097
    2   0.0015585   0.0015445  -0.0000057   0.0000011  -0.0000027
    3  -0.0005808   0.0006085  -0.0000007  -0.0000026  -0.0000035
 Max gradient component =       4.226E-03
 RMS gradient           =       1.065E-03
 Gradient time:  CPU 9.13 s  wall 0.79 s
 Geometry Optimization Parameters
   NAtoms,    NIC,     NZ,  NCons,   NDum,   NFix, NCnnct, MaxDiis
       11      85       0       1       0       0       0       0

 Cartesian Hessian Update
 Hessian Updated using BFGS Update


** CONSTRAINED OPTIMIZATION IN DELOCALIZED INTERNAL COORDINATES **
   Searching for a Minimum

   Optimization Cycle:   3

                       Coordinates (Angstroms)
     ATOM                X               Y               Z
      1  Br        3.9789563104   -0.0012205598    0.0099367485
      2  C        -0.8763378181    0.4772491313    0.0076592909
      3  C         0.2174169335   -0.5404855437    0.0059784116
      4  C        -2.2923225020   -0.1470573497   -0.0087509680
      5  H        -0.7897344812    1.1189690563    0.8942909283
      6  H        -0.7770768397    1.1354906710   -0.8655336425
      7  H         0.5431439020   -0.9818843905   -0.9291869070
      8  H         0.5390471910   -0.9902534196    0.9385672018
      9  H        -3.0632202155    0.6316418301   -0.0069911012
     10  H        -2.4370527816   -0.7663920688   -0.8997903492
     11  H        -2.4500346987   -0.7834573566    0.8679213867
   Point Group: c1    Number of degrees of freedom:    27


   Energy is  -2692.320565767

              Constraints and their Current Values
                                        Value     Constraint
   Distance(Angs):        1   3             3.800000     3.800000
 Hessian Updated using BFGS Update

 26 Hessian modes will be used to form the next step
  Hessian Eigenvalues:
     0.038345    0.045000    0.045001    0.048689    0.051615    0.067853
     0.078173    0.082972    0.083065    0.085851    0.088448    0.105502
     0.132669    0.160000    0.160000    0.160035    0.219539    0.278578
     0.327658    0.332243    0.339078    0.339196    0.341574    0.342760
     0.342781    0.427320

 Minimum Search - Taking Simple RFO Step
 Searching for Lamda that Minimizes Along All modes
 Value Taken    Lamda =  -0.00012097
 Step Taken.  Stepsize is  0.055642

                             Maximum     Tolerance    Cnvgd?
         Gradient           0.001679      0.000300      NO
         Displacement       0.040820      0.001200      NO
         Energy change     -0.000074      0.000001      NO


 New Cartesian Coordinates Obtained by Inverse Iteration

 Displacement from previous Coordinates is:  0.032765
 ----------------------------------------------------------------
             Standard Nuclear Orientation (Angstroms)
    I     Atom           X                Y                Z
 ----------------------------------------------------------------
    1      Br      3.9763475321     0.0004818686     0.0099605055
    2      C      -0.8780551589     0.4796035271     0.0076613325
    3      C       0.2147855624    -0.5386254338     0.0059914806
    4      C      -2.2934575188    -0.1457757464    -0.0087352318
    5      H      -0.7908943885     1.1210753919     0.8942735667
    6      H      -0.7782530436     1.1375571369    -0.8655377180
    7      H       0.5500758976    -0.9889096232    -0.9239009171
    8      H       0.5458744591    -0.9972890948     0.9331982327
    9      H      -3.0651679991     0.6321503855    -0.0069990629
   10      H      -2.4377435444    -0.7653179153    -0.8997202188
   11      H      -2.4507267979    -0.7823504966     0.8679090307
 ----------------------------------------------------------------
 Nuclear Repulsion Energy =   171.0701917040 hartrees
 There are       31 alpha and       29 beta electrons

                       Distance Matrix (Angstroms)
             Br(  1)   C (  2)   C (  3)   C (  4)   H (  5)   H (  6)
   C (  2)  4.877990
   C (  3)  3.800000  1.493685
   C (  4)  6.271539  1.547492  2.538864
   H (  5)  4.976378  1.097800  2.134255  2.162876
   H (  6)  4.966454  1.097880  2.134309  2.162614  1.759934
   H (  7)  3.686506  2.250311  1.086221  3.103882  3.091277  2.507932
   H (  8)  3.689995  2.250646  1.086142  3.110325  2.505181  3.089714
   H (  9)  7.069811  2.192475  3.482669  1.095769  2.494727  2.494495
   H ( 10)  6.523384  2.192213  2.812048  1.094763  3.080423  2.525076
   H ( 11)  6.531170  2.192225  2.811985  1.094745  2.525622  3.080268
             H (  7)   H (  8)   H (  9)   H ( 10)
   H (  8)  1.857123
   H (  9)  4.066760  4.071691
   H ( 10)  2.996272  3.509327  1.773000
   H ( 11)  3.501152  3.005009  1.773081  1.767759
 
 Applying Cartesian multipole field
    Component          Value
    ---------          -----
     (2,0,0)        1.00000E-11
     (0,2,0)        2.00000E-10
     (0,0,2)       -3.00000E-10
 Nucleus-field energy     =     0.0000000234 hartrees
 Requested basis set is 6-31G(d,p)
 There are 41 shells and 115 basis functions
 A cutoff of  1.0D-14 yielded    748 shell pairs
 There are      5606 function pairs
 Smallest overlap matrix eigenvalue = 7.27E-04
 Guess from superposition of atomic densities
 Warning:  Energy on first SCF cycle will be non-variational
 SAD guess density has 59.972873 electrons

 -----------------------------------------------------------------------
  General SCF calculation program by
  Eric Jon Sundstrom, Paul Horn, Yuezhi Mao, Dmitri Zuev, Alec White,
  David Stuck, Shaama M.S., Shane Yost, Joonho Lee, David Small,
  Daniel Levine, Susi Lehtola, Hugh Burton, Evgeny Epifanovsky
 -----------------------------------------------------------------------
 Exchange:     0.2000 Hartree-Fock + 0.0800 Slater + 0.7200 B88
 Correlation:  0.1900 VWN1RPA + 0.8100 LYP
 Using SG-1 standard quadrature grid
 using 12 threads for integral computing
 -------------------------------------------------------
 OpenMP Integral computing Module                
 Release: version 1.0, May 2013, Q-Chem Inc. Pittsburgh 
 -------------------------------------------------------
 -------------------------------------------------------
 OpenMP BLAS3 based DFT computing Module                
 Release: version 1.0, May 2013, Q-Chem Inc. Pittsburgh 
 -------------------------------------------------------
 A unrestricted SCF calculation will be
 performed using DIIS
 SCF converges when DIIS error is below 1.0e-06
 Alpha HF Exchange    Energy = -10.71100703384201
 Beta HF Exchange     Energy = -10.71100703384201
 DFT Correlation      Energy =  -3.10523451474574
 DFT Exchange         Energy = -84.97224541204351
 One-Electron (alpha) Energy = -2037.70202116250380
 One-Electron (beta)  Energy = -2037.70202116250380
 Total Coulomb        Energy = 1318.30119303730612
 ---------------------------------------
  Cycle       Energy         DIIS error
 ---------------------------------------
    1   -2695.5321515548      1.64e-01  
 Alpha HF Exchange    Energy = -10.89563438218737
 Beta HF Exchange     Energy = -10.70061814113948
 DFT Correlation      Energy =  -3.13727415167377
 DFT Exchange         Energy = -85.89406891460105
 One-Electron (alpha) Energy = -2060.87344174407599
 One-Electron (beta)  Energy = -2025.27514040784217
 Total Coulomb        Energy = 1333.48922882940315
    2   -2692.2167571848      9.50e-03  
 Alpha HF Exchange    Energy = -10.79858851708891
 Beta HF Exchange     Energy = -10.61380478069080
 DFT Correlation      Energy =  -3.10281309649478
 DFT Exchange         Energy = -85.14441405801772
 One-Electron (alpha) Energy = -2053.42596133106872
 One-Electron (beta)  Energy = -2018.32676497920261
 Total Coulomb        Energy = 1318.12442206309174
    3   -2692.2177329721      4.12e-03  
 Alpha HF Exchange    Energy = -10.87278861411556
 Beta HF Exchange     Energy = -10.67979739082796
 DFT Correlation      Energy =  -3.12875374701460
 DFT Exchange         Energy = -85.71098491680831
 One-Electron (alpha) Energy = -2059.00024494320132
 One-Electron (beta)  Energy = -2023.29945328652298
 Total Coulomb        Energy = 1329.34423118935410
    4   -2692.2775999818      2.64e-03  
 Alpha HF Exchange    Energy = -10.84910221687806
 Beta HF Exchange     Energy = -10.65765978706770
 DFT Correlation      Energy =  -3.11931303097976
 DFT Exchange         Energy = -85.52353833039041
 One-Electron (alpha) Energy = -2057.38750642941886
 One-Electron (beta)  Energy = -2021.76650257384995
 Total Coulomb        Energy = 1325.91307383612548
    5   -2692.3203568051      3.14e-04  
 Alpha HF Exchange    Energy = -10.84699258764169
 Beta HF Exchange     Energy = -10.65620584169413
 DFT Correlation      Energy =  -3.11908959274493
 DFT Exchange         Energy = -85.50995254804386
 One-Electron (alpha) Energy = -2057.18487021862938
 One-Electron (beta)  Energy = -2021.58622267598912
 Total Coulomb        Energy = 1325.51234844915507
    6   -2692.3207932882      5.56e-05  
 Alpha HF Exchange    Energy = -10.84690072987616
 Beta HF Exchange     Energy = -10.65595428544949
 DFT Correlation      Energy =  -3.11895200772391
 DFT Exchange         Energy = -85.50845365436074
 One-Electron (alpha) Energy = -2057.17236066477926
 One-Electron (beta)  Energy = -2021.56624373447244
 Total Coulomb        Energy = 1325.47785659593910
    7   -2692.3208167534      1.75e-05  
 Alpha HF Exchange    Energy = -10.84696685090679
 Beta HF Exchange     Energy = -10.65601979440665
 DFT Correlation      Energy =  -3.11893095136823
 DFT Exchange         Energy = -85.50890949245755
 One-Electron (alpha) Energy = -2057.18215712646543
 One-Electron (beta)  Energy = -2021.57147979206934
 Total Coulomb        Energy = 1325.49345065948819
    8   -2692.3208216208      8.30e-06  
 Alpha HF Exchange    Energy = -10.84701384195985
 Beta HF Exchange     Energy = -10.65602295525100
 DFT Correlation      Energy =  -3.11893667062496
 DFT Exchange         Energy = -85.50911097620298
 One-Electron (alpha) Energy = -2057.18448038572478
 One-Electron (beta)  Energy = -2021.57077832849973
 Total Coulomb        Energy = 1325.49532580045525
    9   -2692.3208256305      5.06e-06  
 Alpha HF Exchange    Energy = -10.84701435338971
 Beta HF Exchange     Energy = -10.65601542375009
 DFT Correlation      Energy =  -3.11892992190972
 DFT Exchange         Energy = -85.50907965259073
 One-Electron (alpha) Energy = -2057.18415846883090
 One-Electron (beta)  Energy = -2021.56954740719834
 Total Coulomb        Energy = 1325.49372362982990
   10   -2692.3208298705      4.88e-06  
 Alpha HF Exchange    Energy = -10.84701451232714
 Beta HF Exchange     Energy = -10.65601355072999
 DFT Correlation      Energy =  -3.11892828636115
 DFT Exchange         Energy = -85.50907398638459
 One-Electron (alpha) Energy = -2057.18420572746390
 One-Electron (beta)  Energy = -2021.56933053948228
 Total Coulomb        Energy = 1325.49354243001926
   11   -2692.3208324454      4.85e-06  
 Alpha HF Exchange    Energy = -10.84701452358629
 Beta HF Exchange     Energy = -10.65601320489887
 DFT Correlation      Energy =  -3.11892799158430
 DFT Exchange         Energy = -85.50907305456010
[...]
 Beta HF Exchange     Energy = -10.70072261124144
 DFT Correlation      Energy =  -3.13733534875004
 DFT Exchange         Energy = -85.89494110752089
 One-Electron (alpha) Energy = -2060.89419588188366
 One-Electron (beta)  Energy = -2025.29493841564340
 Total Coulomb        Energy = 1333.51039970255215
    2   -2692.2166842703      9.50e-03  
 Alpha HF Exchange    Energy = -10.79866793674026
 Beta HF Exchange     Energy = -10.61389949936022
 DFT Correlation      Energy =  -3.10286349094029
 DFT Exchange         Energy = -85.14503192414000
 One-Electron (alpha) Energy = -2053.44512077692934
 One-Electron (beta)  Energy = -2018.34609209847849
 Total Coulomb        Energy = 1318.14316379846377
    3   -2692.2176983294      4.12e-03  
 Alpha HF Exchange    Energy = -10.87288873747564
 Beta HF Exchange     Energy = -10.67988720591777
 DFT Correlation      Energy =  -3.12880857044100
 DFT Exchange         Energy = -85.71167542268145
 One-Electron (alpha) Energy = -2059.01974878870897
 One-Electron (beta)  Energy = -2023.31891277705745
 Total Coulomb        Energy = 1329.36348242548002
    4   -2692.2776254781      2.63e-03  
 Alpha HF Exchange    Energy = -10.84919662010159
 Beta HF Exchange     Energy = -10.65775400355198
 DFT Correlation      Energy =  -3.11936770910126
 DFT Exchange         Energy = -85.52422282558842
 One-Electron (alpha) Energy = -2057.40681408980117
 One-Electron (beta)  Energy = -2021.78606339478256
 Total Coulomb        Energy = 1325.93224930708789
    5   -2692.3203557371      3.14e-04  
 Alpha HF Exchange    Energy = -10.84709029972817
 Beta HF Exchange     Energy = -10.65630275560606
 DFT Correlation      Energy =  -3.11914542386687
 DFT Exchange         Energy = -85.51066144625953
 One-Electron (alpha) Energy = -2057.20446942085209
 One-Electron (beta)  Energy = -2021.60609364800689
 Total Coulomb        Energy = 1325.53215736658649
    6   -2692.3207920290      5.55e-05  
 Alpha HF Exchange    Energy = -10.84699777986024
 Beta HF Exchange     Energy = -10.65605104984501
 DFT Correlation      Energy =  -3.11900771728284
 DFT Exchange         Energy = -85.50915924593147
 One-Electron (alpha) Energy = -2057.19192760455053
 One-Electron (beta)  Energy = -2021.58612565788212
 Total Coulomb        Energy = 1325.49764007802059
    7   -2692.3208153786      1.74e-05  
 Alpha HF Exchange    Energy = -10.84706412596600
 Beta HF Exchange     Energy = -10.65611674120819
 DFT Correlation      Energy =  -3.11898685883749
 DFT Exchange         Energy = -85.50961690045222
 One-Electron (alpha) Energy = -2057.20172631108881
 One-Electron (beta)  Energy = -2021.59137910203822
 Total Coulomb        Energy = 1325.51325626395578
    8   -2692.3208201769      8.27e-06  
 Alpha HF Exchange    Energy = -10.84711089612152
 Beta HF Exchange     Energy = -10.65611981760337
 DFT Correlation      Energy =  -3.11899257319295
 DFT Exchange         Energy = -85.50981718165436
 One-Electron (alpha) Energy = -2057.20403194134224
 One-Electron (beta)  Energy = -2021.59067921859855
 Total Coulomb        Energy = 1325.51511392223392
    9   -2692.3208241076      5.02e-06  
 Alpha HF Exchange    Energy = -10.84711140541289
 Beta HF Exchange     Energy = -10.65611231931165
 DFT Correlation      Energy =  -3.11898587717987
 DFT Exchange         Energy = -85.50978599115314
 One-Electron (alpha) Energy = -2057.20370819517620
 One-Electron (beta)  Energy = -2021.58945596712510
 Total Coulomb        Energy = 1325.51351789938008
   10   -2692.3208282573      4.83e-06  
 Alpha HF Exchange    Energy = -10.84711156790999
 Beta HF Exchange     Energy = -10.65611045992767
 DFT Correlation      Energy =  -3.11898425267213
 DFT Exchange         Energy = -85.50978037133024
 One-Electron (alpha) Energy = -2057.20375609345820
 One-Electron (beta)  Energy = -2021.58924284482487
 Total Coulomb        Energy = 1325.51334121278410
   11   -2692.3208307786      4.80e-06  
 Alpha HF Exchange    Energy = -10.84711157967892
 Beta HF Exchange     Energy = -10.65611010891298
 DFT Correlation      Energy =  -3.11898395634682
 DFT Exchange         Energy = -85.50977942615141
 One-Electron (alpha) Energy = -2057.20375576335300
 One-Electron (beta)  Energy = -2021.58918527989476
 Total Coulomb        Energy = 1325.51328107971881
   12   -2692.3208314359      4.80e-06  
 Alpha HF Exchange    Energy = -10.84710732443408
 Beta HF Exchange     Energy = -10.65613490936991
 DFT Correlation      Energy =  -3.11900123173955
 DFT Exchange         Energy = -85.50983163349355
 One-Electron (alpha) Energy = -2057.20312167524435
 One-Electron (beta)  Energy = -2021.59354576095188
 Total Coulomb        Energy = 1325.51714193118528
   13   -2692.3207870053      5.18e-06  
 Alpha HF Exchange    Energy = -10.84710522505038
 Beta HF Exchange     Energy = -10.65614521486458
 DFT Correlation      Energy =  -3.11900630795813
 DFT Exchange         Energy = -85.50985388372864
 One-Electron (alpha) Energy = -2057.20282989574707
 One-Electron (beta)  Energy = -2021.59515030749776
 Total Coulomb        Energy = 1325.51850391280232
   14   -2692.3207733233      5.89e-06  
 Alpha HF Exchange    Energy = -10.84709415696433
 Beta HF Exchange     Energy = -10.65628655705422
 DFT Correlation      Energy =  -3.11902182025006
 DFT Exchange         Energy = -85.51028161352440
 One-Electron (alpha) Energy = -2057.20075152083245
 One-Electron (beta)  Energy = -2021.61249263445916
 Total Coulomb        Energy = 1325.53442365509477
   15   -2692.3206910493      3.54e-05  
 Alpha HF Exchange    Energy = -10.84709800171164
 Beta HF Exchange     Energy = -10.65624175188484
 DFT Correlation      Energy =  -3.11903080995603
 DFT Exchange         Energy = -85.51013534605187
 One-Electron (alpha) Energy = -2057.20156289872921
 One-Electron (beta)  Energy = -2021.60781380696767
 Total Coulomb        Energy = 1325.53037178947352
   16   -2692.3206972271      2.15e-05  
 Alpha HF Exchange    Energy = -10.84706106053918
 Beta HF Exchange     Energy = -10.65651085274627
 DFT Correlation      Energy =  -3.11903316184394
 DFT Exchange         Energy = -85.51090181771789
 One-Electron (alpha) Energy = -2057.19592790265278
 One-Electron (beta)  Energy = -2021.63621419560673
 Total Coulomb        Energy = 1325.55426896689369
   17   -2692.3205664255      8.48e-05  
 Alpha HF Exchange    Energy = -10.84706101705778
 Beta HF Exchange     Energy = -10.65651125447303
 DFT Correlation      Energy =  -3.11903313066633
 DFT Exchange         Energy = -85.51090301106933
 One-Electron (alpha) Energy = -2057.19592351847541
 One-Electron (beta)  Energy = -2021.63625446036053
 Total Coulomb        Energy = 1325.55430654910947
   18   -2692.3205662443      8.48e-05  
 Alpha HF Exchange    Energy = -10.84706410102100
 Beta HF Exchange     Energy = -10.65649119089214
 DFT Correlation      Energy =  -3.11903605333107
 DFT Exchange         Energy = -85.51084260123991
 One-Electron (alpha) Energy = -2057.19650115662353
 One-Electron (beta)  Energy = -2021.63414850106528
 Total Coulomb        Energy = 1325.55269413776341
   19   -2692.3205758677      7.91e-05  
 Alpha HF Exchange    Energy = -10.84707682885864
 Beta HF Exchange     Energy = -10.65636143131420
 DFT Correlation      Energy =  -3.11905902380789
 DFT Exchange         Energy = -85.51041131497297
 One-Electron (alpha) Energy = -2057.19956127755677
 One-Electron (beta)  Energy = -2021.61964345885281
 Total Coulomb        Energy = 1325.54068050163801
   20   -2692.3206192350      4.06e-05  
 Alpha HF Exchange    Energy = -10.84708577610781
 Beta HF Exchange     Energy = -10.65629692158458
 DFT Correlation      Energy =  -3.11907295779498
 DFT Exchange         Energy = -85.51020537121808
 One-Electron (alpha) Energy = -2057.20138947512987
 One-Electron (beta)  Energy = -2021.61207561828314
 Total Coulomb        Energy = 1325.53468203419516
   21   -2692.3206304872      2.00e-05  
 Alpha HF Exchange    Energy = -10.84708978934650
 Beta HF Exchange     Energy = -10.65623209126362
 DFT Correlation      Energy =  -3.11908202372056
 DFT Exchange         Energy = -85.50998329601647
 One-Electron (alpha) Energy = -2057.20253590113043
 One-Electron (beta)  Energy = -2021.60497972044141
 Total Coulomb        Energy = 1325.52845486728893
   22   -2692.3206343559      1.72e-06  
 Alpha HF Exchange    Energy = -10.84709137904355
 Beta HF Exchange     Energy = -10.65622695932061
 DFT Correlation      Energy =  -3.11908333617214
 DFT Exchange         Energy = -85.50997071420724
 One-Electron (alpha) Energy = -2057.20278411062191
 One-Electron (beta)  Energy = -2021.60438555084124
 Total Coulomb        Energy = 1325.52809407025529
   23   -2692.3206343812      5.59e-08  Convergence criterion met
 ---------------------------------------
 SCF time:   CPU 56.58s  wall 5.00s 
<S^2> =          2.005233671
 Alpha HF Exchange    Energy = -10.84709137904355
 Beta HF Exchange     Energy = -10.65622695932061
 DFT Correlation      Energy =  -3.11908333617214
 DFT Exchange         Energy = -85.50997071420724
 One-Electron (alpha) Energy = -2057.20278411062191
 One-Electron (beta)  Energy = -2021.60438555084124
 Total Coulomb        Energy = 1325.52809407025529
 Nuclear repulsion Energy = 171.09081359870464
 SCF   energy in the final basis set =    -2692.3206343812
 Total energy in the final basis set =    -2692.3206343812
 
 --------------------------------------------------------------
 
                    Orbital Energies (a.u.)
 --------------------------------------------------------------
 
 Alpha MOs
 -- Occupied --
******* -62.554 -56.378 -56.371 -56.371 -10.184 -10.183 -10.175
 -8.741  -6.578  -6.556  -6.555  -2.669  -2.663  -2.663  -2.647
 -2.647  -0.794  -0.777  -0.670  -0.577  -0.459  -0.425  -0.390
 -0.376  -0.369  -0.347  -0.330  -0.320  -0.319  -0.195
 -- Virtual --
  0.104   0.136   0.144   0.158   0.172   0.180   0.184   0.221
  0.232   0.273   0.293   0.318   0.321   0.515   0.532   0.535
  0.537   0.547   0.547   0.553   0.574   0.583   0.598   0.655
  0.670   0.731   0.788   0.817   0.861   0.880   0.884   0.913
  0.939   0.962   1.001   1.216   1.309   1.432   1.478   1.528
  1.603   1.683   1.693   1.824   1.878   1.958   1.978   2.010
  2.053   2.072   2.125   2.127   2.227   2.262   2.291   2.374
  2.440   2.454   2.525   2.577   2.680   2.712   2.743   2.805
  2.860   2.883   2.922   3.186   3.259   3.360   3.379   3.466
  3.482   3.556   4.243   4.432   4.608   4.652   4.659   4.660
  4.685   4.687   6.215  90.142
 
 Beta MOs
 -- Occupied --
******* -62.552 -56.373 -56.369 -56.369 -10.185 -10.174 -10.170
 -8.737  -6.567  -6.554  -6.554  -2.661  -2.657  -2.657  -2.646
 -2.646  -0.767  -0.750  -0.652  -0.563  -0.455  -0.420  -0.385
 -0.365  -0.342  -0.328  -0.306  -0.304
 -- Virtual --
 -0.233  -0.038   0.108   0.146   0.148   0.160   0.176   0.181
  0.194   0.225   0.237   0.282   0.319   0.322   0.333   0.521
  0.537   0.553   0.569   0.582   0.591   0.593   0.594   0.597
  0.602   0.670   0.679   0.762   0.792   0.825   0.864   0.882
  0.888   0.920   0.944   0.974   1.003   1.226   1.318   1.462
  1.483   1.543   1.624   1.684   1.712   1.834   1.883   1.961
  2.002   2.049   2.054   2.073   2.125   2.136   2.228   2.273
  2.292   2.380   2.445   2.465   2.535   2.601   2.685   2.713
  2.747   2.808   2.863   2.885   2.926   3.187   3.263   3.365
  3.381   3.468   3.488   3.559   4.262   4.448   4.610   4.671
  4.674   4.675   4.688   4.690   6.231  90.149
 --------------------------------------------------------------
 
          Ground-State Mulliken Net Atomic Charges

     Atom                 Charge (a.u.)    Spin (a.u.)
  --------------------------------------------------------
      1 Br                   -0.003577       1.006773
      2 C                    -0.191462      -0.073094
      3 C                    -0.213694       1.072319
      4 C                    -0.307149       0.049814
      5 H                     0.101694       0.012627
      6 H                     0.101850       0.013232
      7 H                     0.100947      -0.047289
      8 H                     0.101146      -0.047299
      9 H                     0.100121       0.014015
     10 H                     0.105038      -0.000572
     11 H                     0.105085      -0.000526
  --------------------------------------------------------
  Sum of atomic charges =    -0.000000
  Sum of spin   charges =     2.000000

 -----------------------------------------------------------------
                    Cartesian Multipole Moments
 -----------------------------------------------------------------
    Charge (ESU x 10^10)
                 0.0000
    Dipole Moment (Debye)
         X      -0.2880      Y       0.0184      Z      -0.0003
       Tot       0.2886
    Quadrupole Moments (Debye-Ang)
        XX     -40.4990     XY      -0.7645     YY     -36.9381
        XZ      -0.0141     YZ       0.0558     ZZ     -38.8481
    Octopole Moments (Debye-Ang^2)
       XXX    -161.9107    XXY       0.5858    XYY     -42.2574
       YYY       5.5553    XXZ      -0.2418    XYZ       0.2518
       YYZ      -0.1743    XZZ     -53.4553    YZZ       0.9031
       ZZZ      -0.6289
    Hexadecapole Moments (Debye-Ang^3)
      XXXX   -2145.2480   XXXY      -7.0354   XXYY    -323.9501
      XYYY       4.1422   YYYY     -84.7579   XXXZ      -2.9034
      XXYZ       0.9795   XYYZ      -0.7800   YYYZ      -0.0217
      XXZZ    -366.1675   XYZZ       1.9888   YYZZ     -22.9565
      XZZZ      -2.5958   YZZZ       0.0602   ZZZZ     -64.4539
 -----------------------------------------------------------------
 Calculating analytic gradient of the SCF energy
 Gradient of SCF Energy
            1           2           3           4           5           6
    1  -0.0009704   0.0000067   0.0011338   0.0000115   0.0000003   0.0000034
    2  -0.0000581   0.0000112   0.0003261  -0.0000106  -0.0000143  -0.0000079
    3   0.0000054   0.0000013   0.0000000  -0.0000027   0.0000073  -0.0000005
            7           8           9          10          11
    1  -0.0000975  -0.0000884  -0.0000107   0.0000064   0.0000047
    2  -0.0001073  -0.0001055  -0.0000163  -0.0000066  -0.0000106
    3   0.0000501  -0.0000540  -0.0000007  -0.0000034  -0.0000029
 Max gradient component =       1.134E-03
 RMS gradient           =       2.688E-04
 Gradient time:  CPU 9.08 s  wall 0.78 s
 Geometry Optimization Parameters
   NAtoms,    NIC,     NZ,  NCons,   NDum,   NFix, NCnnct, MaxDiis
       11      85       0       1       0       0       0       0

 Cartesian Hessian Update
 Hessian Updated using BFGS Update


** CONSTRAINED OPTIMIZATION IN DELOCALIZED INTERNAL COORDINATES **
   Searching for a Minimum

   Optimization Cycle:   6

                       Coordinates (Angstroms)
     ATOM                X               Y               Z
      1  Br        3.9760001136    0.0001100173    0.0099713469
      2  C        -0.8782911831    0.4789844823    0.0076385070
      3  C         0.2142960419   -0.5380047257    0.0059852563
      4  C        -2.2941037853   -0.1456716773   -0.0087290826
      5  H        -0.7908611130    1.1203013952    0.8943561700
      6  H        -0.7782318167    1.1367670100   -0.8656781982
      7  H         0.5517473480   -0.9884345913   -0.9221461038
      8  H         0.5474541195   -0.9969076654    0.9314663628
      9  H        -3.0654071207    0.6326475572   -0.0069811422
     10  H        -2.4384303088   -0.7650864814   -0.8997460992
     11  H        -2.4513872953   -0.7821053209    0.8679639829
   Point Group: c1    Number of degrees of freedom:    27


   Energy is  -2692.320634381

              Constraints and their Current Values
                                        Value     Constraint
   Distance(Angs):        1   3             3.800000     3.800000
 Hessian Updated using BFGS Update

 26 Hessian modes will be used to form the next step
  Hessian Eigenvalues:
     0.013539    0.043297    0.045000    0.045005    0.051613    0.067853
     0.078017    0.081785    0.082972    0.083074    0.085856    0.105711
     0.132669    0.159991    0.160000    0.160366    0.220953    0.278503
     0.327657    0.332502    0.339157    0.339299    0.341615    0.342766
     0.342792    0.527273

 Minimum Search - Taking Simple RFO Step
 Searching for Lamda that Minimizes Along All modes
 Value Taken    Lamda =  -0.00000106
 Step Taken.  Stepsize is  0.008372

                             Maximum     Tolerance    Cnvgd?
         Gradient           0.000078      0.000300     YES
         Displacement       0.005642      0.001200      NO
         Energy change     -0.000001      0.000001     YES


                       Distance Matrix (Angstroms)
             Br(  1)   C (  2)   C (  3)   C (  4)   H (  5)   H (  6)
   C (  2)  4.877855
   C (  3)  3.800000  1.492654
   C (  4)  6.271826  1.547575  2.538939
   H (  5)  4.975935  1.097816  2.132961  2.162866
   H (  6)  4.966032  1.097894  2.133019  2.162609  1.760157
   H (  7)  3.683961  2.250073  1.085444  3.105390  3.090153  2.507691
   H (  8)  3.687564  2.250437  1.085404  3.111755  2.505003  3.088647
   H (  9)  7.069781  2.192556  3.482391  1.095761  2.494749  2.494528
   H ( 10)  6.523652  2.192052  2.812272  1.094722  3.080256  2.524771
   H ( 11)  6.531410  2.192063  2.812198  1.094704  2.525311  3.080103
             H (  7)   H (  8)   H (  9)   H ( 10)
   H (  8)  1.853637
   H (  9)  4.068076  4.072947
   H ( 10)  2.998591  3.510354  1.773073
   H ( 11)  3.502268  3.007195  1.773154  1.767839
 
 Final energy is   -2692.32063438125     


 ******************************
 **  OPTIMIZATION CONVERGED  **
 ******************************

                       Coordinates (Angstroms)
     ATOM                X               Y               Z
      1  Br        3.9760001136    0.0001100173    0.0099713469
      2  C        -0.8782911831    0.4789844823    0.0076385070
      3  C         0.2142960419   -0.5380047257    0.0059852563
      4  C        -2.2941037853   -0.1456716773   -0.0087290826
      5  H        -0.7908611130    1.1203013952    0.8943561700
      6  H        -0.7782318167    1.1367670100   -0.8656781982
      7  H         0.5517473480   -0.9884345913   -0.9221461038
      8  H         0.5474541195   -0.9969076654    0.9314663628
      9  H        -3.0654071207    0.6326475572   -0.0069811422
     10  H        -2.4384303088   -0.7650864814   -0.8997460992
     11  H        -2.4513872953   -0.7821053209    0.8679639829

Z-matrix Print:
$molecule
0 3
Br
H  1 3.683961
C  2 1.085444 1 87.780265
H  3 1.085404 2 117.271775 1 -65.391764 0
C  3 1.492654 2 120.746651 1 127.019669 0
H  5 1.097816 3 109.914399 2 -155.309437 0
H  5 1.097894 3 109.914291 2 -38.314186 0
C  5 1.547575 3 113.243171 2 83.172584 0
H  8 1.094704 5 110.955181 3 59.833648 0
H  8 1.094722 5 110.953282 3 -59.846201 0
H  8 1.095761 5 110.931247 3 180.000000 0
$end

PES scan, value:    3.8000 energy: -2692.3206343812
------- Summary of potential scan: ------ 
    3.8000     -2692.3206343812
----------------------------------------- 
Archival summary:
1\1\hpc0242\JobtypUnspecified\ProcedureUnspecified\6-31G**\r137(3)\knomura\WedMar1317:32:082019WedMar1317:32:082019\0\\#,JobtypUnspecified,ProcedureUnspecified,6-31G**,\\0,3\Br\H,1,3.68396\C,2,1.08544,1,87.7803\H,3,1.0854,2,117.272,1,-65.3918,0\C,3,1.49265,2,120.747,1,127.02,0\H,5,1.09782,3,109.914,2,-155.309,0\H,5,1.09789,3,109.914,2,-38.3142,0\C,5,1.54758,3,113.243,2,83.1726,0\H,8,1.0947,5,110.955,3,59.8336,0\H,8,1.09472,5,110.953,3,-59.8462,0\H,8,1.09576,5,110.931,3,180,0\\\@

 Total job time:  36.16s(wall), 421.83s(cpu) 
 Wed Mar 13 17:32:08 2019

        *************************************************************
        *                                                           *
        *  Thank you very much for using Q-Chem.  Have a nice day.  *
        *                                                           *
        *************************************************************


