
Running Job 1 of 1 halogens/Bromine/02/Br_3.xyz.data/inputs/bond_triplet_3.1.in
qchem halogens/Bromine/02/Br_3.xyz.data/inputs/bond_triplet_3.1.in_28799.0 /staging/scratch/2868759/qchem28799/ 1
/usr/usc/qchem/5.1.1/exe/qcprog.exe_s halogens/Bromine/02/Br_3.xyz.data/inputs/bond_triplet_3.1.in_28799.0 /staging/scratch/2868759/qchem28799/
Check license passed

                  Welcome to Q-Chem
     A Quantum Leap Into The Future Of Chemistry


 Q-Chem 5.1, Q-Chem, Inc., Pleasanton, CA (2018)

 Yihan Shao,  Zhengting Gan,  E. Epifanovsky,  A. T. B. Gilbert,  M. Wormit,  
 J. Kussmann,  A. W. Lange,  A. Behn,  Jia Deng,  Xintian Feng,  D. Ghosh,  
 M. Goldey,  P. R. Horn,  L. D. Jacobson,  I. Kaliman,  T. Kus,  A. Landau,  
 Jie Liu,  E. I. Proynov,  R. M. Richard,  R. P. Steele,  E. J. Sundstrom,  
 H. L. Woodcock III,  P. M. Zimmerman,  D. Zuev,  B. Albrecht,  E. Alguire,  
 S. A. Baeppler,  D. Barton,  Z. Benda,  Y. A. Bernard,  E. J. Berquist,  
 K. B. Bravaya,  H. Burton,  D. Casanova,  Chun-Min Chang,  Yunqing Chen,  
 A. Chien,  K. D. Closser,  M. P. Coons,  S. Coriani,  S. Dasgupta,  
 A. L. Dempwolff,  M. Diedenhofen,  Hainam Do,  R. G. Edgar,  Po-Tung Fang,  
 S. Faraji,  S. Fatehi,  Qingguo Feng,  K. D. Fenk,  J. Fosso-Tande,  
 Qinghui Ge,  A. Ghysels,  G. Gidofalvi,  J. Gomes,  J. Gonthier,  A. Gunina,  
 D. Hait,  M. W. D. Hanson-Heine,  P. H. P. Harbach,  A. W. Hauser,  
 J. E. Herr,  E. G. Hohenstein,  Z. C. Holden,  Kerwin Hui,  B. C. Huynh,  
 T.-C. Jagau,  Hyunjun Ji,  B. Kaduk,  K. Khistyaev,  Jaehoon Kim,  
 P. Klunzinger,  K. Koh,  D. Kosenkov,  L. Koulias,  T. Kowalczyk,  
 C. M. Krauter,  A. Kunitsa,  Ka Un Lao,  A. Laurent,  K. V. Lawler,  
 Joonho Lee,  D. Lefrancois,  S. Lehtola,  D. S. Levine,  Yi-Pei Li,  
 You-Sheng Lin,  Fenglai Liu,  E. Livshits,  A. Luenser,  P. Manohar,  
 E. Mansoor,  S. F. Manzer,  Shan-Ping Mao,  Yuezhi Mao,  N. Mardirossian,  
 A. V. Marenich,  T. Markovich,  L. A. Martinez-Martinez,  S. A. Maurer,  
 N. J. Mayhall,  S. C. McKenzie,  J.-M. Mewes,  A. F. Morrison,  
 J. W. Mullinax,  K. Nanda,  T. S. Nguyen-Beck,  R. Olivares-Amaya,  
 J. A. Parkhill,  T. M. Perrine,  F. Plasser,  P. Pokhilko,  S. Prager,  
 A. Prociuk,  E. Ramos,  D. R. Rehn,  F. Rob,  M. Schneider,  N. Sergueev,  
 S. M. Sharada,  S. Sharma,  D. W. Small,  T. Stauch,  T. Stein,  
 Yu-Chuan Su,  A. J. W. Thom,  A. Tkatchenko,  T. Tsuchimochi,  N. M. Tubman,  
 L. Vogt,  M. L. Vidal,  O. Vydrov,  M. A. Watson,  J. Wenzel,  
 M. de Wergifosse,  T. A. Wesolowski,  A. White,  J. Witte,  A. Yamada,  
 Jun Yang,  K. Yao,  S. Yeganeh,  S. R. Yost,  Zhi-Qiang You,  A. Zech,  
 Igor Ying Zhang,  Xing Zhang,  Yan Zhao,  Ying Zhu,  B. R. Brooks,  
 G. K. L. Chan,  C. J. Cramer,  M. S. Gordon,  W. J. Hehre,  A. Klamt,  
 M. W. Schmidt,  C. D. Sherrill,  D. G. Truhlar,  A. Aspuru-Guzik,  R. Baer,  
 A. T. Bell,  N. A. Besley,  Jeng-Da Chai,  A. E. DePrince, III,  
 R. A. DiStasio Jr.,  A. Dreuw,  B. D. Dunietz,  T. R. Furlani,  
 Chao-Ping Hsu,  Yousung Jung,  Jing Kong,  D. S. Lambrecht,  WanZhen Liang,  
 C. Ochsenfeld,  V. A. Rassolov,  L. V. Slipchenko,  J. E. Subotnik,  
 T. Van Voorhis,  J. M. Herbert,  A. I. Krylov,  P. M. W. Gill,  M. Head-Gordon

 Contributors to earlier versions of Q-Chem not listed above: 
 R. D. Adamson,  B. Austin,  J. Baker,  G. J. O. Beran,  K. Brandhorst,  
 S. T. Brown,  E. F. C. Byrd,  A. K. Chakraborty,  C.-L. Cheng,  
 Siu Hung Chien,  D. M. Chipman,  D. L. Crittenden,  H. Dachsel,  
 R. J. Doerksen,  A. D. Dutoi,  L. Fusti-Molnar,  W. A. Goddard III,  
 A. Golubeva-Zadorozhnaya,  S. R. Gwaltney,  G. Hawkins,  A. Heyden,  
 S. Hirata,  G. Kedziora,  F. J. Keil,  C. Kelley,  Jihan Kim,  R. A. King,  
 R. Z. Khaliullin,  P. P. Korambath,  W. Kurlancheek,  A. M. Lee,  M. S. Lee,  
 S. V. Levchenko,  Ching Yeh Lin,  D. Liotard,  R. C. Lochan,  I. Lotan,  
 P. E. Maslen,  N. Nair,  D. P. O'Neill,  D. Neuhauser,  E. Neuscamman,  
 C. M. Oana,  R. Olson,  B. Peters,  R. Peverati,  P. A. Pieniazek,  
 Y. M. Rhee,  J. Ritchie,  M. A. Rohrdanz,  E. Rosta,  N. J. Russ,  
 H. F. Schaefer III,  N. E. Schultz,  N. Shenvi,  A. C. Simmonett,  A. Sodt,  
 D. Stuck,  K. S. Thanthiriwatte,  V. Vanovschi,  Tao Wang,  A. Warshel,  
 C. F. Williams,  Q. Wu,  X. Xu,  W. Zhang

 Please cite Q-Chem as follows:
 Y. Shao et al., Mol. Phys. 113, 184-215 (2015)
 DOI: 10.1080/00268976.2014.952696

 Q-Chem 5.1.1 for Intel X86 EM64T Linux

 Parts of Q-Chem use Armadillo 8.300.2 (Tropical Shenanigans).
 http://arma.sourceforge.net/

 Q-Chem begins on Wed Mar 13 17:37:37 2019  

Host: 
0

     Scratch files written to /staging/scratch/2868759/qchem28799//
 Aug318 |scratch|qcdevops|jenkins|workspace|build_RNUM 6013   
Processing $rem in /usr/usc/qchem/5.1.1/config/preferences.
 MEM_TOTAL  2000 
Input Ideriv = 2
Curr. Ideriv = -1
Max.  Ideriv = 2

Checking the input file for inconsistencies... 	...done.

--------------------------------------------------------------
User input:
--------------------------------------------------------------

$comment
potential surface scanner
$end

$rem
JOBTYPE  PES_SCAN
UNRESTRICTED TRUE
SYM_IGNORE  TRUE
GEOM_OPT_MAX_CYCLES 400
SCF_MAX_CYCLES 400
METHOD   B3LYP
BASIS   6-31G**
PDB_PRINT 2
SCF_CONVERGENCE 6
THRESH 14
SCF_PRINT 1
$end
$molecule
0 3
Br 3.111207 0.639200 0.036332
C -0.718834 0.377420 -0.000735
C 0.237976 -0.768956 -0.004201
C -2.203084 -0.059163 -0.000551
H -0.544126 1.008103 0.881461
H -0.543307 1.013338 -0.878355
H 0.516123 -1.253144 -0.935144
H 0.473285 -1.293645 0.916618
H -2.866777 0.812905 0.004536
H -2.436183 -0.657695 -0.887076
H -2.433495 -0.665762 0.881219
$end
$scan
stre 1 3 3.100000 3.101000 0.100000
$end
--------------------------------------------------------------
 ----------------------------------------------------------------
             Standard Nuclear Orientation (Angstroms)
    I     Atom           X                Y                Z
 ----------------------------------------------------------------
    1      Br      3.1112070000     0.6392000000     0.0363320000
    2      C      -0.7188340000     0.3774200000    -0.0007350000
    3      C       0.2379760000    -0.7689560000    -0.0042010000
    4      C      -2.2030840000    -0.0591630000    -0.0005510000
    5      H      -0.5441260000     1.0081030000     0.8814610000
    6      H      -0.5433070000     1.0133380000    -0.8783550000
    7      H       0.5161230000    -1.2531440000    -0.9351440000
    8      H       0.4732850000    -1.2936450000     0.9166180000
    9      H      -2.8667770000     0.8129050000     0.0045360000
   10      H      -2.4361830000    -0.6576950000    -0.8870760000
   11      H      -2.4334950000    -0.6657620000     0.8812190000
 ----------------------------------------------------------------
 Nuclear Repulsion Energy =   190.2637988035 hartrees
 There are       31 alpha and       29 beta electrons
 Requested basis set is 6-31G(d,p)
 There are 41 shells and 115 basis functions

 Total QAlloc Memory Limit   2000 MB
 Mega-Array Size       188 MB
 MEM_STATIC part       192 MB
A total of 1 constraints
  
            1
    1   1.0100000
    2   1.0100000
    3   3.0100000
    4   3.1000000
    5   3.1010000
    6   0.1000000
    7   0.0000000
    8   0.0000000
    9   0.0000000
   10   0.0000000

                       Distance Matrix (Angstroms)
             Br(  1)   C (  2)   C (  3)   C (  4)   H (  5)   H (  6)
   C (  2)  3.839156
   C (  3)  3.200000  1.493210
   C (  4)  5.360108  1.547127  2.542163
   H (  5)  3.769853  1.098432  2.134015  2.160820
   H (  6)  3.785777  1.097915  2.133335  2.162327  1.759824
   H (  7)  3.355472  2.248773  1.085568  3.113381  3.088271  2.502510
   H (  8)  3.386654  2.248364  1.085623  3.086761  2.516824  3.094763
   H (  9)  5.980592  2.191651  3.484516  1.095909  2.490343  2.493628
   H ( 10)  5.771322  2.192339  2.818328  1.094761  3.079365  2.524957
   H ( 11)  5.758514  2.192290  2.816270  1.094792  2.524191  3.080307
             H (  7)   H (  8)   H (  9)   H ( 10)
   H (  8)  1.852700
   H (  9)  4.073766  4.052834
   H ( 10)  3.012139  3.481774  1.772864
   H ( 11)  3.513465  2.974031  1.772784  1.768315
 
 A cutoff of  1.0D-14 yielded    779 shell pairs
 There are      5988 function pairs
 
 -------------------------------------------------------
 OpenMP Integral Computing Module                       
 Release: version 1.0, May 2013, Q-Chem Inc. Pittsburgh 
 -------------------------------------------------------
 Integral Job Info:
 Integral job number is                      11
 Integral operator is                         1
 short-range coefficients                     0
 long-range coefficients              100000000
 Omega coefficients                           0
 if combine SR and LR in K                    0
 Integral screening is                        0
 Integral computing path is                   2
 max size of driver memory is            800000
 size of driver memory is                593474
 size of scratch memory is             15267112
 max col of scratch BK array               1296
 max len of scratch array in speh3          155
 max len of scratch index in speh4           18
 max int batch size is                      520
 min int batch size is                       52
 fixed nKL is                                52
 max L of basis functions is                  2
 order of int derivative is                   0
 number of shells is                         41
 number of basis is                         115
 number of cartesian basis is               115
 number of contracted shell pairs           779
 number of primitive shell pairs           2979
 maxK2 (contraction) of shell pair           36
 max number of K2 of shell pair               1
 max number of CS2 of shell pair             59
 max number of PS2 of shell pair            264
 mem total for path MDJ                  517212
 -------------------------------------------------------
 Smallest overlap matrix eigenvalue = 7.26E-04

 Scale SEOQF with 1.000000e-01/1.000000e+00/1.000000e+00

 Standard Electronic Orientation quadrupole field applied
 Nucleus-field energy     =     0.0000000270 hartrees
 Guess from superposition of atomic densities
 Warning:  Energy on first SCF cycle will be non-variational
 SAD guess density has 59.972873 electrons

 -----------------------------------------------------------------------
  General SCF calculation program by
  Eric Jon Sundstrom, Paul Horn, Yuezhi Mao, Dmitri Zuev, Alec White,
  David Stuck, Shaama M.S., Shane Yost, Joonho Lee, David Small,
  Daniel Levine, Susi Lehtola, Hugh Burton, Evgeny Epifanovsky
 -----------------------------------------------------------------------
 Exchange:     0.2000 Hartree-Fock + 0.0800 Slater + 0.7200 B88
 Correlation:  0.1900 VWN1RPA + 0.8100 LYP
 Using SG-1 standard quadrature grid
 using 12 threads for integral computing
 -------------------------------------------------------
 OpenMP Integral computing Module                
 Release: version 1.0, May 2013, Q-Chem Inc. Pittsburgh 
 -------------------------------------------------------
 -------------------------------------------------------
 OpenMP BLAS3 based DFT computing Module                
 Release: version 1.0, May 2013, Q-Chem Inc. Pittsburgh 
 -------------------------------------------------------
 A unrestricted SCF calculation will be
 performed using DIIS
 SCF converges when DIIS error is below 1.0e-06
 Alpha HF Exchange    Energy = -10.71233256498393
 Beta HF Exchange     Energy = -10.71233256498393
 DFT Correlation      Energy =  -3.10764286358795
 DFT Exchange         Energy = -84.97368550554589
 One-Electron (alpha) Energy = -2056.88747655528141
 One-Electron (beta)  Energy = -2056.88747655528141
 Total Coulomb        Energy = 1337.44189510361139
 ---------------------------------------
  Cycle       Energy         DIIS error
 ---------------------------------------
    1   -2695.5752526755      1.64e-01  
 Alpha HF Exchange    Energy = -10.89719035990673
 Beta HF Exchange     Energy = -10.69906032058958
 DFT Correlation      Energy =  -3.13979511643395
 DFT Exchange         Energy = -85.89592469507467
 One-Electron (alpha) Energy = -2081.06195314731485
 One-Electron (beta)  Energy = -2043.54959995731451
 Total Coulomb        Energy = 1352.76927373648482
    2   -2692.2104510296      9.52e-03  
 Alpha HF Exchange    Energy = -10.80036938362953
 Beta HF Exchange     Energy = -10.61289113062335
 DFT Correlation      Energy =  -3.10544653488005
 DFT Exchange         Energy = -85.14874017610826
 One-Electron (alpha) Energy = -2073.57612201076381
 One-Electron (beta)  Energy = -2036.72988832547708
 Total Coulomb        Energy = 1337.50114298659082
    3   -2692.2085157443      4.19e-03  
 Alpha HF Exchange    Energy = -10.87395969342743
 Beta HF Exchange     Energy = -10.67825765523512
 DFT Correlation      Energy =  -3.13131586193944
 DFT Exchange         Energy = -85.71045644859460
 One-Electron (alpha) Energy = -2079.08700249359072
 One-Electron (beta)  Energy = -2041.54124039134695
 Total Coulomb        Energy = 1348.48663866225343
    4   -2692.2717950513      2.68e-03  
 Alpha HF Exchange    Energy = -10.85084013236698
 Beta HF Exchange     Energy = -10.65708270814873
 DFT Correlation      Energy =  -3.12183777003302
 DFT Exchange         Energy = -85.52804853601472
 One-Electron (alpha) Energy = -2077.54778390510546
 One-Electron (beta)  Energy = -2040.11651822350041
 Total Coulomb        Energy = 1345.24131491179219
    5   -2692.3169975328      3.29e-04  
 Alpha HF Exchange    Energy = -10.84857580483642
 Beta HF Exchange     Energy = -10.65547848147505
 DFT Correlation      Energy =  -3.12162057995655
 DFT Exchange         Energy = -85.51328684813197
 One-Electron (alpha) Energy = -2077.32300255684231
 One-Electron (beta)  Energy = -2039.91246617734441
 Total Coulomb        Energy = 1344.79318697566055
    6   -2692.3174446424      6.02e-05  
 Alpha HF Exchange    Energy = -10.84848194410450
 Beta HF Exchange     Energy = -10.65524600058662
 DFT Correlation      Energy =  -3.12146756073404
 DFT Exchange         Energy = -85.51179285255390
 One-Electron (alpha) Energy = -2077.31182294853306
 One-Electron (beta)  Energy = -2039.89453251707482
 Total Coulomb        Energy = 1344.76207566117637
    7   -2692.3174693318      1.88e-05  
 Alpha HF Exchange    Energy = -10.84855256721154
 Beta HF Exchange     Energy = -10.65533701460807
 DFT Correlation      Energy =  -3.12144888786740
 DFT Exchange         Energy = -85.51235087989564
 One-Electron (alpha) Energy = -2077.32251487709891
 One-Electron (beta)  Energy = -2039.90150327443871
 Total Coulomb        Energy = 1344.78043645248454
    8   -2692.3174722181      7.43e-06  
 Alpha HF Exchange    Energy = -10.84859685555761
 Beta HF Exchange     Energy = -10.65534249725494
 DFT Correlation      Energy =  -3.12145426894806
 DFT Exchange         Energy = -85.51254402790278
 One-Electron (alpha) Energy = -2077.32463839825596
 One-Electron (beta)  Energy = -2039.90094346845149
 Total Coulomb        Energy = 1344.78224750151958
    9   -2692.3174731843      2.52e-06  
 Alpha HF Exchange    Energy = -10.84859657947406
 Beta HF Exchange     Energy = -10.65533684116833
 DFT Correlation      Energy =  -3.12144897624681
 DFT Exchange         Energy = -85.51251478888496
 One-Electron (alpha) Energy = -2077.32421061533387
 One-Electron (beta)  Energy = -2039.89983938524506
 Total Coulomb        Energy = 1344.78067455600331
   10   -2692.3174737998      1.95e-06  
 Alpha HF Exchange    Energy = -10.84859714662251
 Beta HF Exchange     Energy = -10.65533513196477
 DFT Correlation      Energy =  -3.12144831173117
 DFT Exchange         Energy = -85.51251096230365
 One-Electron (alpha) Energy = -2077.32433679231053
 One-Electron (beta)  Energy = -2039.89978308944546
 Total Coulomb        Energy = 1344.78073839727222
   11   -2692.3174742065      1.82e-06  
 Alpha HF Exchange    Energy = -10.84859739050783
 Beta HF Exchange     Energy = -10.65533414127850
 DFT Correlation      Energy =  -3.12144816398293
 DFT Exchange         Energy = -85.51250909801921
 One-Electron (alpha) Energy = -2077.32435754628386
 One-Electron (beta)  Energy = -2039.89969480573768
 Total Coulomb        Energy = 1344.78066769814609
   12   -2692.3174746171      1.82e-06  
 Alpha HF Exchange    Energy = -10.84859671704507
 Beta HF Exchange     Energy = -10.65533526225785
 DFT Correlation      Energy =  -3.12144825886335
 DFT Exchange         Energy = -85.51250867115057
 One-Electron (alpha) Energy = -2077.32427650020873
 One-Electron (beta)  Energy = -2039.89983644469544
 Total Coulomb        Energy = 1344.78072940283323
   13   -2692.3174736208      1.78e-06  
 Alpha HF Exchange    Energy = -10.84859037404657
 Beta HF Exchange     Energy = -10.65535862713867
 DFT Correlation      Energy =  -3.12144656170188
 DFT Exchange         Energy = -85.51254578535389
 One-Electron (alpha) Energy = -2077.32333298338108
 One-Electron (beta)  Energy = -2039.90288673124428
 Total Coulomb        Energy = 1344.78290039012836
   14   -2692.3174618422      2.30e-06  
 Alpha HF Exchange    Energy = -10.84858912034411
 Beta HF Exchange     Energy = -10.65536059118897
 DFT Correlation      Energy =  -3.12144615709579
 DFT Exchange         Energy = -85.51254582587185
 One-Electron (alpha) Energy = -2077.32314685050005
 One-Electron (beta)  Energy = -2039.90316909571970
 Total Coulomb        Energy = 1344.78299799257024
   15   -2692.3174608176      2.37e-06  
 Alpha HF Exchange    Energy = -10.84858919889811
 Beta HF Exchange     Energy = -10.65536060513007
 DFT Correlation      Energy =  -3.12144634709135
 DFT Exchange         Energy = -85.51254567865162
 One-Electron (alpha) Energy = -2077.32314878641046
 One-Electron (beta)  Energy = -2039.90320306160038
 Total Coulomb        Energy = 1344.78303440271270
   16   -2692.3174604445      2.16e-06  
 Alpha HF Exchange    Energy = -10.84857748075602
 Beta HF Exchange     Energy = -10.65540061355071
 DFT Correlation      Energy =  -3.12143189443808
 DFT Exchange         Energy = -85.51261360013103
 One-Electron (alpha) Energy = -2077.32118135224664
 One-Electron (beta)  Energy = -2039.90863428884199
 Total Coulomb        Energy = 1344.78658746829615
   17   -2692.3174529311      6.85e-06  
 Alpha HF Exchange    Energy = -10.84857866681980
 Beta HF Exchange     Energy = -10.65539818983817
 DFT Correlation      Energy =  -3.12143386751686
 DFT Exchange         Energy = -85.51261247111644
 One-Electron (alpha) Energy = -2077.32137301330204
 One-Electron (beta)  Energy = -2039.90824963690557
 Total Coulomb        Energy = 1344.78639405712738
   18   -2692.3174529578      6.71e-06  
 Alpha HF Exchange    Energy = -10.84857848521222
 Beta HF Exchange     Energy = -10.65539897575856
 DFT Correlation      Energy =  -3.12143379533905
 DFT Exchange         Energy = -85.51261468507519
 One-Electron (alpha) Energy = -2077.32135517650386
 One-Electron (beta)  Energy = -2039.90831991830373
 Total Coulomb        Energy = 1344.78644927177947
   19   -2692.3174529338      7.00e-06  
 Alpha HF Exchange    Energy = -10.84858121378347
 Beta HF Exchange     Energy = -10.65538267870005
 DFT Correlation      Energy =  -3.12143700621772
 DFT Exchange         Energy = -85.51256894767555
 One-Electron (alpha) Energy = -2077.32169952998265
 One-Electron (beta)  Energy = -2039.90662738168294
 Total Coulomb        Energy = 1344.78504459495366
   20   -2692.3174533325      2.47e-06  
 Alpha HF Exchange    Energy = -10.84858284671624
 Beta HF Exchange     Energy = -10.65537107345381
 DFT Correlation      Energy =  -3.12143968958641
 DFT Exchange         Energy = -85.51253592324582
 One-Electron (alpha) Energy = -2077.32196570601491
 One-Electron (beta)  Energy = -2039.90538082396506
 Total Coulomb        Energy = 1344.78402383381081
   21   -2692.3174533986      4.75e-07  Convergence criterion met
 ---------------------------------------
 SCF time:   CPU 55.69s  wall 5.00s 
<S^2> =          2.005243702
 Alpha HF Exchange    Energy = -10.84858284671624
 Beta HF Exchange     Energy = -10.65537107345381
 DFT Correlation      Energy =  -3.12143968958641
 DFT Exchange         Energy = -85.51253592324582
 One-Electron (alpha) Energy = -2077.32196570601491
 One-Electron (beta)  Energy = -2039.90538082396506
 Total Coulomb        Energy = 1344.78402383381081
 Nuclear repulsion Energy = 190.26379883057118
 SCF   energy in the final basis set =    -2692.3174533986
 Total energy in the final basis set =    -2692.3174533986
 
 --------------------------------------------------------------
 
                    Orbital Energies (a.u.)
 --------------------------------------------------------------
 
 Alpha MOs
 -- Occupied --
******* -62.552 -56.376 -56.369 -56.369 -10.183 -10.181 -10.175
 -8.739  -6.576  -6.554  -6.554  -2.667  -2.661  -2.661  -2.645
 -2.645  -0.793  -0.776  -0.670  -0.577  -0.459  -0.424  -0.390
 -0.378  -0.367  -0.347  -0.330  -0.319  -0.318  -0.189
 -- Virtual --
  0.102   0.138   0.144   0.152   0.178   0.181   0.190   0.221
  0.229   0.275   0.298   0.318   0.351   0.501   0.510   0.535
  0.539   0.548   0.555   0.559   0.566   0.574   0.614   0.665
  0.711   0.774   0.793   0.850   0.861   0.880   0.896   0.914
  0.942   0.978   1.001   1.223   1.311   1.428   1.489   1.540
  1.604   1.684   1.706   1.829   1.877   1.964   1.972   2.015
  2.054   2.072   2.124   2.129   2.228   2.260   2.291   2.399
  2.435   2.463   2.522   2.578   2.681   2.714   2.745   2.809
  2.856   2.884   2.923   3.186   3.260   3.359   3.379   3.467
  3.485   3.554   4.250   4.436   4.606   4.659   4.661   4.665
  4.689   4.725   6.223  90.168
 
 Beta MOs
 -- Occupied --
******* -62.550 -56.371 -56.368 -56.368 -10.184 -10.173 -10.167
 -8.735  -6.565  -6.552  -6.552  -2.659  -2.655  -2.655  -2.644
 -2.644  -0.766  -0.748  -0.651  -0.563  -0.454  -0.419  -0.384
 -0.365  -0.341  -0.327  -0.304  -0.302
 -- Virtual --
 -0.231  -0.034   0.106   0.145   0.148   0.158   0.182   0.182
  0.201   0.225   0.234   0.284   0.322   0.325   0.362   0.519
  0.537   0.547   0.560   0.567   0.579   0.594   0.596   0.599
  0.618   0.678   0.715   0.797   0.798   0.860   0.864   0.882
  0.908   0.921   0.947   0.995   1.004   1.234   1.320   1.456
  1.494   1.556   1.625   1.684   1.725   1.838   1.882   1.967
  1.999   2.051   2.054   2.073   2.125   2.137   2.229   2.271
  2.292   2.403   2.440   2.475   2.532   2.601   2.687   2.716
  2.749   2.812   2.859   2.886   2.927   3.187   3.264   3.364
  3.380   3.469   3.491   3.557   4.267   4.452   4.609   4.676
  4.676   4.680   4.692   4.732   6.240  90.174
 --------------------------------------------------------------
 
          Ground-State Mulliken Net Atomic Charges

     Atom                 Charge (a.u.)    Spin (a.u.)
  --------------------------------------------------------
      1 Br                    0.002186       1.019920
      2 C                    -0.187405      -0.072310
      3 C                    -0.213741       1.057417
      4 C                    -0.307934       0.047832
      5 H                     0.099437       0.014404
      6 H                     0.100903       0.011752
      7 H                     0.098533      -0.046120
      8 H                     0.099675      -0.046082
      9 H                     0.099124       0.014284
     10 H                     0.104717      -0.000448
     11 H                     0.104506      -0.000649
  --------------------------------------------------------
  Sum of atomic charges =    -0.000000
  Sum of spin   charges =     2.000000

 -----------------------------------------------------------------
                    Cartesian Multipole Moments
 -----------------------------------------------------------------
    Charge (ESU x 10^10)
                 0.0000
    Dipole Moment (Debye)
         X      -0.2592      Y       0.0067      Z      -0.0062
       Tot       0.2594
    Quadrupole Moments (Debye-Ang)
        XX     -40.4795     XY      -1.4978     YY     -37.3595
        XZ      -0.2222     YZ       0.4672     ZZ     -38.7858
    Octopole Moments (Debye-Ang^2)
       XXX    -115.5982    XXY     -14.4251    XYY     -32.7273
       YYY     -21.6394    XXZ      -1.8698    XYZ       1.4202
       YYZ       0.1389    XZZ     -38.7188    YZZ      -9.6988
       ZZZ      -1.9590
    Hexadecapole Moments (Debye-Ang^3)
      XXXX   -1403.6739   XXXY    -133.6184   XXYY    -241.7935
      XYYY     -94.4362   YYYY    -136.0366   XXXZ     -12.0603
      XXYZ       3.6518   XYYZ      -0.0700   YYYZ      -0.1405
      XXZZ    -244.5477   XYZZ     -34.5091   YYZZ     -32.1955
      XZZZ      -6.5281   YZZZ      -0.7623   ZZZZ     -64.4898
 -----------------------------------------------------------------
 Calculating analytic gradient of the SCF energy
 Gradient of SCF Energy
            1           2           3           4           5           6
    1  -0.0049178  -0.0000045   0.0049082  -0.0000022   0.0000093  -0.0000288
    2  -0.0023734   0.0000127   0.0024291  -0.0000100   0.0000199  -0.0000286
    3  -0.0000314   0.0000227   0.0000564   0.0000245  -0.0000247  -0.0000189
            7           8           9          10          11
    1   0.0000165   0.0000173  -0.0000085   0.0000021   0.0000085
    2   0.0000202  -0.0000054  -0.0000245  -0.0000199  -0.0000200
    3  -0.0000167   0.0000043  -0.0000074  -0.0000039  -0.0000047
 Max gradient component =       4.918E-03
 RMS gradient           =       1.346E-03
 Gradient time:  CPU 9.90 s  wall 0.87 s
 Geometry Optimization Parameters
   NAtoms,    NIC,     NZ,  NCons,   NDum,   NFix, NCnnct, MaxDiis
       11      85       0       1       0       0       0       0


** CONSTRAINED OPTIMIZATION IN DELOCALIZED INTERNAL COORDINATES **
   Searching for a Minimum

   Optimization Cycle:   1

                       Coordinates (Angstroms)
     ATOM                X               Y               Z
      1  Br        3.1112070000    0.6392000000    0.0363320000
      2  C        -0.7188340000    0.3774200000   -0.0007350000
      3  C         0.2379760000   -0.7689560000   -0.0042010000
      4  C        -2.2030840000   -0.0591630000   -0.0005510000
      5  H        -0.5441260000    1.0081030000    0.8814610000
      6  H        -0.5433070000    1.0133380000   -0.8783550000
      7  H         0.5161230000   -1.2531440000   -0.9351440000
      8  H         0.4732850000   -1.2936450000    0.9166180000
      9  H        -2.8667770000    0.8129050000    0.0045360000
     10  H        -2.4361830000   -0.6576950000   -0.8870760000
     11  H        -2.4334950000   -0.6657620000    0.8812190000
   Point Group: c1    Number of degrees of freedom:    27


   Energy is  -2692.317453399

              Constraints and their Current Values
                                        Value     Constraint
   Distance(Angs):        1   3             3.200000     3.100000

 Attempting to Generate Delocalized Internal Coordinates

   Using Lagrange Multiplier Algorithm


 28 Hessian modes will be used to form the next step
  Hessian Eigenvalues:
    -0.990687    0.045000    0.045000    0.051138    0.054147    0.067756
     0.078115    0.080921    0.082976    0.082996    0.093965    0.099442
     0.104634    0.132789    0.160000    0.160000    0.160000    0.219529
     0.278968    0.313211    0.326047    0.331003    0.338561    0.339137
     0.341386    0.342647    0.342682    1.009401

 Minimum Search - Taking P-RFO Step
 Searching for Lamda that Maximizes Along the Constraint modes Only
 Value Taken    Lamda =   0.01889007
 Searching for Lamda that Minimizes Along All other modes
 Value Taken    Lamda =  -0.01625304
 Step Taken.  Stepsize is  0.185702

                             Maximum     Tolerance    Cnvgd?
         Gradient            0.188973       0.000300      NO
         Displacement        0.185698       0.001200      NO
         Energy change     *********       0.000001      NO


 New Cartesian Coordinates Obtained by Inverse Iteration

 Displacement from previous Coordinates is:  0.239913
 ----------------------------------------------------------------
             Standard Nuclear Orientation (Angstroms)
    I     Atom           X                Y                Z
 ----------------------------------------------------------------
    1      Br      2.9994095073     0.6595551037     0.0352661878
    2      C      -0.7025493230     0.3764779824    -0.0005361654
    3      C       0.2491787634    -0.7741213700    -0.0041352460
    4      C      -2.1887232419    -0.0534867768    -0.0005284863
    5      H      -0.5250961161     1.0062001184     0.8818088895
    6      H      -0.5241698246     1.0118165344    -0.8780106610
    7      H       0.5111415093    -1.2720165014    -0.9461846030
    8      H       0.4684306432    -1.3133635078     0.9278256461
    9      H      -2.8485103027     0.8215440331     0.0046955834
   10      H      -2.4243978352    -0.6507836988    -0.8871996678
   11      H      -2.4219287798    -0.6592209172     0.8811025230
 ----------------------------------------------------------------
 Nuclear Repulsion Energy =   193.4901765623 hartrees
 There are       31 alpha and       29 beta electrons

                       Distance Matrix (Angstroms)
             Br(  1)   C (  2)   C (  3)   C (  4)   H (  5)   H (  6)
   C (  2)  3.712939
   C (  3)  3.101733  1.493211
   C (  4)  5.237025  1.547121  2.542183
   H (  5)  3.641282  1.098441  2.133997  2.160813
   H (  6)  3.657017  1.097923  2.133378  2.162310  1.759829
   H (  7)  3.299347  2.254957  1.097261  3.109397  3.099293  2.508468
   H (  8)  3.330904  2.255796  1.098820  3.083764  2.523804  3.106890
   H (  9)  5.850243  2.191634  3.484523  1.095913  2.490317  2.493578
   H ( 10)  5.655583  2.192305  2.818338  1.094757  3.079340  2.524914
   H ( 11)  5.643183  2.192310  2.816321  1.094793  2.524203  3.080314
             H (  7)   H (  8)   H (  9)   H ( 10)
   H (  8)  1.874953
   H (  9)  4.071170  4.051185
   H ( 10)  3.001133  3.478762  1.772878
   H ( 11)  3.509615  2.963826  1.772773  1.768324
 
 Applying Cartesian multipole field
    Component          Value
    ---------          -----
     (2,0,0)        1.00000E-11
     (0,2,0)        2.00000E-10
     (0,0,2)       -3.00000E-10
 Nucleus-field energy     =     0.0000000269 hartrees
 Requested basis set is 6-31G(d,p)
 There are 41 shells and 115 basis functions
 A cutoff of  1.0D-14 yielded    786 shell pairs
 There are      6102 function pairs
 Smallest overlap matrix eigenvalue = 7.26E-04
 Guess from superposition of atomic densities
 Warning:  Energy on first SCF cycle will be non-variational
 SAD guess density has 59.972873 electrons

 -----------------------------------------------------------------------
  General SCF calculation program by
  Eric Jon Sundstrom, Paul Horn, Yuezhi Mao, Dmitri Zuev, Alec White,
  David Stuck, Shaama M.S., Shane Yost, Joonho Lee, David Small,
  Daniel Levine, Susi Lehtola, Hugh Burton, Evgeny Epifanovsky
 -----------------------------------------------------------------------
 Exchange:     0.2000 Hartree-Fock + 0.0800 Slater + 0.7200 B88
 Correlation:  0.1900 VWN1RPA + 0.8100 LYP
 Using SG-1 standard quadrature grid
 using 12 threads for integral computing
 -------------------------------------------------------
 OpenMP Integral computing Module                
 Release: version 1.0, May 2013, Q-Chem Inc. Pittsburgh 
 -------------------------------------------------------
 -------------------------------------------------------
 OpenMP BLAS3 based DFT computing Module                
 Release: version 1.0, May 2013, Q-Chem Inc. Pittsburgh 
 -------------------------------------------------------
 A unrestricted SCF calculation will be
 performed using DIIS
 SCF converges when DIIS error is below 1.0e-06
 Alpha HF Exchange    Energy = -10.71145714675042
 Beta HF Exchange     Energy = -10.71145714675042
 DFT Correlation      Energy =  -3.10805200706235
 DFT Exchange         Energy = -84.97139548341617
 One-Electron (alpha) Energy = -2060.12522058280774
 One-Electron (beta)  Energy = -2060.12522058280774
 Total Coulomb        Energy = 1340.68692442246925
 ---------------------------------------
  Cycle       Energy         DIIS error
 ---------------------------------------
    1   -2695.5757019380      1.64e-01  
 Alpha HF Exchange    Energy = -10.89650189069722
 Beta HF Exchange     Energy = -10.69750517395360
 DFT Correlation      Energy =  -3.14008660953962
 DFT Exchange         Energy = -85.88873222844984
 One-Electron (alpha) Energy = -2084.48259716606753
 One-Electron (beta)  Energy = -2046.59033299003522
 Total Coulomb        Energy = 1355.99706863137044
    2   -2692.2085108382      9.52e-03  
 Alpha HF Exchange    Energy = -10.80001277588089
 Beta HF Exchange     Energy = -10.61163832609289
 DFT Correlation      Energy =  -3.10569005007815
 DFT Exchange         Energy = -85.14356444696675
 One-Electron (alpha) Energy = -2076.98246567667502
 One-Electron (beta)  Energy = -2039.81002644704245
 Total Coulomb        Energy = 1340.75845699578804
    3   -2692.2047641378      4.21e-03  
 Alpha HF Exchange    Energy = -10.87351085872086
 Beta HF Exchange     Energy = -10.67687573701544
 DFT Correlation      Energy =  -3.13168325867579
 DFT Exchange         Energy = -85.70460170914916
 One-Electron (alpha) Energy = -2082.49576460451271
 One-Electron (beta)  Energy = -2044.57667464510246
 Total Coulomb        Energy = 1351.69984633451486
    4   -2692.2690878895      2.70e-03  
 Alpha HF Exchange    Energy = -10.85048623689985
 Beta HF Exchange     Energy = -10.65595895831736
 DFT Correlation      Energy =  -3.12211857292392
 DFT Exchange         Energy = -85.52320007063189
 One-Electron (alpha) Energy = -2080.97207127200681
 One-Electron (beta)  Energy = -2043.18516617463797
 Total Coulomb        Energy = 1348.50320668800896
    5   -2692.3156180083      3.31e-04  
 Alpha HF Exchange    Energy = -10.84815858594452
 Beta HF Exchange     Energy = -10.65425728228875
 DFT Correlation      Energy =  -3.12189502145166
 DFT Exchange         Energy = -85.50781498307175
 One-Electron (alpha) Energy = -2080.73652405196572
 One-Electron (beta)  Energy = -2042.96957756966367
 Total Coulomb        Energy = 1348.03200011661829
    6   -2692.3160507886      6.13e-05  
 Alpha HF Exchange    Energy = -10.84807858616211
 Beta HF Exchange     Energy = -10.65404655455435
 DFT Correlation      Energy =  -3.12173623988626
 DFT Exchange         Energy = -85.50643313484176
 One-Electron (alpha) Energy = -2080.72732062852037
 One-Electron (beta)  Energy = -2042.95335654603286
 Total Coulomb        Energy = 1348.00471842806019
    7   -2692.3160766728      1.94e-05  
 Alpha HF Exchange    Energy = -10.84815091522461
 Beta HF Exchange     Energy = -10.65414262872111
 DFT Correlation      Energy =  -3.12171774716616
 DFT Exchange         Energy = -85.50701396162196
 One-Electron (alpha) Energy = -2080.73818285313291
 One-Electron (beta)  Energy = -2042.96060202399121
 Total Coulomb        Energy = 1348.02355343765112
    8   -2692.3160801030      7.96e-06  
 Alpha HF Exchange    Energy = -10.84819714898953
 Beta HF Exchange     Energy = -10.65414823748468
 DFT Correlation      Energy =  -3.12172269559335
 DFT Exchange         Energy = -85.50721360576387
 One-Electron (alpha) Energy = -2080.74043005898193
 One-Electron (beta)  Energy = -2042.95999149441809
 Total Coulomb        Energy = 1348.02544506177810
    9   -2692.3160815903      3.10e-06  
 Alpha HF Exchange    Energy = -10.84819665130469
 Beta HF Exchange     Energy = -10.65414159248327
 DFT Correlation      Energy =  -3.12171689902038
 DFT Exchange         Energy = -85.50717987583855
 One-Electron (alpha) Energy = -2080.73997647579199
 One-Electron (beta)  Energy = -2042.95875278177982
 Total Coulomb        Energy = 1348.02370493099761
   10   -2692.3160827561      2.61e-06  
 Alpha HF Exchange    Energy = -10.84819757467864
 Beta HF Exchange     Energy = -10.65413920859458
 DFT Correlation      Energy =  -3.12171618073050
 DFT Exchange         Energy = -85.50717558649859
 One-Electron (alpha) Energy = -2080.74014023436939
 One-Electron (beta)  Energy = -2042.95867143543455
 Total Coulomb        Energy = 1348.02378008886080
   11   -2692.3160835423      2.52e-06  
 Alpha HF Exchange    Energy = -10.84819798670352
 Beta HF Exchange     Energy = -10.65413786054051
 DFT Correlation      Energy =  -3.12171598620442
 DFT Exchange         Energy = -85.50717352012380
 One-Electron (alpha) Energy = -2080.74017766530005
 One-Electron (beta)  Energy = -2042.95857010900932
 Total Coulomb        Energy = 1348.02371228978677
   12   -2692.3160842489      2.53e-06  
 Alpha HF Exchange    Energy = -10.84819621879727
 Beta HF Exchange     Energy = -10.65414195082680
 DFT Correlation      Energy =  -3.12171634383704
 DFT Exchange         Energy = -85.50717610594992
 One-Electron (alpha) Energy = -2080.73998794228328
 One-Electron (beta)  Energy = -2042.95891659746940
 Total Coulomb        Energy = 1348.02387745146325
   13   -2692.3160811185      2.46e-06  
 Alpha HF Exchange    Energy = -10.84818022474414
 Beta HF Exchange     Energy = -10.65420083028199
 DFT Correlation      Energy =  -3.12171034893806
 DFT Exchange         Energy = -85.50727514931432
 One-Electron (alpha) Energy = -2080.73798224744860
 One-Electron (beta)  Energy = -2042.96483954141422
 Total Coulomb        Energy = 1348.02795814356818
   14   -2692.3160536094      5.89e-06  
 Alpha HF Exchange    Energy = -10.84818067699751
 Beta HF Exchange     Energy = -10.65420068842872
 DFT Correlation      Energy =  -3.12171040690898
 DFT Exchange         Energy = -85.50727684747613
 One-Electron (alpha) Energy = -2080.73804262767408
 One-Electron (beta)  Energy = -2042.96482373190065
 Total Coulomb        Energy = 1348.02800450891141
   15   -2692.3160538813      5.95e-06  
 Alpha HF Exchange    Energy = -10.84817994330747
 Beta HF Exchange     Energy = -10.65420567047638
 DFT Correlation      Energy =  -3.12171000660016
 DFT Exchange         Energy = -85.50728677562486
 One-Electron (alpha) Energy = -2080.73791537370971
 One-Electron (beta)  Energy = -2042.96536762883738
 Total Coulomb        Energy = 1348.02843799860125
   16   -2692.3160508108      5.70e-06  
 Alpha HF Exchange    Energy = -10.84816522856234
 Beta HF Exchange     Energy = -10.65425182590412
 DFT Correlation      Energy =  -3.12169197723917
 DFT Exchange         Energy = -85.50735710495405
 One-Electron (alpha) Energy = -2080.73579327783591
 One-Electron (beta)  Energy = -2042.97059628284956
 Total Coulomb        Energy = 1348.03164237710439
   17   -2692.3160367311      1.11e-05  
 Alpha HF Exchange    Energy = -10.84816801398619
 Beta HF Exchange     Energy = -10.65424544691681
 DFT Correlation      Energy =  -3.12169727579461
 DFT Exchange         Energy = -85.50735589922954
 One-Electron (alpha) Energy = -2080.73619276894397
 One-Electron (beta)  Energy = -2042.96984153729181
 Total Coulomb        Energy = 1348.03128477564883
   18   -2692.3160395774      1.14e-05  
 Alpha HF Exchange    Energy = -10.84816782126881
 Beta HF Exchange     Energy = -10.65424525318302
 DFT Correlation      Energy =  -3.12169735693329
 DFT Exchange         Energy = -85.50735488698821
 One-Electron (alpha) Energy = -2080.73617993786092
 One-Electron (beta)  Energy = -2042.96982447843061
 Total Coulomb        Energy = 1348.03125337126949
   19   -2692.3160397742      1.16e-05  
 Alpha HF Exchange    Energy = -10.84816883834614
 Beta HF Exchange     Energy = -10.65423862196255
 DFT Correlation      Energy =  -3.12169854198593
 DFT Exchange         Energy = -85.50733538734326
 One-Electron (alpha) Energy = -2080.73628935620036
 One-Electron (beta)  Energy = -2042.96908833205202
 Total Coulomb        Energy = 1348.03060277410441
   20   -2692.3160397146      9.64e-06  
 Alpha HF Exchange    Energy = -10.84816931044784
 Beta HF Exchange     Energy = -10.65423872957785
 DFT Correlation      Energy =  -3.12169595052388
 DFT Exchange         Energy = -85.50733142693264
 One-Electron (alpha) Energy = -2080.73626577208188
 One-Electron (beta)  Energy = -2042.96920137702841
 Total Coulomb        Energy = 1348.03068809779143
   21   -2692.3160378796      8.04e-06  
 Alpha HF Exchange    Energy = -10.84817145837012
 Beta HF Exchange     Energy = -10.65423342420621
 DFT Correlation      Energy =  -3.12169664340863
 DFT Exchange         Energy = -85.50732061643117
 One-Electron (alpha) Energy = -2080.73647783925571
 One-Electron (beta)  Energy = -2042.96860751828831
 Total Coulomb        Energy = 1348.03029288000971
   22   -2692.3160380308      5.97e-06  
 Alpha HF Exchange    Energy = -10.84817377147144
 Beta HF Exchange     Energy = -10.65422171754219
 DFT Correlation      Energy =  -3.12169922303161
 DFT Exchange         Energy = -85.50728983999032
 One-Electron (alpha) Energy = -2080.73673181926551
 One-Electron (beta)  Energy = -2042.96719971705988
 Total Coulomb        Energy = 1348.02910074504121
   23   -2692.3160387542      2.32e-06  
 Alpha HF Exchange    Energy = -10.84817518154524
 Beta HF Exchange     Energy = -10.65420930896350
 DFT Correlation      Energy =  -3.12170160554634
 DFT Exchange         Energy = -85.50725269406846
 One-Electron (alpha) Energy = -2080.73692707966984
 One-Electron (beta)  Energy = -2042.96575562378803
 Total Coulomb        Energy = 1348.02780539773630
   24   -2692.3160395067      1.43e-06  
 Alpha HF Exchange    Energy = -10.84817525170979
 Beta HF Exchange     Energy = -10.65420757247502
 DFT Correlation      Energy =  -3.12170178692714
 DFT Exchange         Energy = -85.50724681026774
 One-Electron (alpha) Energy = -2080.73693713312105
 One-Electron (beta)  Energy = -2042.96558132251926
 Total Coulomb        Energy = 1348.02763387942787
   25   -2692.3160394084      1.80e-06  
 Alpha HF Exchange    Energy = -10.84817473806251
 Beta HF Exchange     Energy = -10.65421038415529
 DFT Correlation      Energy =  -3.12170099585418
 DFT Exchange         Energy = -85.50725398454566
 One-Electron (alpha) Energy = -2080.73689349368124
 One-Electron (beta)  Energy = -2042.96584515371660
 Total Coulomb        Energy = 1348.02786223674320
   26   -2692.3160399241      1.29e-06  
 Alpha HF Exchange    Energy = -10.84817354052070
 Beta HF Exchange     Energy = -10.65421657266141
 DFT Correlation      Energy =  -3.12169925807068
 DFT Exchange         Energy = -85.50726973161315
 One-Electron (alpha) Energy = -2080.73676017447997
 One-Electron (beta)  Energy = -2042.96620864350666
 Total Coulomb        Energy = 1348.02810895612629
   27   -2692.3160423756      8.86e-07  Convergence criterion met
 ---------------------------------------
 SCF time:   CPU 71.03s  wall 6.00s 
<S^2> =          2.005319990
 Alpha HF Exchange    Energy = -10.84817354052070
 Beta HF Exchange     Energy = -10.65421657266141
 DFT Correlation      Energy =  -3.12169925807068
 DFT Exchange         Energy = -85.50726973161315
 One-Electron (alpha) Energy = -2080.73676017447997
 One-Electron (beta)  Energy = -2042.96620864350666
 Total Coulomb        Energy = 1348.02810895612629
 Nuclear repulsion Energy = 193.49017658915778
 SCF   energy in the final basis set =    -2692.3160423756
 Total energy in the final basis set =    -2692.3160423756
 
 --------------------------------------------------------------
 
                    Orbital Energies (a.u.)
 --------------------------------------------------------------
 
 Alpha MOs
 -- Occupied --
******* -62.552 -56.376 -56.368 -56.368 -10.183 -10.183 -10.174
 -8.739  -6.576  -6.553  -6.553  -2.666  -2.661  -2.661  -2.645
 -2.645  -0.793  -0.775  -0.669  -0.575  -0.458  -0.424  -0.388
 -0.378  -0.367  -0.346  -0.329  -0.319  -0.318  -0.188
 -- Virtual --
  0.101   0.136   0.142   0.151   0.178   0.181   0.193   0.218
  0.229   0.275   0.298   0.320   0.357   0.499   0.506   0.532
  0.539   0.546   0.553   0.561   0.563   0.580   0.617   0.669
  0.721   0.779   0.792   0.855   0.859   0.879   0.899   0.913
  0.943   0.986   1.000   1.226   1.311   1.422   1.491   1.548
  1.604   1.684   1.709   1.831   1.875   1.954   1.964   2.016
  2.054   2.072   2.122   2.130   2.228   2.258   2.290   2.402
  2.424   2.466   2.516   2.567   2.682   2.708   2.745   2.802
  2.842   2.883   2.918   3.186   3.248   3.344   3.375   3.466
  3.468   3.549   4.250   4.435   4.606   4.659   4.662   4.667
  4.691   4.740   6.225  90.173
 
 Beta MOs
 -- Occupied --
******* -62.550 -56.370 -56.367 -56.367 -10.184 -10.173 -10.169
 -8.735  -6.565  -6.552  -6.551  -2.658  -2.655  -2.655  -2.643
 -2.643  -0.766  -0.748  -0.650  -0.561  -0.454  -0.418  -0.383
 -0.365  -0.341  -0.327  -0.304  -0.302
 -- Virtual --
 -0.231  -0.033   0.105   0.144   0.147   0.157   0.182   0.182
  0.203   0.223   0.234   0.283   0.323   0.327   0.367   0.517
  0.537   0.542   0.562   0.566   0.576   0.595   0.597   0.599
  0.623   0.681   0.727   0.798   0.800   0.862   0.864   0.881
  0.911   0.919   0.947   1.003   1.005   1.238   1.321   1.449
  1.497   1.565   1.625   1.684   1.727   1.840   1.881   1.958
  1.995   2.048   2.054   2.073   2.123   2.139   2.229   2.268
  2.291   2.407   2.430   2.478   2.524   2.589   2.688   2.711
  2.749   2.805   2.844   2.885   2.921   3.187   3.252   3.349
  3.377   3.468   3.475   3.551   4.268   4.452   4.609   4.676
  4.677   4.682   4.694   4.748   6.241  90.180
 --------------------------------------------------------------
 
          Ground-State Mulliken Net Atomic Charges

     Atom                 Charge (a.u.)    Spin (a.u.)
  --------------------------------------------------------
      1 Br                    0.005688       1.023527
      2 C                    -0.183113      -0.071977
      3 C                    -0.216399       1.053904
      4 C                    -0.308513       0.046717
      5 H                     0.097759       0.014323
      6 H                     0.102271       0.011658
      7 H                     0.095329      -0.045566
      8 H                     0.099451      -0.045908
      9 H                     0.099012       0.014445
     10 H                     0.104367      -0.000455
     11 H                     0.104150      -0.000668
  --------------------------------------------------------
  Sum of atomic charges =    -0.000000
  Sum of spin   charges =     2.000000

 -----------------------------------------------------------------
                    Cartesian Multipole Moments
 -----------------------------------------------------------------
    Charge (ESU x 10^10)
                -0.0000
    Dipole Moment (Debye)
         X      -0.2594      Y       0.0173      Z      -0.0037
       Tot       0.2600
    Quadrupole Moments (Debye-Ang)
        XX     -40.7147     XY      -1.1638     YY     -38.0628
        XZ      -0.4349     YZ       1.2051     ZZ     -37.9768
    Octopole Moments (Debye-Ang^2)
       XXX    -111.6016    XXY     -12.6966    XYY     -32.8245
       YYY     -23.8653    XXZ      -3.1877    XYZ       3.4816
       YYZ       1.1562    XZZ     -34.4238    YZZ      -9.4673
       ZZZ      -1.8090
    Hexadecapole Moments (Debye-Ang^3)
      XXXX   -1332.8961   XXXY    -122.4947   XXYY    -234.4638
      XYYY     -96.8893   YYYY    -142.8718   XXXZ     -17.7714
      XXYZ       9.5662   XYYZ       2.8140   YYYZ       1.6738
      XXZZ    -223.5915   XYZZ     -32.3092   YYZZ     -32.3464
      XZZZ      -6.0784   YZZZ       0.1372   ZZZZ     -62.8446
 -----------------------------------------------------------------
 Calculating analytic gradient of the SCF energy
 Gradient of SCF Energy
            1           2           3           4           5           6
    1  -0.0065619   0.0005683   0.0032292  -0.0001692   0.0000211  -0.0000962
    2  -0.0029865   0.0000660   0.0095463  -0.0000452   0.0000101  -0.0000217
    3   0.0000124   0.0002868  -0.0012435  -0.0000641   0.0000019  -0.0001626
            7           8           9          10          11
    1   0.0014608   0.0014673   0.0000114   0.0000216   0.0000476
    2  -0.0028227  -0.0037046  -0.0000268  -0.0000136  -0.0000012
    3  -0.0066593   0.0078226   0.0000026   0.0000131  -0.0000099
 Max gradient component =       9.546E-03
 RMS gradient           =       2.949E-03
 Gradient time:  CPU 9.65 s  wall 0.84 s
 Geometry Optimization Parameters
   NAtoms,    NIC,     NZ,  NCons,   NDum,   NFix, NCnnct, MaxDiis
       11      85       0       1       0       0       0       0

 Cartesian Hessian Update
 Hessian Updated using BFGS Update


** CONSTRAINED OPTIMIZATION IN DELOCALIZED INTERNAL COORDINATES **
   Searching for a Minimum

   Optimization Cycle:   2

                       Coordinates (Angstroms)
     ATOM                X               Y               Z
      1  Br        2.9994095073    0.6595551037    0.0352661878
      2  C        -0.7025493230    0.3764779824   -0.0005361654
      3  C         0.2491787634   -0.7741213700   -0.0041352460
      4  C        -2.1887232419   -0.0534867768   -0.0005284863
      5  H        -0.5250961161    1.0062001184    0.8818088895
      6  H        -0.5241698246    1.0118165344   -0.8780106610
      7  H         0.5111415093   -1.2720165014   -0.9461846030
      8  H         0.4684306432   -1.3133635078    0.9278256461
      9  H        -2.8485103027    0.8215440331    0.0046955834
     10  H        -2.4243978352   -0.6507836988   -0.8871996678
     11  H        -2.4219287798   -0.6592209172    0.8811025230
   Point Group: c1    Number of degrees of freedom:    27


   Energy is  -2692.316042376

              Constraints and their Current Values
                                        Value     Constraint
   Distance(Angs):        1   3             3.101733     3.100000
 Hessian Updated using BFGS Update

   Using Lagrange Multiplier Algorithm


 27 Hessian modes will be used to form the next step
  Hessian Eigenvalues:
    -0.990118    0.044997    0.045000    0.051144    0.054149    0.067757
     0.078115    0.081849    0.082977    0.082999    0.094356    0.099443
     0.104634    0.132792    0.160000    0.160005    0.219593    0.278969
     0.313502    0.331001    0.338561    0.339135    0.341386    0.342646
     0.342681    0.471228    1.014208

 Minimum Search - Taking P-RFO Step
 Searching for Lamda that Maximizes Along the Constraint modes Only
 Value Taken    Lamda =   0.00000754
 Searching for Lamda that Minimizes Along All other modes
 Value Taken    Lamda =  -0.00025612
 Step Taken.  Stepsize is  0.025071

                             Maximum     Tolerance    Cnvgd?
         Gradient            0.009758       0.000300      NO
         Displacement        0.022377       0.001200      NO
         Energy change      0.001411       0.000001      NO


 New Cartesian Coordinates Obtained by Inverse Iteration

 Displacement from previous Coordinates is:  0.024399
 ----------------------------------------------------------------
             Standard Nuclear Orientation (Angstroms)
    I     Atom           X                Y                Z
 ----------------------------------------------------------------
    1      Br      3.0005679399     0.6555260479     0.0339092107
    2      C      -0.7024753833     0.3772253607    -0.0001486844
    3      C       0.2497190596    -0.7732629636    -0.0034315427
    4      C      -2.1880828327    -0.0543713540    -0.0006666471
    5      H      -0.5259038349     1.0070056888     0.8823177198
    6      H      -0.5239885172     1.0128923452    -0.8772275564
    7      H       0.5091287554    -1.2696713006    -0.9388314935
    8      H       0.4666384466    -1.3100025578     0.9206489544
    9      H      -2.8490826022     0.8197460600     0.0043450816
   10      H      -2.4226415485    -0.6518839521    -0.8875289710
   11      H      -2.4210944826    -0.6606023744     0.8807179287
 ----------------------------------------------------------------
 Nuclear Repulsion Energy =   193.5691044095 hartrees
 There are       31 alpha and       29 beta electrons

                       Distance Matrix (Angstroms)
             Br(  1)   C (  2)   C (  3)   C (  4)   H (  5)   H (  6)
   C (  2)  3.713643
   C (  3)  3.100000  1.493422
   C (  4)  5.237103  1.547031  2.541592
   H (  5)  3.644083  1.098430  2.134362  2.160792
   H (  6)  3.657920  1.097815  2.133657  2.162550  1.759556
   H (  7)  3.295433  2.249751  1.090270  3.103556  3.093725  2.506237
   H (  8)  3.327222  2.249763  1.090444  3.077820  2.520940  3.099926
   H (  9)  5.852030  2.191750  3.484295  1.095914  2.490595  2.494101
   H ( 10)  5.654164  2.192141  2.817423  1.094789  3.079267  2.525167
   H ( 11)  5.643022  2.192411  2.815610  1.094828  2.524414  3.080579
             H (  7)   H (  8)   H (  9)   H ( 10)
   H (  8)  1.860403
   H (  9)  4.066058  4.045917
   H ( 10)  2.996593  3.471393  1.772847
   H ( 11)  3.502561  2.960121  1.772748  1.768269
 
 Applying Cartesian multipole field
    Component          Value
    ---------          -----
     (2,0,0)        1.00000E-11
     (0,2,0)        2.00000E-10
     (0,0,2)       -3.00000E-10
 Nucleus-field energy     =     0.0000000268 hartrees
 Requested basis set is 6-31G(d,p)
 There are 41 shells and 115 basis functions
 A cutoff of  1.0D-14 yielded    786 shell pairs
 There are      6102 function pairs
 Smallest overlap matrix eigenvalue = 7.26E-04
 Guess from superposition of atomic densities
 Warning:  Energy on first SCF cycle will be non-variational
 SAD guess density has 59.972873 electrons

 -----------------------------------------------------------------------
  General SCF calculation program by
  Eric Jon Sundstrom, Paul Horn, Yuezhi Mao, Dmitri Zuev, Alec White,
  David Stuck, Shaama M.S., Shane Yost, Joonho Lee, David Small,
  Daniel Levine, Susi Lehtola, Hugh Burton, Evgeny Epifanovsky
 -----------------------------------------------------------------------
 Exchange:     0.2000 Hartree-Fock + 0.0800 Slater + 0.7200 B88
 Correlation:  0.1900 VWN1RPA + 0.8100 LYP
 Using SG-1 standard quadrature grid
 using 12 threads for integral computing
 -------------------------------------------------------
 OpenMP Integral computing Module                
 Release: version 1.0, May 2013, Q-Chem Inc. Pittsburgh 
 -------------------------------------------------------
 -------------------------------------------------------
 OpenMP BLAS3 based DFT computing Module                
 Release: version 1.0, May 2013, Q-Chem Inc. Pittsburgh 
 -------------------------------------------------------
 A unrestricted SCF calculation will be
 performed using DIIS
 SCF converges when DIIS error is below 1.0e-06
 Alpha HF Exchange    Energy = -10.71233428701276
 Beta HF Exchange     Energy = -10.71233428701276
 DFT Correlation      Energy =  -3.10824841765868
 DFT Exchange         Energy = -84.97334887533169
 One-Electron (alpha) Energy = -2060.19637756357315
 One-Electron (beta)  Energy = -2060.19637756357315
 Total Coulomb        Energy = 1340.74839728897632
 ---------------------------------------
  Cycle       Energy         DIIS error
 ---------------------------------------
    1   -2695.5815192689      1.64e-01  
 Alpha HF Exchange    Energy = -10.89726616313772
 Beta HF Exchange     Energy = -10.69812305660669
 DFT Correlation      Energy =  -3.14036394996419
 DFT Exchange         Energy = -85.89376005537525
 One-Electron (alpha) Energy = -2084.56600523175757
 One-Electron (beta)  Energy = -2046.64927638542213
 Total Coulomb        Energy = 1356.06724630618169
    2   -2692.2084440998      9.52e-03  
 Alpha HF Exchange    Energy = -10.80059236044440
 Beta HF Exchange     Energy = -10.61183383727481
 DFT Correlation      Energy =  -3.10598873613512
 DFT Exchange         Energy = -85.14711072071387
 One-Electron (alpha) Energy = -2077.07153303208543
 One-Electron (beta)  Energy = -2039.91706499065367
 Total Coulomb        Energy = 1340.88100693543038
    3   -2692.2040123056      4.22e-03  
 Alpha HF Exchange    Energy = -10.87403156643333
 Beta HF Exchange     Energy = -10.67735322179129
 DFT Correlation      Energy =  -3.13194505084045
 DFT Exchange         Energy = -85.70820082234650
 One-Electron (alpha) Energy = -2082.55788836477041
 One-Electron (beta)  Energy = -2044.62352977273440
 Total Coulomb        Energy = 1351.73505335554682
    4   -2692.2687910071      2.71e-03  
 Alpha HF Exchange    Energy = -10.85115913071020
 Beta HF Exchange     Energy = -10.65653908038103
 DFT Correlation      Energy =  -3.12240047401150
 DFT Exchange         Energy = -85.52778686266313
 One-Electron (alpha) Energy = -2081.05691884640783
 One-Electron (beta)  Energy = -2043.25605533047178
 Total Coulomb        Energy = 1348.58596495361326
    5   -2692.3157903347      3.38e-04  
 Alpha HF Exchange    Energy = -10.84876609793075
 Beta HF Exchange     Energy = -10.65482164244303
 DFT Correlation      Energy =  -3.12216703597655
 DFT Exchange         Energy = -85.51205411556822
 One-Electron (alpha) Energy = -2080.81775767044110
 One-Electron (beta)  Energy = -2043.03664226569413
 Total Coulomb        Energy = 1348.10686293377557
    6   -2692.3162414580      6.41e-05  
 Alpha HF Exchange    Energy = -10.84867618526523
 Beta HF Exchange     Energy = -10.65460581226722
 DFT Correlation      Energy =  -3.12200349869886
 DFT Exchange         Energy = -85.51059839713682
 One-Electron (alpha) Energy = -2080.80842489290990
 One-Electron (beta)  Energy = -2043.02029473310336
 Total Coulomb        Energy = 1348.07922869262666
    7   -2692.3162703905      2.00e-05  
 Alpha HF Exchange    Energy = -10.84874813088274
 Beta HF Exchange     Energy = -10.65470755234416
 DFT Correlation      Energy =  -3.12198457808311
 DFT Exchange         Energy = -85.51119554880322
 One-Electron (alpha) Energy = -2080.81943176941650
 One-Electron (beta)  Energy = -2043.02782499055206
 Total Coulomb        Energy = 1348.09851385623983
    8   -2692.3162742775      8.10e-06  
 Alpha HF Exchange    Energy = -10.84879249523915
 Beta HF Exchange     Energy = -10.65471406450790
 DFT Correlation      Energy =  -3.12198921367301
 DFT Exchange         Energy = -85.51139041546975
 One-Electron (alpha) Energy = -2080.82154835019082
 One-Electron (beta)  Energy = -2043.02718055256446
 Total Coulomb        Energy = 1348.10023447945241
    9   -2692.3162761759      3.49e-06  
 Alpha HF Exchange    Energy = -10.84879175969967
 Beta HF Exchange     Energy = -10.65470732449205
 DFT Correlation      Energy =  -3.12198346467851
 DFT Exchange         Energy = -85.51135622594572
 One-Electron (alpha) Energy = -2080.82109095313854
 One-Electron (beta)  Energy = -2043.02595563136151
 Total Coulomb        Energy = 1348.09850311634614
   10   -2692.3162778067      3.09e-06  
 Alpha HF Exchange    Energy = -10.84879285519375
 Beta HF Exchange     Energy = -10.65470456334547
 DFT Correlation      Energy =  -3.12198264401392
 DFT Exchange         Energy = -85.51135174589888
 One-Electron (alpha) Energy = -2080.82126914750233
 One-Electron (beta)  Energy = -2043.02585367920733
 Total Coulomb        Energy = 1348.09857128394037
   11   -2692.3162789149      3.01e-06  
 Alpha HF Exchange    Energy = -10.84879339915885
 Beta HF Exchange     Energy = -10.65470290752438
 DFT Correlation      Energy =  -3.12198237923079
 DFT Exchange         Energy = -85.51134942412347
 One-Electron (alpha) Energy = -2080.82131767992769
 One-Electron (beta)  Energy = -2043.02573654764433
 Total Coulomb        Energy = 1348.09849805685280
   12   -2692.3162798445      3.02e-06  
 Alpha HF Exchange    Energy = -10.84878990071821
 Beta HF Exchange     Energy = -10.65471209878685
 DFT Correlation      Energy =  -3.12198335928978
 DFT Exchange         Energy = -85.51135834183594
 One-Electron (alpha) Energy = -2080.82094904590485
 One-Electron (beta)  Energy = -2043.02645174520967
 Total Coulomb        Energy = 1348.09886662215445
   13   -2692.3162734333      2.91e-06  
 Alpha HF Exchange    Energy = -10.84876316407226
 Beta HF Exchange     Energy = -10.65481021157583
 DFT Correlation      Energy =  -3.12197225233679
 DFT Exchange         Energy = -85.51152790028996
 One-Electron (alpha) Energy = -2080.81770295658180
 One-Electron (beta)  Energy = -2043.03571591867285
 Total Coulomb        Energy = 1348.10515598131587
   14   -2692.3162319859      9.78e-06  
 Alpha HF Exchange    Energy = -10.84876218233548
 Beta HF Exchange     Energy = -10.65482249628655
 DFT Correlation      Energy =  -3.12196943471265
 DFT Exchange         Energy = -85.51156170516632
 One-Electron (alpha) Energy = -2080.81758821387302
 One-Electron (beta)  Energy = -2043.03698056972803
 Total Coulomb        Energy = 1348.10635066089594
   15   -2692.3162295049      1.19e-05  
 Alpha HF Exchange    Energy = -10.84876224449601
 Beta HF Exchange     Energy = -10.65482874156216
 DFT Correlation      Energy =  -3.12196946369670
 DFT Exchange         Energy = -85.51157676788405
 One-Electron (alpha) Energy = -2080.81742062686271
 One-Electron (beta)  Energy = -2043.03763643009870
 Total Coulomb        Energy = 1348.10686616620774
   16   -2692.3162236721      9.79e-06  
 Alpha HF Exchange    Energy = -10.84873894703856
 Beta HF Exchange     Energy = -10.65491566009665
 DFT Correlation      Energy =  -3.12193230386286
 DFT Exchange         Energy = -85.51174086150129
 One-Electron (alpha) Energy = -2080.81417737107813
 One-Electron (beta)  Energy = -2043.04709200115349
 Total Coulomb        Energy = 1348.11328738311158
   17   -2692.3162053253      2.27e-05  
 Alpha HF Exchange    Energy = -10.84874306345227
 Beta HF Exchange     Energy = -10.65488940080515
 DFT Correlation      Energy =  -3.12194316543444
 DFT Exchange         Energy = -85.51167530715340
 One-Electron (alpha) Energy = -2080.81478482131752
 One-Electron (beta)  Energy = -2043.04412739731924
 Total Coulomb        Energy = 1348.11084989394567
   18   -2692.3162088252      1.82e-05  
 Alpha HF Exchange    Energy = -10.84874580920064
 Beta HF Exchange     Energy = -10.65487805179989
 DFT Correlation      Energy =  -3.12194502117336
 DFT Exchange         Energy = -85.51164650423439
 One-Electron (alpha) Energy = -2080.81509528308561
 One-Electron (beta)  Energy = -2043.04289612760476
 Total Coulomb        Energy = 1348.10989293660646
   19   -2692.3162094242      1.45e-05  
 Alpha HF Exchange    Energy = -10.84874773532867
 Beta HF Exchange     Energy = -10.65486896375126
 DFT Correlation      Energy =  -3.12194206143485
 DFT Exchange         Energy = -85.51161722260267
 One-Electron (alpha) Energy = -2080.81524223108408
 One-Electron (beta)  Energy = -2043.04193490287230
 Total Coulomb        Energy = 1348.10903953481989
   20   -2692.3162091460      1.01e-05  
 Alpha HF Exchange    Energy = -10.84875015167885
 Beta HF Exchange     Energy = -10.65485758082595
 DFT Correlation      Energy =  -3.12194185770497
 DFT Exchange         Energy = -85.51158608468094
 One-Electron (alpha) Energy = -2080.81538465491803
 One-Electron (beta)  Energy = -2043.04065434312542
 Total Coulomb        Energy = 1348.10786070962467
   21   -2692.3162095270      6.18e-06  
 Alpha HF Exchange    Energy = -10.84875339383431
 Beta HF Exchange     Energy = -10.65483825313732
 DFT Correlation      Energy =  -3.12194568671043
 DFT Exchange         Energy = -85.51153356044844
 One-Electron (alpha) Energy = -2080.81579710158030
 One-Electron (beta)  Energy = -2043.03856519098235
 Total Coulomb        Energy = 1348.10611885539174
   22   -2692.3162098950      1.04e-06  
 Alpha HF Exchange    Energy = -10.84875383400075
 Beta HF Exchange     Energy = -10.65483613520083
 DFT Correlation      Energy =  -3.12194615951305
 DFT Exchange         Energy = -85.51152818056470
 One-Electron (alpha) Energy = -2080.81584088778072
 One-Electron (beta)  Energy = -2043.03833268405151
 Total Coulomb        Energy = 1348.10592353722473
   23   -2692.3162099076      4.81e-07  Convergence criterion met
 ---------------------------------------
 SCF time:   CPU 60.91s  wall 5.00s 
<S^2> =          2.005250407
 Alpha HF Exchange    Energy = -10.84875383400075
 Beta HF Exchange     Energy = -10.65483613520083
 DFT Correlation      Energy =  -3.12194615951305
 DFT Exchange         Energy = -85.51152818056470
 One-Electron (alpha) Energy = -2080.81584088778072
 One-Electron (beta)  Energy = -2043.03833268405151
 Total Coulomb        Energy = 1348.10592353722473
 Nuclear repulsion Energy = 193.56910443630281
 SCF   energy in the final basis set =    -2692.3162099076
 Total energy in the final basis set =    -2692.3162099076
 
 --------------------------------------------------------------
 
                    Orbital Energies (a.u.)
 --------------------------------------------------------------
 
 Alpha MOs
 -- Occupied --
******* -62.552 -56.376 -56.368 -56.368 -10.183 -10.182 -10.174
 -8.739  -6.576  -6.553  -6.553  -2.666  -2.661  -2.661  -2.645
 -2.645  -0.793  -0.776  -0.669  -0.576  -0.458  -0.424  -0.389
 -0.378  -0.367  -0.346  -0.329  -0.319  -0.318  -0.188
 -- Virtual --
  0.102   0.137   0.143   0.151   0.178   0.181   0.193   0.219
  0.229   0.275   0.300   0.318   0.357   0.498   0.504   0.534
  0.538   0.547   0.554   0.558   0.566   0.576   0.618   0.668
  0.720   0.779   0.793   0.856   0.860   0.880   0.900   0.914
  0.943   0.987   1.000   1.227   1.311   1.422   1.491   1.549
  1.603   1.684   1.709   1.831   1.876   1.962   1.966   2.019
  2.054   2.072   2.123   2.130   2.228   2.258   2.290   2.404
  2.428   2.468   2.518   2.573   2.682   2.713   2.746   2.809
  2.848   2.884   2.921   3.186   3.256   3.352   3.377   3.467
  3.480   3.551   4.250   4.436   4.606   4.659   4.662   4.669
  4.691   4.740   6.225  90.173
 
 Beta MOs
 -- Occupied --
******* -62.550 -56.370 -56.367 -56.367 -10.184 -10.173 -10.168
 -8.735  -6.565  -6.552  -6.551  -2.658  -2.655  -2.655  -2.643
 -2.643  -0.766  -0.748  -0.651  -0.563  -0.454  -0.418  -0.384
 -0.365  -0.341  -0.327  -0.304  -0.302
 -- Virtual --
 -0.231  -0.033   0.106   0.145   0.148   0.157   0.182   0.183
  0.204   0.224   0.234   0.283   0.323   0.327   0.367   0.516
  0.536   0.542   0.561   0.566   0.575   0.595   0.596   0.600
  0.623   0.681   0.726   0.798   0.800   0.863   0.865   0.882
  0.913   0.921   0.947   1.003   1.005   1.238   1.321   1.448
  1.497   1.566   1.625   1.684   1.727   1.839   1.881   1.966
  1.995   2.052   2.054   2.073   2.124   2.139   2.230   2.268
  2.291   2.409   2.433   2.480   2.527   2.596   2.688   2.716
  2.749   2.812   2.850   2.885   2.924   3.187   3.260   3.357
  3.378   3.469   3.486   3.553   4.268   4.452   4.608   4.676
  4.677   4.683   4.694   4.748   6.241  90.180
 --------------------------------------------------------------
 
          Ground-State Mulliken Net Atomic Charges

     Atom                 Charge (a.u.)    Spin (a.u.)
  --------------------------------------------------------
      1 Br                    0.005550       1.023445
      2 C                    -0.184326      -0.071921
      3 C                    -0.217241       1.053657
      4 C                    -0.308492       0.046511
      5 H                     0.098946       0.014255
      6 H                     0.101231       0.011631
      7 H                     0.097252      -0.045352
      8 H                     0.099503      -0.045539
      9 H                     0.098977       0.014447
     10 H                     0.104379      -0.000468
     11 H                     0.104221      -0.000665
  --------------------------------------------------------
  Sum of atomic charges =    -0.000000
  Sum of spin   charges =     2.000000

 -----------------------------------------------------------------
                    Cartesian Multipole Moments
 -----------------------------------------------------------------
    Charge (ESU x 10^10)
                -0.0000
    Dipole Moment (Debye)
         X      -0.2651      Y       0.0151      Z      -0.0030
       Tot       0.2655
    Quadrupole Moments (Debye-Ang)
        XX     -40.6930     XY      -1.2918     YY     -37.3567
        XZ      -0.2399     YZ       0.6884     ZZ     -38.6818
    Octopole Moments (Debye-Ang^2)
       XXX    -111.5474    XXY     -13.4571    XYY     -30.9577
       YYY     -22.3759    XXZ      -1.9298    XYZ       2.0321
       YYZ       0.4900    XZZ     -36.5716    YZZ      -9.9035
       ZZZ      -1.8231
    Hexadecapole Moments (Debye-Ang^3)
      XXXX   -1332.5535   XXXY    -125.7302   XXYY    -228.9960
      XYYY     -92.5983   YYYY    -138.6933   XXXZ     -11.7721
      XXYZ       5.4227   XYYZ       0.9850   YYYZ       0.4848
      XXZZ    -230.2441   XYZZ     -33.6715   YYZZ     -32.5769
      XZZZ      -5.8670   YZZZ      -0.4433   ZZZZ     -64.3250
 -----------------------------------------------------------------
 Calculating analytic gradient of the SCF energy
 Gradient of SCF Energy
            1           2           3           4           5           6
    1  -0.0066216   0.0004657   0.0053221  -0.0001166  -0.0000265  -0.0000547
    2  -0.0029795   0.0001230   0.0054678  -0.0000447   0.0000645  -0.0000173
    3   0.0000014  -0.0000290  -0.0002140   0.0000532  -0.0000140   0.0000020
            7           8           9          10          11
    1   0.0005132   0.0004573   0.0000127   0.0000404   0.0000080
    2  -0.0011276  -0.0013941  -0.0000332  -0.0000255  -0.0000332
    3  -0.0025684   0.0027760  -0.0000014   0.0000019  -0.0000077
 Max gradient component =       6.622E-03
 RMS gradient           =       1.979E-03
 Gradient time:  CPU 10.04 s  wall 0.88 s
 Geometry Optimization Parameters
   NAtoms,    NIC,     NZ,  NCons,   NDum,   NFix, NCnnct, MaxDiis
       11      85       0       1       0       0       0       0

 Cartesian Hessian Update
 Hessian Updated using BFGS Update


** CONSTRAINED OPTIMIZATION IN DELOCALIZED INTERNAL COORDINATES **
   Searching for a Minimum

   Optimization Cycle:   3

                       Coordinates (Angstroms)
     ATOM                X               Y               Z
      1  Br        3.0005679399    0.6555260479    0.0339092107
      2  C        -0.7024753833    0.3772253607   -0.0001486844
      3  C         0.2497190596   -0.7732629636   -0.0034315427
      4  C        -2.1880828327   -0.0543713540   -0.0006666471
      5  H        -0.5259038349    1.0070056888    0.8823177198
      6  H        -0.5239885172    1.0128923452   -0.8772275564
      7  H         0.5091287554   -1.2696713006   -0.9388314935
      8  H         0.4666384466   -1.3100025578    0.9206489544
      9  H        -2.8490826022    0.8197460600    0.0043450816
     10  H        -2.4226415485   -0.6518839521   -0.8875289710
     11  H        -2.4210944826   -0.6606023744    0.8807179287
   Point Group: c1    Number of degrees of freedom:    27


   Energy is  -2692.316209908

              Constraints and their Current Values
                                        Value     Constraint
   Distance(Angs):        1   3             3.100000     3.100000
 Hessian Updated using BFGS Update

 26 Hessian modes will be used to form the next step
  Hessian Eigenvalues:
     0.044842    0.045000    0.051088    0.054099    0.067766    0.077961
     0.078691    0.082978    0.082994    0.091569    0.099399    0.104633
     0.132803    0.159957    0.160000    0.160012    0.219046    0.278940
     0.311963    0.322235    0.331012    0.338578    0.339544    0.341387
     0.342649    0.342697

 Minimum Search - Taking Simple RFO Step
 Searching for Lamda that Minimizes Along All modes
 Value Taken    Lamda =  -0.00006484
 Step Taken.  Stepsize is  0.020079

                             Maximum     Tolerance    Cnvgd?
         Gradient           0.003538      0.000300      NO
         Displacement       0.013050      0.001200      NO
         Energy change     -0.000168      0.000001      NO


 New Cartesian Coordinates Obtained by Inverse Iteration

 Displacement from previous Coordinates is:  0.031970
 ----------------------------------------------------------------
             Standard Nuclear Orientation (Angstroms)
    I     Atom           X                Y                Z
 ----------------------------------------------------------------
    1      Br      3.0070275501     0.6467204573     0.0313124802
    2      C      -0.7034896975     0.3792886161     0.0006943140
    3      C       0.2500441541    -0.7702836546    -0.0025081461
    4      C      -2.1879461634    -0.0558593047    -0.0012277235
    5      H      -0.5281375403     1.0087820455     0.8835443543
    6      H      -0.5257347711     1.0155578660    -0.8761875052
    7      H       0.5073433874    -1.2658508271    -0.9335753543
    8      H       0.4656401766    -1.3050647239     0.9171858469
    9      H      -2.8516469383     0.8162143008     0.0037895750
   10      H      -2.4204394009    -0.6536038699    -0.8885425237
   11      H      -2.4198757566    -0.6632999054     0.8796186825
 ----------------------------------------------------------------
 Nuclear Repulsion Energy =   193.5106189258 hartrees
 There are       31 alpha and       29 beta electrons

                       Distance Matrix (Angstroms)
             Br(  1)   C (  2)   C (  3)   C (  4)   H (  5)   H (  6)
   C (  2)  3.720268
   C (  3)  3.100000  1.493571
   C (  4)  5.242369  1.546922  2.540512
   H (  5)  3.654419  1.098378  2.134416  2.161307
   H (  6)  3.666061  1.097888  2.134099  2.162507  1.759747
   H (  7)  3.292014  2.246210  1.085668  3.098054  3.090000  2.505069
   H (  8)  3.324588  2.245856  1.085500  3.073356  2.518454  3.095852
   H (  9)  5.861190  2.192144  3.483892  1.095918  2.491936  2.494788
   H ( 10)  5.656357  2.192151  2.816053  1.094842  3.079712  2.525106
   H ( 11)  5.646863  2.192141  2.813906  1.094836  2.524787  3.080453
             H (  7)   H (  8)   H (  9)   H ( 10)
   H (  8)  1.851646
   H (  9)  4.061584  4.042092
   H ( 10)  2.991452  3.466196  1.772727
   H ( 11)  3.495619  2.956260  1.772700  1.768188
 
 Applying Cartesian multipole field
    Component          Value
    ---------          -----
     (2,0,0)        1.00000E-11
     (0,2,0)        2.00000E-10
     (0,0,2)       -3.00000E-10
 Nucleus-field energy     =     0.0000000265 hartrees
 Requested basis set is 6-31G(d,p)
 There are 41 shells and 115 basis functions
 A cutoff of  1.0D-14 yielded    786 shell pairs
 There are      6102 function pairs
 Smallest overlap matrix eigenvalue = 7.26E-04
 Guess from superposition of atomic densities
 Warning:  Energy on first SCF cycle will be non-variational
 SAD guess density has 59.972873 electrons

 -----------------------------------------------------------------------
  General SCF calculation program by
  Eric Jon Sundstrom, Paul Horn, Yuezhi Mao, Dmitri Zuev, Alec White,
  David Stuck, Shaama M.S., Shane Yost, Joonho Lee, David Small,
  Daniel Levine, Susi Lehtola, Hugh Burton, Evgeny Epifanovsky
 -----------------------------------------------------------------------
 Exchange:     0.2000 Hartree-Fock + 0.0800 Slater + 0.7200 B88
 Correlation:  0.1900 VWN1RPA + 0.8100 LYP
 Using SG-1 standard quadrature grid
 using 12 threads for integral computing
 -------------------------------------------------------
 OpenMP Integral computing Module                
 Release: version 1.0, May 2013, Q-Chem Inc. Pittsburgh 
 -------------------------------------------------------
 -------------------------------------------------------
 OpenMP BLAS3 based DFT computing Module                
 Release: version 1.0, May 2013, Q-Chem Inc. Pittsburgh 
 -------------------------------------------------------
 A unrestricted SCF calculation will be
 performed using DIIS
 SCF converges when DIIS error is below 1.0e-06
 Alpha HF Exchange    Energy = -10.71287566781871
 Beta HF Exchange     Energy = -10.71287566781871
 DFT Correlation      Energy =  -3.10835714010159
 DFT Exchange         Energy = -84.97456269141246
 One-Electron (alpha) Energy = -2060.13302400322982
 One-Electron (beta)  Energy = -2060.13302400322982
 Total Coulomb        Energy = 1340.67921845825254
 ---------------------------------------
  Cycle       Energy         DIIS error
 ---------------------------------------
    1   -2695.5848817631      1.64e-01  
 Alpha HF Exchange    Energy = -10.89774181726374
 Beta HF Exchange     Energy = -10.69850124637745
 DFT Correlation      Energy =  -3.14052828214386
 DFT Exchange         Energy = -85.89689447425792
 One-Electron (alpha) Energy = -2084.50750433928533
 One-Electron (beta)  Energy = -2046.58558253825004
 Total Coulomb        Energy = 1356.00786333166297
    2   -2692.2082704136      9.52e-03  
 Alpha HF Exchange    Energy = -10.80094081479652
 Beta HF Exchange     Energy = -10.61219166251098
 DFT Correlation      Energy =  -3.10614796446319
 DFT Exchange         Energy = -85.14966699126990
 One-Electron (alpha) Energy = -2077.01507300003823
 One-Electron (beta)  Energy = -2039.85969706247170
 Total Coulomb        Energy = 1340.82898181004748
    3   -2692.2041167332      4.22e-03  
 Alpha HF Exchange    Energy = -10.87437023058826
 Beta HF Exchange     Energy = -10.67767551465369
 DFT Correlation      Energy =  -3.13207711530244
 DFT Exchange         Energy = -85.71053199453071
 One-Electron (alpha) Energy = -2082.49386122294572
 One-Electron (beta)  Energy = -2044.55898384027887
 Total Coulomb        Energy = 1351.66788465165246
    4   -2692.2689963143      2.71e-03  
 Alpha HF Exchange    Energy = -10.85152403994329
 Beta HF Exchange     Energy = -10.65689260217622
 DFT Correlation      Energy =  -3.12255196609107
 DFT Exchange         Energy = -85.53035519881625
 One-Electron (alpha) Energy = -2080.99580251641783
 One-Electron (beta)  Energy = -2043.19454760745953
 Total Coulomb        Energy = 1348.52523691049737
    5   -2692.3158180681      3.39e-04  
 Alpha HF Exchange    Energy = -10.84913457345479
 Beta HF Exchange     Energy = -10.65518906668544
 DFT Correlation      Energy =  -3.12232008027500
 DFT Exchange         Energy = -85.51468977966982
 One-Electron (alpha) Energy = -2080.75762975741645
 One-Electron (beta)  Energy = -2042.97642384313690
 Total Coulomb        Energy = 1348.04849353871896
    6   -2692.3162746096      6.42e-05  
 Alpha HF Exchange    Energy = -10.84903980740506
 Beta HF Exchange     Energy = -10.65496998398064
 DFT Correlation      Energy =  -3.12215634589422
 DFT Exchange         Energy = -85.51320252034876
 One-Electron (alpha) Energy = -2080.74784651913205
 One-Electron (beta)  Energy = -2042.95983163267442
 Total Coulomb        Energy = 1348.02012424605800
    7   -2692.3163036111      2.00e-05  
 Alpha HF Exchange    Energy = -10.84911229290679
 Beta HF Exchange     Energy = -10.65507306659340
 DFT Correlation      Energy =  -3.12213770324715
 DFT Exchange         Energy = -85.51380684331180
 One-Electron (alpha) Energy = -2080.75889386043445
 One-Electron (beta)  Energy = -2042.96748898619535
 Total Coulomb        Energy = 1348.03958637282699
    8   -2692.3163074276      8.01e-06  
 Alpha HF Exchange    Energy = -10.84915568335642
 Beta HF Exchange     Energy = -10.65507974201487
 DFT Correlation      Energy =  -3.12214229228729
 DFT Exchange         Energy = -85.51399830791517
 One-Electron (alpha) Energy = -2080.76093286151172
 One-Electron (beta)  Energy = -2042.96684880794896
 Total Coulomb        Energy = 1348.04122951412410
    9   -2692.3163092286      3.40e-06  
 Alpha HF Exchange    Energy = -10.84915488491333
 Beta HF Exchange     Energy = -10.65507335471460
 DFT Correlation      Energy =  -3.12213667396894
 DFT Exchange         Energy = -85.51396515791865
 One-Electron (alpha) Energy = -2080.76047264557064
 One-Electron (beta)  Energy = -2042.96565971787163
 Total Coulomb        Energy = 1348.03953272810554
   10   -2692.3163107546      2.99e-06  
 Alpha HF Exchange    Energy = -10.84915592353769
 Beta HF Exchange     Energy = -10.65507072810549
 DFT Correlation      Energy =  -3.12213586989119
 DFT Exchange         Energy = -85.51396085659988
[...]
 Searching for Lamda that Minimizes Along All modes
 Value Taken    Lamda =  -0.00000183
 Step Taken.  Stepsize is  0.009994

                             Maximum     Tolerance    Cnvgd?
         Gradient           0.000111      0.000300     YES
         Displacement       0.005610      0.001200      NO
         Energy change     -0.000001      0.000001      NO


 New Cartesian Coordinates Obtained by Inverse Iteration

 Displacement from previous Coordinates is:  0.010253
 ----------------------------------------------------------------
             Standard Nuclear Orientation (Angstroms)
    I     Atom           X                Y                Z
 ----------------------------------------------------------------
    1      Br      3.1098355786     0.5089809675    -0.0043148886
    2      C      -0.7280359161     0.4052297294     0.0104449989
    3      C       0.2612042703    -0.7137737186     0.0088220996
    4      C      -2.1983914722    -0.0752874763    -0.0084516011
    5      H      -0.5800667538     1.0344081844     0.8981809733
    6      H      -0.5616339791     1.0536300207    -0.8597915310
    7      H       0.5162552026    -1.2186063016    -0.9192963629
    8      H       0.4865714153    -1.2486734427     0.9274866215
    9      H      -2.8885258221     0.7760671711    -0.0038468692
   10      H      -2.4047516720    -0.6740634480    -0.9015314801
   11      H      -2.4196758517    -0.6953106858     0.8664020395
 ----------------------------------------------------------------
 Nuclear Repulsion Energy =   191.7405814609 hartrees
 There are       31 alpha and       29 beta electrons

                       Distance Matrix (Angstroms)
             Br(  1)   C (  2)   C (  3)   C (  4)   H (  5)   H (  6)
   C (  2)  3.839302
   C (  3)  3.100000  1.493575
   C (  4)  5.340287  1.546997  2.541176
   H (  5)  3.834834  1.098105  2.134206  2.161569
   H (  6)  3.808959  1.097918  2.134307  2.162917  1.758174
   H (  7)  3.247831  2.247114  1.086881  3.083200  3.095355  2.515640
   H (  8)  3.292282  2.247584  1.086670  3.076011  2.520126  3.097370
   H (  9)  6.004305  2.192132  3.484334  1.095952  2.491862  2.494816
   H ( 10)  5.710978  2.192704  2.817382  1.094856  3.080149  2.526608
   H ( 11)  5.725728  2.192144  2.814765  1.094881  2.525292  3.080724
             H (  7)   H (  8)   H (  9)   H ( 10)
   H (  8)  1.847266
   H (  9)  4.050840  4.044532
   H ( 10)  2.971384  3.469183  1.772781
   H ( 11)  3.475953  2.959090  1.772599  1.768124
 
 Applying Cartesian multipole field
    Component          Value
    ---------          -----
     (2,0,0)        1.00000E-11
     (0,2,0)        2.00000E-10
     (0,0,2)       -3.00000E-10
 Nucleus-field energy     =     0.0000000231 hartrees
 Requested basis set is 6-31G(d,p)
 There are 41 shells and 115 basis functions
 A cutoff of  1.0D-14 yielded    782 shell pairs
 There are      6024 function pairs
 Smallest overlap matrix eigenvalue = 7.26E-04
 Guess from superposition of atomic densities
 Warning:  Energy on first SCF cycle will be non-variational
 SAD guess density has 59.972873 electrons

 -----------------------------------------------------------------------
  General SCF calculation program by
  Eric Jon Sundstrom, Paul Horn, Yuezhi Mao, Dmitri Zuev, Alec White,
  David Stuck, Shaama M.S., Shane Yost, Joonho Lee, David Small,
  Daniel Levine, Susi Lehtola, Hugh Burton, Evgeny Epifanovsky
 -----------------------------------------------------------------------
 Exchange:     0.2000 Hartree-Fock + 0.0800 Slater + 0.7200 B88
 Correlation:  0.1900 VWN1RPA + 0.8100 LYP
 Using SG-1 standard quadrature grid
 using 12 threads for integral computing
 -------------------------------------------------------
 OpenMP Integral computing Module                
 Release: version 1.0, May 2013, Q-Chem Inc. Pittsburgh 
 -------------------------------------------------------
 -------------------------------------------------------
 OpenMP BLAS3 based DFT computing Module                
 Release: version 1.0, May 2013, Q-Chem Inc. Pittsburgh 
 -------------------------------------------------------
 A unrestricted SCF calculation will be
 performed using DIIS
 SCF converges when DIIS error is below 1.0e-06
 Alpha HF Exchange    Energy = -10.71269709679270
 Beta HF Exchange     Energy = -10.71269709679270
 DFT Correlation      Energy =  -3.10818086027334
 DFT Exchange         Energy = -84.97438672925175
 One-Electron (alpha) Energy = -2058.36485591389919
 One-Electron (beta)  Energy = -2058.36485591389919
 Total Coulomb        Energy = 1338.91636203714415
 ---------------------------------------
  Cycle       Energy         DIIS error
 ---------------------------------------
    1   -2695.5807300898      1.64e-01  
 Alpha HF Exchange    Energy = -10.89763891940288
 Beta HF Exchange     Energy = -10.69809313723660
 DFT Correlation      Energy =  -3.14040511136316
 DFT Exchange         Energy = -85.89567391399638
 One-Electron (alpha) Energy = -2082.70791555062488
 One-Electron (beta)  Energy = -2044.87357309823528
 Total Coulomb        Energy = 1354.26434718558312
    2   -2692.2083710613      9.52e-03  
 Alpha HF Exchange    Energy = -10.80091407699953
 Beta HF Exchange     Energy = -10.61326182585046
 DFT Correlation      Energy =  -3.10595554857706
 DFT Exchange         Energy = -85.15122696672339
 One-Electron (alpha) Energy = -2075.22233194817909
 One-Electron (beta)  Energy = -2038.01572453330050
 Total Coulomb        Energy = 1338.96039964105034
    3   -2692.2084337746      4.17e-03  
 Alpha HF Exchange    Energy = -10.87442600418231
 Beta HF Exchange     Energy = -10.67757999977020
 DFT Correlation      Energy =  -3.13181165395332
 DFT Exchange         Energy = -85.71033817166293
 One-Electron (alpha) Energy = -2080.74242541124886
 One-Electron (beta)  Energy = -2042.87188441377407
 Total Coulomb        Energy = 1349.99620682907857
    4   -2692.2716773415      2.65e-03  
 Alpha HF Exchange    Energy = -10.85120902725271
 Beta HF Exchange     Energy = -10.65658853366080
 DFT Correlation      Energy =  -3.12233453940211
 DFT Exchange         Energy = -85.52803421093142
 One-Electron (alpha) Energy = -2079.18683809692493
 One-Electron (beta)  Energy = -2041.44513736896829
 Total Coulomb        Energy = 1346.73373966725489
    5   -2692.3158206259      3.19e-04  
 Alpha HF Exchange    Energy = -10.84906571046141
 Beta HF Exchange     Energy = -10.65502234919345
 DFT Correlation      Energy =  -3.12214300219462
 DFT Exchange         Energy = -85.51394906714468
 One-Electron (alpha) Energy = -2078.96584705981559
 One-Electron (beta)  Energy = -2041.24580045470361
 Total Coulomb        Energy = 1346.29500220267232
    6   -2692.3162439568      5.49e-05  
 Alpha HF Exchange    Energy = -10.84897792469358
 Beta HF Exchange     Energy = -10.65480399816905
 DFT Correlation      Energy =  -3.12199336112298
 DFT Exchange         Energy = -85.51254128405454
 One-Electron (alpha) Energy = -2078.95415568773842
 One-Electron (beta)  Energy = -2041.22805720160591
 Total Coulomb        Energy = 1346.26368425559986
    7   -2692.3162637178      1.80e-05  
 Alpha HF Exchange    Energy = -10.84905491963245
 Beta HF Exchange     Energy = -10.65489526835068
 DFT Correlation      Energy =  -3.12197705742105
 DFT Exchange         Energy = -85.51312917161869
 One-Electron (alpha) Energy = -2078.96496141014040
 One-Electron (beta)  Energy = -2041.23538216255565
 Total Coulomb        Energy = 1346.28255236059704
    8   -2692.3162661451      7.48e-06  
 Alpha HF Exchange    Energy = -10.84909974908089
 Beta HF Exchange     Energy = -10.65489910444802
 DFT Correlation      Energy =  -3.12198190201481
 DFT Exchange         Energy = -85.51331690265970
 One-Electron (alpha) Energy = -2078.96706288218456
 One-Electron (beta)  Energy = -2041.23479239744120
 Total Coulomb        Energy = 1346.28430469680461
    9   -2692.3162667570      1.99e-06  
 Alpha HF Exchange    Energy = -10.84909939243659
 Beta HF Exchange     Energy = -10.65489373236317
 DFT Correlation      Energy =  -3.12197643240778
 DFT Exchange         Energy = -85.51328702772381
 One-Electron (alpha) Energy = -2078.96660138046627
 One-Electron (beta)  Energy = -2041.23371743471375
 Total Coulomb        Energy = 1346.28272698165301
   10   -2692.3162669344      1.13e-06  
 Alpha HF Exchange    Energy = -10.84909976522756
 Beta HF Exchange     Energy = -10.65489238675645
 DFT Correlation      Energy =  -3.12197584464083
 DFT Exchange         Energy = -85.51328318473222
 One-Electron (alpha) Energy = -2078.96670792604527
 One-Electron (beta)  Energy = -2041.23372525227046
 Total Coulomb        Energy = 1346.28283584022097
   11   -2692.3162670354      9.26e-07  Convergence criterion met
 ---------------------------------------
 SCF time:   CPU 29.22s  wall 2.00s 
<S^2> =          2.005204115
 Alpha HF Exchange    Energy = -10.84909976522756
 Beta HF Exchange     Energy = -10.65489238675645
 DFT Correlation      Energy =  -3.12197584464083
 DFT Exchange         Energy = -85.51328318473222
 One-Electron (alpha) Energy = -2078.96670792604527
 One-Electron (beta)  Energy = -2041.23372525227046
 Total Coulomb        Energy = 1346.28283584022097
 Nuclear repulsion Energy = 191.74058148401056
 SCF   energy in the final basis set =    -2692.3162670354
 Total energy in the final basis set =    -2692.3162670354
 
 --------------------------------------------------------------
 
                    Orbital Energies (a.u.)
 --------------------------------------------------------------
 
 Alpha MOs
 -- Occupied --
******* -62.552 -56.376 -56.369 -56.368 -10.183 -10.181 -10.174
 -8.739  -6.576  -6.554  -6.553  -2.666  -2.661  -2.661  -2.645
 -2.645  -0.793  -0.775  -0.669  -0.577  -0.458  -0.424  -0.389
 -0.377  -0.367  -0.346  -0.329  -0.320  -0.318  -0.188
 -- Virtual --
  0.102   0.137   0.144   0.154   0.179   0.182   0.192   0.219
  0.229   0.276   0.295   0.320   0.356   0.499   0.515   0.527
  0.537   0.548   0.549   0.554   0.563   0.589   0.609   0.675
  0.710   0.786   0.788   0.857   0.861   0.882   0.902   0.915
  0.944   0.985   0.998   1.229   1.312   1.416   1.490   1.555
  1.602   1.684   1.707   1.829   1.875   1.961   1.972   2.026
  2.054   2.073   2.125   2.131   2.229   2.255   2.290   2.401
  2.423   2.473   2.518   2.575   2.685   2.717   2.747   2.815
  2.851   2.884   2.923   3.186   3.260   3.353   3.376   3.467
  3.490   3.551   4.250   4.436   4.606   4.659   4.662   4.665
  4.692   4.741   6.224  90.170
 
 Beta MOs
 -- Occupied --
******* -62.550 -56.370 -56.367 -56.367 -10.183 -10.173 -10.167
 -8.735  -6.565  -6.552  -6.551  -2.658  -2.655  -2.655  -2.643
 -2.643  -0.766  -0.748  -0.651  -0.563  -0.454  -0.418  -0.383
 -0.365  -0.341  -0.327  -0.304  -0.302
 -- Virtual --
 -0.231  -0.033   0.106   0.146   0.148   0.158   0.182   0.183
  0.203   0.224   0.234   0.285   0.322   0.325   0.366   0.517
  0.536   0.542   0.559   0.567   0.576   0.595   0.597   0.599
  0.621   0.687   0.713   0.793   0.807   0.864   0.865   0.884
  0.915   0.923   0.948   1.000   1.004   1.241   1.321   1.442
  1.496   1.573   1.623   1.684   1.725   1.838   1.880   1.976
  1.991   2.055   2.058   2.074   2.125   2.142   2.230   2.265
  2.291   2.405   2.430   2.485   2.528   2.597   2.690   2.720
  2.751   2.819   2.854   2.886   2.927   3.187   3.264   3.358
  3.378   3.469   3.496   3.553   4.267   4.453   4.608   4.676
  4.676   4.680   4.695   4.748   6.240  90.177
 --------------------------------------------------------------
 
          Ground-State Mulliken Net Atomic Charges

     Atom                 Charge (a.u.)    Spin (a.u.)
  --------------------------------------------------------
      1 Br                    0.005433       1.024321
      2 C                    -0.183837      -0.071099
      3 C                    -0.214880       1.049298
      4 C                    -0.308211       0.047507
      5 H                     0.099153       0.012937
      6 H                     0.100891       0.012241
      7 H                     0.096066      -0.044270
      8 H                     0.098353      -0.044400
      9 H                     0.099226       0.014712
     10 H                     0.103927      -0.000594
     11 H                     0.103880      -0.000654
  --------------------------------------------------------
  Sum of atomic charges =    -0.000000
  Sum of spin   charges =     2.000000

 -----------------------------------------------------------------
                    Cartesian Multipole Moments
 -----------------------------------------------------------------
    Charge (ESU x 10^10)
                 0.0000
    Dipole Moment (Debye)
         X      -0.2677      Y      -0.0050      Z      -0.0007
       Tot       0.2678
    Quadrupole Moments (Debye-Ang)
        XX     -40.8860     XY      -0.6355     YY     -39.5337
        XZ      -0.1586     YZ       0.5500     ZZ     -36.2590
    Octopole Moments (Debye-Ang^2)
       XXX    -119.1812    XXY      -7.0846    XYY     -38.6448
       YYY     -19.8405    XXZ      -0.8399    XYZ       1.7427
       YYZ       0.6608    XZZ     -30.7475    YZZ      -6.3002
       ZZZ       0.0345
    Hexadecapole Moments (Debye-Ang^3)
      XXXX   -1424.6331   XXXY     -86.7987   XXYY    -254.2512
      XYYY     -83.0439   YYYY    -127.5796   XXXZ      -3.7588
      XXYZ       5.4515   XYYZ       1.8909   YYYZ       1.1402
      XXZZ    -218.5939   XYZZ     -22.6876   YYZZ     -28.2908
      XZZZ       0.2564   YZZZ       0.8242   ZZZZ     -58.4338
 -----------------------------------------------------------------
 Calculating analytic gradient of the SCF energy
 Gradient of SCF Energy
            1           2           3           4           5           6
    1  -0.0058380  -0.0000794   0.0060279  -0.0000206  -0.0000141   0.0000191
    2  -0.0024219  -0.0001555   0.0029451  -0.0000212   0.0000006   0.0000251
    3  -0.0000534  -0.0000144   0.0000425  -0.0000377   0.0000133  -0.0000242
            7           8           9          10          11
    1  -0.0000286  -0.0001001   0.0000169  -0.0000073   0.0000243
    2  -0.0001444  -0.0001891  -0.0000186  -0.0000116  -0.0000086
    3  -0.0001495   0.0001848   0.0000194   0.0000080   0.0000111
 Max gradient component =       6.028E-03
 RMS gradient           =       1.606E-03
 Gradient time:  CPU 9.73 s  wall 0.84 s
 Geometry Optimization Parameters
   NAtoms,    NIC,     NZ,  NCons,   NDum,   NFix, NCnnct, MaxDiis
       11      85       0       1       0       0       0       0

 Cartesian Hessian Update
 Hessian Updated using BFGS Update


** CONSTRAINED OPTIMIZATION IN DELOCALIZED INTERNAL COORDINATES **
   Searching for a Minimum

   Optimization Cycle:  10

                       Coordinates (Angstroms)
     ATOM                X               Y               Z
      1  Br        3.1098355786    0.5089809675   -0.0043148886
      2  C        -0.7280359161    0.4052297294    0.0104449989
      3  C         0.2612042703   -0.7137737186    0.0088220996
      4  C        -2.1983914722   -0.0752874763   -0.0084516011
      5  H        -0.5800667538    1.0344081844    0.8981809733
      6  H        -0.5616339791    1.0536300207   -0.8597915310
      7  H         0.5162552026   -1.2186063016   -0.9192963629
      8  H         0.4865714153   -1.2486734427    0.9274866215
      9  H        -2.8885258221    0.7760671711   -0.0038468692
     10  H        -2.4047516720   -0.6740634480   -0.9015314801
     11  H        -2.4196758517   -0.6953106858    0.8664020395
   Point Group: c1    Number of degrees of freedom:    27


   Energy is  -2692.316267035

              Constraints and their Current Values
                                        Value     Constraint
   Distance(Angs):        1   3             3.100000     3.100000
 Hessian Updated using BFGS Update

 26 Hessian modes will be used to form the next step
  Hessian Eigenvalues:
     0.005443    0.010860    0.045079    0.048799    0.054776    0.067984
     0.079672    0.082981    0.084141    0.087659    0.099677    0.104936
     0.132987    0.160144    0.160199    0.162303    0.230184    0.279816
     0.314997    0.332248    0.338852    0.339937    0.341498    0.342680
     0.342789    0.523417

 Minimum Search - Taking Simple RFO Step
 Searching for Lamda that Minimizes Along All modes
 Value Taken    Lamda =  -0.00000200
 Step Taken.  Stepsize is  0.014957

                             Maximum     Tolerance    Cnvgd?
         Gradient           0.000241      0.000300     YES
         Displacement       0.009147      0.001200      NO
         Energy change     -0.000000      0.000001     YES


                       Distance Matrix (Angstroms)
             Br(  1)   C (  2)   C (  3)   C (  4)   H (  5)   H (  6)
   C (  2)  3.839302
   C (  3)  3.100000  1.493575
   C (  4)  5.340287  1.546997  2.541176
   H (  5)  3.834834  1.098105  2.134206  2.161569
   H (  6)  3.808959  1.097918  2.134307  2.162917  1.758174
   H (  7)  3.247831  2.247114  1.086881  3.083200  3.095355  2.515640
   H (  8)  3.292282  2.247584  1.086670  3.076011  2.520126  3.097370
   H (  9)  6.004305  2.192132  3.484334  1.095952  2.491862  2.494816
   H ( 10)  5.710978  2.192704  2.817382  1.094856  3.080149  2.526608
   H ( 11)  5.725728  2.192144  2.814765  1.094881  2.525292  3.080724
             H (  7)   H (  8)   H (  9)   H ( 10)
   H (  8)  1.847266
   H (  9)  4.050840  4.044532
   H ( 10)  2.971384  3.469183  1.772781
   H ( 11)  3.475953  2.959090  1.772599  1.768124
 
 Final energy is   -2692.31626703544     


 ******************************
 **  OPTIMIZATION CONVERGED  **
 ******************************

                       Coordinates (Angstroms)
     ATOM                X               Y               Z
      1  Br        3.1098355786    0.5089809675   -0.0043148886
      2  C        -0.7280359161    0.4052297294    0.0104449989
      3  C         0.2612042703   -0.7137737186    0.0088220996
      4  C        -2.1983914722   -0.0752874763   -0.0084516011
      5  H        -0.5800667538    1.0344081844    0.8981809733
      6  H        -0.5616339791    1.0536300207   -0.8597915310
      7  H         0.5162552026   -1.2186063016   -0.9192963629
      8  H         0.4865714153   -1.2486734427    0.9274866215
      9  H        -2.8885258221    0.7760671711   -0.0038468692
     10  H        -2.4047516720   -0.6740634480   -0.9015314801
     11  H        -2.4196758517   -0.6953106858    0.8664020395

Z-matrix Print:
$molecule
0 3
Br
C  1 3.100000
H  2 1.086670 1 90.410445
H  2 1.086881 1 87.934245 3 -116.400754 0
C  2 1.493575 1 108.246878 3 122.300450 0
H  5 1.097918 2 109.951139 1 57.289953 0
H  5 1.098105 2 109.931914 1 -59.500462 0
C  5 1.546997 2 113.377605 1 178.975467 0
H  8 1.094856 5 111.037678 2 -60.010079 0
H  8 1.094881 5 110.991710 2 59.753415 0
H  8 1.095952 5 110.926747 2 179.844982 0
$end

PES scan, value:    3.1000 energy: -2692.3162670354
------- Summary of potential scan: ------ 
    3.1000     -2692.3162670354
----------------------------------------- 
Archival summary:
1\1\hpc0242\JobtypUnspecified\ProcedureUnspecified\6-31G**\r137(3)\knomura\WedMar1317:38:312019WedMar1317:38:312019\0\\#,JobtypUnspecified,ProcedureUnspecified,6-31G**,\\0,3\Br\C,1,3.1\H,2,1.08667,1,90.4104\H,2,1.08688,1,87.9342,3,-116.401,0\C,2,1.49358,1,108.247,3,122.3,0\H,5,1.09792,2,109.951,1,57.29,0\H,5,1.09811,2,109.932,1,-59.5005,0\C,5,1.547,2,113.378,1,178.975,0\H,8,1.09486,5,111.038,2,-60.0101,0\H,8,1.09488,5,110.992,2,59.7534,0\H,8,1.09595,5,110.927,2,179.845,0\\\@

 Total job time:  54.02s(wall), 620.48s(cpu) 
 Wed Mar 13 17:38:31 2019

        *************************************************************
        *                                                           *
        *  Thank you very much for using Q-Chem.  Have a nice day.  *
        *                                                           *
        *************************************************************


