
Running Job 1 of 1 halogens/Bromine/02/Br_3.xyz.data/inputs/bond_triplet_4.3.in
qchem halogens/Bromine/02/Br_3.xyz.data/inputs/bond_triplet_4.3.in_28055.0 /staging/scratch/2868759/qchem28055/ 1
/usr/usc/qchem/5.1.1/exe/qcprog.exe_s halogens/Bromine/02/Br_3.xyz.data/inputs/bond_triplet_4.3.in_28055.0 /staging/scratch/2868759/qchem28055/
Check license passed

                  Welcome to Q-Chem
     A Quantum Leap Into The Future Of Chemistry


 Q-Chem 5.1, Q-Chem, Inc., Pleasanton, CA (2018)

 Yihan Shao,  Zhengting Gan,  E. Epifanovsky,  A. T. B. Gilbert,  M. Wormit,  
 J. Kussmann,  A. W. Lange,  A. Behn,  Jia Deng,  Xintian Feng,  D. Ghosh,  
 M. Goldey,  P. R. Horn,  L. D. Jacobson,  I. Kaliman,  T. Kus,  A. Landau,  
 Jie Liu,  E. I. Proynov,  R. M. Richard,  R. P. Steele,  E. J. Sundstrom,  
 H. L. Woodcock III,  P. M. Zimmerman,  D. Zuev,  B. Albrecht,  E. Alguire,  
 S. A. Baeppler,  D. Barton,  Z. Benda,  Y. A. Bernard,  E. J. Berquist,  
 K. B. Bravaya,  H. Burton,  D. Casanova,  Chun-Min Chang,  Yunqing Chen,  
 A. Chien,  K. D. Closser,  M. P. Coons,  S. Coriani,  S. Dasgupta,  
 A. L. Dempwolff,  M. Diedenhofen,  Hainam Do,  R. G. Edgar,  Po-Tung Fang,  
 S. Faraji,  S. Fatehi,  Qingguo Feng,  K. D. Fenk,  J. Fosso-Tande,  
 Qinghui Ge,  A. Ghysels,  G. Gidofalvi,  J. Gomes,  J. Gonthier,  A. Gunina,  
 D. Hait,  M. W. D. Hanson-Heine,  P. H. P. Harbach,  A. W. Hauser,  
 J. E. Herr,  E. G. Hohenstein,  Z. C. Holden,  Kerwin Hui,  B. C. Huynh,  
 T.-C. Jagau,  Hyunjun Ji,  B. Kaduk,  K. Khistyaev,  Jaehoon Kim,  
 P. Klunzinger,  K. Koh,  D. Kosenkov,  L. Koulias,  T. Kowalczyk,  
 C. M. Krauter,  A. Kunitsa,  Ka Un Lao,  A. Laurent,  K. V. Lawler,  
 Joonho Lee,  D. Lefrancois,  S. Lehtola,  D. S. Levine,  Yi-Pei Li,  
 You-Sheng Lin,  Fenglai Liu,  E. Livshits,  A. Luenser,  P. Manohar,  
 E. Mansoor,  S. F. Manzer,  Shan-Ping Mao,  Yuezhi Mao,  N. Mardirossian,  
 A. V. Marenich,  T. Markovich,  L. A. Martinez-Martinez,  S. A. Maurer,  
 N. J. Mayhall,  S. C. McKenzie,  J.-M. Mewes,  A. F. Morrison,  
 J. W. Mullinax,  K. Nanda,  T. S. Nguyen-Beck,  R. Olivares-Amaya,  
 J. A. Parkhill,  T. M. Perrine,  F. Plasser,  P. Pokhilko,  S. Prager,  
 A. Prociuk,  E. Ramos,  D. R. Rehn,  F. Rob,  M. Schneider,  N. Sergueev,  
 S. M. Sharada,  S. Sharma,  D. W. Small,  T. Stauch,  T. Stein,  
 Yu-Chuan Su,  A. J. W. Thom,  A. Tkatchenko,  T. Tsuchimochi,  N. M. Tubman,  
 L. Vogt,  M. L. Vidal,  O. Vydrov,  M. A. Watson,  J. Wenzel,  
 M. de Wergifosse,  T. A. Wesolowski,  A. White,  J. Witte,  A. Yamada,  
 Jun Yang,  K. Yao,  S. Yeganeh,  S. R. Yost,  Zhi-Qiang You,  A. Zech,  
 Igor Ying Zhang,  Xing Zhang,  Yan Zhao,  Ying Zhu,  B. R. Brooks,  
 G. K. L. Chan,  C. J. Cramer,  M. S. Gordon,  W. J. Hehre,  A. Klamt,  
 M. W. Schmidt,  C. D. Sherrill,  D. G. Truhlar,  A. Aspuru-Guzik,  R. Baer,  
 A. T. Bell,  N. A. Besley,  Jeng-Da Chai,  A. E. DePrince, III,  
 R. A. DiStasio Jr.,  A. Dreuw,  B. D. Dunietz,  T. R. Furlani,  
 Chao-Ping Hsu,  Yousung Jung,  Jing Kong,  D. S. Lambrecht,  WanZhen Liang,  
 C. Ochsenfeld,  V. A. Rassolov,  L. V. Slipchenko,  J. E. Subotnik,  
 T. Van Voorhis,  J. M. Herbert,  A. I. Krylov,  P. M. W. Gill,  M. Head-Gordon

 Contributors to earlier versions of Q-Chem not listed above: 
 R. D. Adamson,  B. Austin,  J. Baker,  G. J. O. Beran,  K. Brandhorst,  
 S. T. Brown,  E. F. C. Byrd,  A. K. Chakraborty,  C.-L. Cheng,  
 Siu Hung Chien,  D. M. Chipman,  D. L. Crittenden,  H. Dachsel,  
 R. J. Doerksen,  A. D. Dutoi,  L. Fusti-Molnar,  W. A. Goddard III,  
 A. Golubeva-Zadorozhnaya,  S. R. Gwaltney,  G. Hawkins,  A. Heyden,  
 S. Hirata,  G. Kedziora,  F. J. Keil,  C. Kelley,  Jihan Kim,  R. A. King,  
 R. Z. Khaliullin,  P. P. Korambath,  W. Kurlancheek,  A. M. Lee,  M. S. Lee,  
 S. V. Levchenko,  Ching Yeh Lin,  D. Liotard,  R. C. Lochan,  I. Lotan,  
 P. E. Maslen,  N. Nair,  D. P. O'Neill,  D. Neuhauser,  E. Neuscamman,  
 C. M. Oana,  R. Olson,  B. Peters,  R. Peverati,  P. A. Pieniazek,  
 Y. M. Rhee,  J. Ritchie,  M. A. Rohrdanz,  E. Rosta,  N. J. Russ,  
 H. F. Schaefer III,  N. E. Schultz,  N. Shenvi,  A. C. Simmonett,  A. Sodt,  
 D. Stuck,  K. S. Thanthiriwatte,  V. Vanovschi,  Tao Wang,  A. Warshel,  
 C. F. Williams,  Q. Wu,  X. Xu,  W. Zhang

 Please cite Q-Chem as follows:
 Y. Shao et al., Mol. Phys. 113, 184-215 (2015)
 DOI: 10.1080/00268976.2014.952696

 Q-Chem 5.1.1 for Intel X86 EM64T Linux

 Parts of Q-Chem use Armadillo 8.300.2 (Tropical Shenanigans).
 http://arma.sourceforge.net/

 Q-Chem begins on Wed Mar 13 17:24:35 2019  

Host: 
0

     Scratch files written to /staging/scratch/2868759/qchem28055//
 Aug318 |scratch|qcdevops|jenkins|workspace|build_RNUM 6013   
Processing $rem in /usr/usc/qchem/5.1.1/config/preferences.
 MEM_TOTAL  2000 
Input Ideriv = 2
Curr. Ideriv = -1
Max.  Ideriv = 2

Checking the input file for inconsistencies... 	...done.

--------------------------------------------------------------
User input:
--------------------------------------------------------------

$comment
potential surface scanner
$end

$rem
JOBTYPE  PES_SCAN
UNRESTRICTED TRUE
SYM_IGNORE  TRUE
GEOM_OPT_MAX_CYCLES 400
SCF_MAX_CYCLES 400
METHOD   B3LYP
BASIS   6-31G**
PDB_PRINT 2
SCF_CONVERGENCE 6
THRESH 14
SCF_PRINT 1
$end
$molecule
0 3
Br 4.516439 0.033375 0.017201
C -0.928319 0.473346 0.007180
C 0.155678 -0.552776 0.003365
C -2.348967 -0.140469 -0.008448
H -0.834572 1.113088 0.894167
H -0.824066 1.130621 -0.865977
H 0.484400 -1.008894 -0.925749
H 0.495137 -1.006278 0.929876
H -3.113355 0.644466 -0.004823
H -2.499204 -0.757220 -0.900261
H -2.510382 -0.776658 0.867568
$end
$scan
stre 1 3 4.300000 4.301000 0.100000
$end
--------------------------------------------------------------
 ----------------------------------------------------------------
             Standard Nuclear Orientation (Angstroms)
    I     Atom           X                Y                Z
 ----------------------------------------------------------------
    1      Br      4.5164390000     0.0333750000     0.0172010000
    2      C      -0.9283190000     0.4733460000     0.0071800000
    3      C       0.1556780000    -0.5527760000     0.0033650000
    4      C      -2.3489670000    -0.1404690000    -0.0084480000
    5      H      -0.8345720000     1.1130880000     0.8941670000
    6      H      -0.8240660000     1.1306210000    -0.8659770000
    7      H       0.4844000000    -1.0088940000    -0.9257490000
    8      H       0.4951370000    -1.0062780000     0.9298760000
    9      H      -3.1133550000     0.6444660000    -0.0048230000
   10      H      -2.4992040000    -0.7572200000    -0.9002610000
   11      H      -2.5103820000    -0.7766580000     0.8675680000
 ----------------------------------------------------------------
 Nuclear Repulsion Energy =   160.3466988822 hartrees
 There are       31 alpha and       29 beta electrons
 Requested basis set is 6-31G(d,p)
 There are 41 shells and 115 basis functions

 Total QAlloc Memory Limit   2000 MB
 Mega-Array Size       188 MB
 MEM_STATIC part       192 MB
A total of 1 constraints
  
            1
    1   1.0100000
    2   1.0100000
    3   3.0100000
    4   4.3000000
    5   4.3010000
    6   0.1000000
    7   0.0000000
    8   0.0000000
    9   0.0000000
   10   0.0000000

                       Distance Matrix (Angstroms)
             Br(  1)   C (  2)   C (  3)   C (  4)   H (  5)   H (  6)
   C (  2)  5.462514
   C (  3)  4.400000  1.492645
   C (  4)  6.867655  1.547661  2.538382
   H (  5)  5.528849  1.097636  2.132891  2.163218
   H (  6)  5.523128  1.097853  2.132951  2.162487  1.760263
   H (  7)  4.269990  2.250148  1.085981  3.102188  3.091050  2.508621
   H (  8)  4.252614  2.250974  1.085965  3.117532  2.502222  3.087349
   H (  9)  7.654259  2.191759  3.481384  1.095639  2.494121  2.493748
   H ( 10)  7.119412  2.192127  2.811892  1.094661  3.080426  2.524125
   H ( 11)  7.124289  2.192191  2.811556  1.094621  2.525903  3.080025
             H (  7)   H (  8)   H (  9)   H ( 10)
   H (  8)  1.855658
   H (  9)  4.065162  4.076743
   H ( 10)  2.994308  3.518168  1.773052
   H ( 11)  3.498377  3.014922  1.773199  1.767971
 
 A cutoff of  1.0D-14 yielded    729 shell pairs
 There are      5364 function pairs
 
 -------------------------------------------------------
 OpenMP Integral Computing Module                       
 Release: version 1.0, May 2013, Q-Chem Inc. Pittsburgh 
 -------------------------------------------------------
 Integral Job Info:
 Integral job number is                      11
 Integral operator is                         1
 short-range coefficients                     0
 long-range coefficients              100000000
 Omega coefficients                           0
 if combine SR and LR in K                    0
 Integral screening is                        0
 Integral computing path is                   2
 max size of driver memory is            800000
 size of driver memory is                593474
 size of scratch memory is             15267112
 max col of scratch BK array               1296
 max len of scratch array in speh3          155
 max len of scratch index in speh4           18
 max int batch size is                      520
 min int batch size is                       52
 fixed nKL is                                52
 max L of basis functions is                  2
 order of int derivative is                   0
 number of shells is                         41
 number of basis is                         115
 number of cartesian basis is               115
 number of contracted shell pairs           729
 number of primitive shell pairs           2746
 maxK2 (contraction) of shell pair           36
 max number of K2 of shell pair               1
 max number of CS2 of shell pair             59
 max number of PS2 of shell pair            198
 mem total for path MDJ                  514744
 -------------------------------------------------------
 Smallest overlap matrix eigenvalue = 7.27E-04

 Scale SEOQF with 1.000000e-01/1.000000e+00/1.000000e+00

 Standard Electronic Orientation quadrupole field applied
 Nucleus-field energy     =     0.0000000293 hartrees
 Guess from superposition of atomic densities
 Warning:  Energy on first SCF cycle will be non-variational
 SAD guess density has 59.972873 electrons

 -----------------------------------------------------------------------
  General SCF calculation program by
  Eric Jon Sundstrom, Paul Horn, Yuezhi Mao, Dmitri Zuev, Alec White,
  David Stuck, Shaama M.S., Shane Yost, Joonho Lee, David Small,
  Daniel Levine, Susi Lehtola, Hugh Burton, Evgeny Epifanovsky
 -----------------------------------------------------------------------
 Exchange:     0.2000 Hartree-Fock + 0.0800 Slater + 0.7200 B88
 Correlation:  0.1900 VWN1RPA + 0.8100 LYP
 Using SG-1 standard quadrature grid
 using 12 threads for integral computing
 -------------------------------------------------------
 OpenMP Integral computing Module                
 Release: version 1.0, May 2013, Q-Chem Inc. Pittsburgh 
 -------------------------------------------------------
 -------------------------------------------------------
 OpenMP BLAS3 based DFT computing Module                
 Release: version 1.0, May 2013, Q-Chem Inc. Pittsburgh 
 -------------------------------------------------------
 A unrestricted SCF calculation will be
 performed using DIIS
 SCF converges when DIIS error is below 1.0e-06
 Alpha HF Exchange    Energy = -10.71095307768232
 Beta HF Exchange     Energy = -10.71095307768232
 DFT Correlation      Energy =  -3.10431304678209
 DFT Exchange         Energy = -84.97267230158295
 One-Electron (alpha) Energy = -2026.98178870322681
 One-Electron (beta)  Energy = -2026.98178870322681
 Total Coulomb        Energy = 1307.60261507564269
 ---------------------------------------
  Cycle       Energy         DIIS error
 ---------------------------------------
    1   -2695.5131549231      1.64e-01  
 Alpha HF Exchange    Energy = -10.89561858947018
 Beta HF Exchange     Energy = -10.70111856155810
 DFT Correlation      Energy =  -3.13654687923736
 DFT Exchange         Energy = -85.89555798343362
 One-Electron (alpha) Energy = -2049.60465810225605
 One-Electron (beta)  Energy = -2014.98853831152610
 Total Coulomb        Energy = 1322.65798189706243
    2   -2692.2173576190      9.50e-03  
 Alpha HF Exchange    Energy = -10.79836453582656
 Beta HF Exchange     Energy = -10.61415342309670
 DFT Correlation      Energy =  -3.10174408898868
 DFT Exchange         Energy = -85.14431254676552
 One-Electron (alpha) Energy = -2042.13461209019079
 One-Electron (beta)  Energy = -2008.02425025030266
 Total Coulomb        Energy = 1307.25237890369567
    3   -2692.2183591200      4.12e-03  
 Alpha HF Exchange    Energy = -10.87272833397843
 Beta HF Exchange     Energy = -10.68027910338305
 DFT Correlation      Energy =  -3.12795958390907
 DFT Exchange         Energy = -85.71248521213141
 One-Electron (alpha) Energy = -2047.76038576355336
 One-Electron (beta)  Energy = -2013.05360152395019
 Total Coulomb        Energy = 1318.58238321590761
    4   -2692.2783573935      2.63e-03  
 Alpha HF Exchange    Energy = -10.84894812891402
 Beta HF Exchange     Energy = -10.65796270121117
 DFT Correlation      Energy =  -3.11847263419736
 DFT Exchange         Energy = -85.52406100161920
 One-Electron (alpha) Energy = -2046.11426041901314
 One-Electron (beta)  Energy = -2011.49169841100206
 Total Coulomb        Energy = 1315.08785134275195
    5   -2692.3208530417      3.11e-04  
 Alpha HF Exchange    Energy = -10.84683977917628
 Beta HF Exchange     Energy = -10.65652842640772
 DFT Correlation      Energy =  -3.11822853709247
 DFT Exchange         Energy = -85.51054572365736
 One-Electron (alpha) Energy = -2045.91590467651440
 One-Electron (beta)  Energy = -2011.31735007354882
 Total Coulomb        Energy = 1314.69740845980618
    6   -2692.3212898451      5.50e-05  
 Alpha HF Exchange    Energy = -10.84675157237976
 Beta HF Exchange     Energy = -10.65627798775161
 DFT Correlation      Energy =  -3.11809772851449
 DFT Exchange         Energy = -85.50908228945650
 One-Electron (alpha) Energy = -2045.90332502829483
 One-Electron (beta)  Energy = -2011.29794974804440
 Total Coulomb        Energy = 1314.66347448907618
    7   -2692.3213109539      1.66e-05  
 Alpha HF Exchange    Energy = -10.84681993046850
 Beta HF Exchange     Energy = -10.65634166478941
 DFT Correlation      Energy =  -3.11807816509521
 DFT Exchange         Energy = -85.50954095272499
 One-Electron (alpha) Energy = -2045.91298594672458
 One-Electron (beta)  Energy = -2011.30329934916017
 Total Coulomb        Energy = 1314.67905330806320
    8   -2692.3213137894      7.19e-06  
 Alpha HF Exchange    Energy = -10.84686666051932
 Beta HF Exchange     Energy = -10.65634566018677
 DFT Correlation      Energy =  -3.11808584613436
 DFT Exchange         Energy = -85.50974502976499
 One-Electron (alpha) Energy = -2045.91528455221237
 One-Electron (beta)  Energy = -2011.30281507405675
 Total Coulomb        Energy = 1314.68112852664740
    9   -2692.3213153848      3.22e-06  
 Alpha HF Exchange    Energy = -10.84686671575086
 Beta HF Exchange     Energy = -10.65633897439604
 DFT Correlation      Energy =  -3.11808046692433
 DFT Exchange         Energy = -85.50971326875452
 One-Electron (alpha) Energy = -2045.91492227006484
 One-Electron (beta)  Energy = -2011.30173798372743
 Total Coulomb        Energy = 1314.67964395958052
   10   -2692.3213168086      2.84e-06  
 Alpha HF Exchange    Energy = -10.84686673582068
 Beta HF Exchange     Energy = -10.65633805799713
 DFT Correlation      Energy =  -3.11807964336167
 DFT Exchange         Energy = -85.50970933580524
 One-Electron (alpha) Energy = -2045.91496711705440
 One-Electron (beta)  Energy = -2011.30162083871801
 Total Coulomb        Energy = 1314.67956509534997
   11   -2692.3213177219      2.74e-06  
 Alpha HF Exchange    Energy = -10.84686656830523
 Beta HF Exchange     Energy = -10.65633744873398
 DFT Correlation      Energy =  -3.11807926799276
 DFT Exchange         Energy = -85.50970649945501
 One-Electron (alpha) Energy = -2045.91494477238234
 One-Electron (beta)  Energy = -2011.30143276594299
 Total Coulomb        Energy = 1314.67934934220898
   12   -2692.3213190691      2.71e-06  
 Alpha HF Exchange    Energy = -10.84686670246962
 Beta HF Exchange     Energy = -10.65633840251908
 DFT Correlation      Energy =  -3.11807834641779
 DFT Exchange         Energy = -85.50971093112442
 One-Electron (alpha) Energy = -2045.91502466125712
 One-Electron (beta)  Energy = -2011.30092253067119
 Total Coulomb        Energy = 1314.67891847798069
   13   -2692.3213241850      2.67e-06  
 Alpha HF Exchange    Energy = -10.84686397872007
 Beta HF Exchange     Energy = -10.65634711081330
 DFT Correlation      Energy =  -3.11807309230161
 DFT Exchange         Energy = -85.50973172160130
 One-Electron (alpha) Energy = -2045.91491434295517
 One-Electron (beta)  Energy = -2011.29901127911717
 Total Coulomb        Energy = 1314.67689611689229
   14   -2692.3213464971      3.39e-06  
 Alpha HF Exchange    Energy = -10.84686374438961
 Beta HF Exchange     Energy = -10.65634922393659
 DFT Correlation      Energy =  -3.11807252379866
 DFT Exchange         Energy = -85.50973859032729
 One-Electron (alpha) Energy = -2045.91489616362833
 One-Electron (beta)  Energy = -2011.29898747158768
 Total Coulomb        Energy = 1314.67686030515006
   15   -2692.3213485010      3.82e-06  
 Alpha HF Exchange    Energy = -10.84685397268925
 Beta HF Exchange     Energy = -10.65645201866347
 DFT Correlation      Energy =  -3.11805291842011
 DFT Exchange         Energy = -85.51007183590593
 One-Electron (alpha) Energy = -2045.91416072841912
 One-Electron (beta)  Energy = -2011.30399632235049
 Total Coulomb        Energy = 1314.68149934082680
   16   -2692.3213895442      3.19e-05  
 Alpha HF Exchange    Energy = -10.84685002361708
 Beta HF Exchange     Energy = -10.65648837051380
 DFT Correlation      Energy =  -3.11804743611452
 DFT Exchange         Energy = -85.51018711350235
 One-Electron (alpha) Energy = -2045.91374891408327
 One-Electron (beta)  Energy = -2011.30682766395944
 Total Coulomb        Energy = 1314.68405912504795
   17   -2692.3213914853      4.22e-05  
 Alpha HF Exchange    Energy = -10.84684913260579
 Beta HF Exchange     Energy = -10.65650042389309
 DFT Correlation      Energy =  -3.11804621795429
 DFT Exchange         Energy = -85.51022780131626
 One-Electron (alpha) Energy = -2045.91363340417342
 One-Electron (beta)  Energy = -2011.30807913254466
 Total Coulomb        Energy = 1314.68524748522032
   18   -2692.3213897158      4.56e-05  
 Alpha HF Exchange    Energy = -10.84685010873858
 Beta HF Exchange     Energy = -10.65649364911047
 DFT Correlation      Energy =  -3.11804653930891
 DFT Exchange         Energy = -85.51020599669381
 One-Electron (alpha) Energy = -2045.91381153219913
 One-Electron (beta)  Energy = -2011.30705457846125
 Total Coulomb        Energy = 1314.68437038532261
   19   -2692.3213931077      4.36e-05  
 Alpha HF Exchange    Energy = -10.84684488924746
 Beta HF Exchange     Energy = -10.65654550304466
 DFT Correlation      Energy =  -3.11803788108701
 DFT Exchange         Energy = -85.51036758107604
 One-Electron (alpha) Energy = -2045.91344968772410
 One-Electron (beta)  Energy = -2011.31046365900670
 Total Coulomb        Energy = 1314.68761478864167
   20   -2692.3213955011      5.85e-05  
 Alpha HF Exchange    Energy = -10.84684290454524
 Beta HF Exchange     Energy = -10.65653953230100
 DFT Correlation      Energy =  -3.11803751821098
 DFT Exchange         Energy = -85.51033672267496
 One-Electron (alpha) Energy = -2045.91334294674334
 One-Electron (beta)  Energy = -2011.30976635053889
 Total Coulomb        Energy = 1314.68676967630108
   21   -2692.3213973872      5.72e-05  
 Alpha HF Exchange    Energy = -10.84684721699991
 Beta HF Exchange     Energy = -10.65650220953864
 DFT Correlation      Energy =  -3.11804128392177
 DFT Exchange         Energy = -85.51021706043787
 One-Electron (alpha) Energy = -2045.91391380630967
 One-Electron (beta)  Energy = -2011.30582293067505
 Total Coulomb        Energy = 1314.68323936109005
   22   -2692.3214062353      4.63e-05  
 Alpha HF Exchange    Energy = -10.84684739585469
 Beta HF Exchange     Energy = -10.65651793762395
 DFT Correlation      Energy =  -3.11804003174680
 DFT Exchange         Energy = -85.51027301949564
 One-Electron (alpha) Energy = -2045.91401455201071
 One-Electron (beta)  Energy = -2011.30680603837141
 Total Coulomb        Energy = 1314.68439264297444
   23   -2692.3214074207      5.00e-05  
 Alpha HF Exchange    Energy = -10.84684836856601
 Beta HF Exchange     Energy = -10.65648655530808
 DFT Correlation      Energy =  -3.11804174861963
 DFT Exchange         Energy = -85.51015658662462
 One-Electron (alpha) Energy = -2045.91434679717349
 One-Electron (beta)  Energy = -2011.30266627771584
 Total Coulomb        Energy = 1314.68042934135747
   24   -2692.3214180812      4.10e-05  
 Alpha HF Exchange    Energy = -10.84685144781489
 Beta HF Exchange     Energy = -10.65642745362415
 DFT Correlation      Energy =  -3.11804548450853
 DFT Exchange         Energy = -85.50994705063809
 One-Electron (alpha) Energy = -2045.91505614187213
 One-Electron (beta)  Energy = -2011.29557595622668
 Total Coulomb        Energy = 1314.67377490774174
   25   -2692.3214297155      2.37e-05  
 Alpha HF Exchange    Energy = -10.84685788897457
 Beta HF Exchange     Energy = -10.65638185020870
 DFT Correlation      Energy =  -3.11804930650288
 DFT Exchange         Energy = -85.50980075396299
 One-Electron (alpha) Energy = -2045.91597869786028
 One-Electron (beta)  Energy = -2011.29007130373520
 Total Coulomb        Energy = 1314.66900608904120
   26   -2692.3214348007      1.00e-05  
 Alpha HF Exchange    Energy = -10.84686251936661
 Beta HF Exchange     Energy = -10.65633580595436
 DFT Correlation      Energy =  -3.11805266538161
 DFT Exchange         Energy = -85.50964769240834
 One-Electron (alpha) Energy = -2045.91668966296493
 One-Electron (beta)  Energy = -2011.28468939194727
 Total Coulomb        Energy = 1314.66414311949143
   27   -2692.3214357071      3.34e-06  
 Alpha HF Exchange    Energy = -10.84686185626185
 Beta HF Exchange     Energy = -10.65634796882072
 DFT Correlation      Energy =  -3.11805177719504
 DFT Exchange         Energy = -85.50968988758140
 One-Electron (alpha) Energy = -2045.91656810719292
 One-Electron (beta)  Energy = -2011.28610458535741
 Total Coulomb        Energy = 1314.66548945359136
   28   -2692.3214358173      2.33e-07  Convergence criterion met
 ---------------------------------------
 SCF time:   CPU 68.17s  wall 6.00s 
<S^2> =          2.005225200
 Alpha HF Exchange    Energy = -10.84686185626185
 Beta HF Exchange     Energy = -10.65634796882072
 DFT Correlation      Energy =  -3.11805177719504
 DFT Exchange         Energy = -85.50968988758140
 One-Electron (alpha) Energy = -2045.91656810719292
 One-Electron (beta)  Energy = -2011.28610458535741
 Total Coulomb        Energy = 1314.66548945359136
 Nuclear repulsion Energy = 160.34669891146856
 SCF   energy in the final basis set =    -2692.3214358173
 Total energy in the final basis set =    -2692.3214358173
 
 --------------------------------------------------------------
 
                    Orbital Energies (a.u.)
 --------------------------------------------------------------
 
 Alpha MOs
 -- Occupied --
******* -62.555 -56.379 -56.372 -56.372 -10.188 -10.187 -10.178
 -8.742  -6.579  -6.557  -6.557  -2.670  -2.664  -2.664  -2.648
 -2.648  -0.795  -0.780  -0.674  -0.581  -0.463  -0.428  -0.394
 -0.379  -0.369  -0.350  -0.333  -0.321  -0.320  -0.201
 -- Virtual --
  0.102   0.135   0.142   0.157   0.169   0.178   0.179   0.219
  0.229   0.269   0.290   0.314   0.314   0.513   0.531   0.533
  0.536   0.547   0.547   0.548   0.583   0.583   0.594   0.612
  0.655   0.697   0.785   0.810   0.856   0.876   0.881   0.909
  0.935   0.958   0.997   1.212   1.305   1.428   1.475   1.523
  1.600   1.680   1.682   1.820   1.872   1.951   1.975   1.999
  2.051   2.070   2.121   2.123   2.224   2.259   2.289   2.368
  2.438   2.448   2.520   2.572   2.675   2.708   2.740   2.800
  2.856   2.881   2.919   3.184   3.255   3.356   3.377   3.464
  3.476   3.553   4.238   4.428   4.604   4.651   4.659   4.659
  4.684   4.684   6.209  90.127
 
 Beta MOs
 -- Occupied --
******* -62.553 -56.374 -56.371 -56.371 -10.188 -10.176 -10.175
 -8.738  -6.568  -6.555  -6.555  -2.662  -2.658  -2.658  -2.647
 -2.647  -0.770  -0.751  -0.655  -0.567  -0.458  -0.422  -0.388
 -0.367  -0.345  -0.331  -0.307  -0.307
 -- Virtual --
 -0.233  -0.043   0.106   0.143   0.147   0.158   0.175   0.179
  0.186   0.223   0.234   0.279   0.317   0.319   0.320   0.518
  0.534   0.548   0.565   0.591   0.591   0.592   0.593   0.597
  0.597   0.646   0.667   0.715   0.789   0.818   0.860   0.878
  0.884   0.916   0.941   0.970   1.000   1.222   1.315   1.459
  1.480   1.538   1.621   1.681   1.700   1.830   1.876   1.955
  1.999   2.039   2.052   2.071   2.122   2.130   2.225   2.270
  2.290   2.374   2.443   2.459   2.529   2.596   2.680   2.710
  2.744   2.803   2.859   2.883   2.922   3.185   3.259   3.361
  3.379   3.466   3.482   3.556   4.257   4.444   4.606   4.670
  4.673   4.673   4.686   4.686   6.225  90.133
 --------------------------------------------------------------
 
          Ground-State Mulliken Net Atomic Charges

     Atom                 Charge (a.u.)    Spin (a.u.)
  --------------------------------------------------------
      1 Br                   -0.002690       1.001500
      2 C                    -0.189543      -0.073561
      3 C                    -0.227294       1.078413
      4 C                    -0.307119       0.049969
      5 H                     0.103315       0.012228
      6 H                     0.103569       0.013690
      7 H                     0.102793      -0.047342
      8 H                     0.103042      -0.047396
      9 H                     0.101752       0.013612
     10 H                     0.106022      -0.000611
     11 H                     0.106153      -0.000503
  --------------------------------------------------------
  Sum of atomic charges =    -0.000000
  Sum of spin   charges =     2.000000

 -----------------------------------------------------------------
                    Cartesian Multipole Moments
 -----------------------------------------------------------------
    Charge (ESU x 10^10)
                -0.0000
    Dipole Moment (Debye)
         X      -0.3507      Y       0.0364      Z       0.0010
       Tot       0.3526
    Quadrupole Moments (Debye-Ang)
        XX     -37.5321     XY      -0.3819     YY     -39.6873
        XZ       0.0291     YZ       0.0016     ZZ     -38.8192
    Octopole Moments (Debye-Ang^2)
       XXX    -151.3799    XXY       3.4255    XYY     -62.4844
       YYY       3.9928    XXZ      -0.0154    XYZ       0.0080
       YYZ      -0.3333    XZZ     -62.6294    YZZ       0.3597
       ZZZ      -0.9880
    Hexadecapole Moments (Debye-Ang^3)
      XXXX   -2329.1115   XXXY       6.2074   XXYY    -456.9024
      XYYY      -4.1357   YYYY     -91.6759   XXXZ      -2.4537
      XXYZ       0.0077   XYYZ      -1.6028   YYYZ      -0.1510
      XXZZ    -453.9820   XYZZ      -0.6949   YYZZ     -24.0655
      XZZZ      -4.7062   YZZZ      -0.0740   ZZZZ     -64.3978
 -----------------------------------------------------------------
 Calculating analytic gradient of the SCF energy
 Gradient of SCF Energy
            1           2           3           4           5           6
    1   0.0002665   0.0000770  -0.0003824   0.0000163  -0.0000169  -0.0000129
    2   0.0001123   0.0001860  -0.0003362  -0.0000127   0.0000091   0.0000120
    3   0.0000146   0.0000056  -0.0000342  -0.0000019  -0.0000037   0.0000102
            7           8           9          10          11
    1   0.0000156   0.0000433  -0.0000049  -0.0000001  -0.0000014
    2   0.0000406   0.0000260  -0.0000130  -0.0000073  -0.0000168
    3  -0.0001092   0.0001312   0.0000006  -0.0000078  -0.0000055
 Max gradient component =       3.824E-04
 RMS gradient           =       1.129E-04
 Gradient time:  CPU 10.89 s  wall 1.12 s
 Geometry Optimization Parameters
   NAtoms,    NIC,     NZ,  NCons,   NDum,   NFix, NCnnct, MaxDiis
       11      85       0       1       0       0       0       0


** CONSTRAINED OPTIMIZATION IN DELOCALIZED INTERNAL COORDINATES **
   Searching for a Minimum

   Optimization Cycle:   1

                       Coordinates (Angstroms)
     ATOM                X               Y               Z
      1  Br        4.5164390000    0.0333750000    0.0172010000
      2  C        -0.9283190000    0.4733460000    0.0071800000
      3  C         0.1556780000   -0.5527760000    0.0033650000
      4  C        -2.3489670000   -0.1404690000   -0.0084480000
      5  H        -0.8345720000    1.1130880000    0.8941670000
      6  H        -0.8240660000    1.1306210000   -0.8659770000
      7  H         0.4844000000   -1.0088940000   -0.9257490000
      8  H         0.4951370000   -1.0062780000    0.9298760000
      9  H        -3.1133550000    0.6444660000   -0.0048230000
     10  H        -2.4992040000   -0.7572200000   -0.9002610000
     11  H        -2.5103820000   -0.7766580000    0.8675680000
   Point Group: c1    Number of degrees of freedom:    27


   Energy is  -2692.321435817

              Constraints and their Current Values
                                        Value     Constraint
   Distance(Angs):        1   3             4.400000     4.300000

 Attempting to Generate Delocalized Internal Coordinates

   Using Lagrange Multiplier Algorithm


 28 Hessian modes will be used to form the next step
  Hessian Eigenvalues:
    -0.997238    0.045000    0.045000    0.048375    0.050874    0.067948
     0.078178    0.082995    0.083064    0.083344    0.086290    0.088857
     0.104298    0.132548    0.160000    0.160000    0.160000    0.219512
     0.278509    0.327444    0.331613    0.339206    0.339449    0.341690
     0.342795    0.342840    0.342952    1.002770

 Minimum Search - Taking P-RFO Step
 Searching for Lamda that Maximizes Along the Constraint modes Only
 Value Taken    Lamda =   0.01760383
 Searching for Lamda that Minimizes Along All other modes
 Value Taken    Lamda =  -0.01749182
 Step Taken.  Stepsize is  0.185727

                             Maximum     Tolerance    Cnvgd?
         Gradient            0.188973       0.000300      NO
         Displacement        0.185714       0.001200      NO
         Energy change     *********       0.000001      NO


 New Cartesian Coordinates Obtained by Inverse Iteration

 Displacement from previous Coordinates is:  0.237875
 ----------------------------------------------------------------
             Standard Nuclear Orientation (Angstroms)
    I     Atom           X                Y                Z
 ----------------------------------------------------------------
    1      Br      4.4197936486     0.0735995617     0.0170825800
    2      C      -0.9082062199     0.4659696447     0.0072287166
    3      C       0.1664672996    -0.5697211389     0.0033846239
    4      C      -2.3343691190    -0.1349288625    -0.0083593030
    5      H      -0.8086121607     1.1047982093     0.8942358838
    6      H      -0.7980018306     1.1222399912    -0.8659526821
    7      H       0.4642620144    -1.0246546848    -0.9328545201
    8      H       0.4747464292    -1.0217023038     0.9365519248
    9      H      -3.0916042808     0.6569077997    -0.0047296159
   10      H      -2.4901852116    -0.7502990713    -0.9001628014
   11      H      -2.5015015690    -0.7696081453     0.8676741933
 ----------------------------------------------------------------
 Nuclear Repulsion Energy =   162.1006451599 hartrees
 There are       31 alpha and       29 beta electrons

                       Distance Matrix (Angstroms)
             Br(  1)   C (  2)   C (  3)   C (  4)   H (  5)   H (  6)
   C (  2)  5.342437
   C (  3)  4.301725  1.492512
   C (  4)  6.757429  1.547664  2.538378
   H (  5)  5.400833  1.097635  2.132700  2.163223
   H (  6)  5.394885  1.097853  2.132764  2.162490  1.760307
   H (  7)  4.213641  2.233693  1.082677  3.078740  3.081077  2.491374
   H (  8)  4.196249  2.233689  1.081723  3.093599  2.484110  3.076589
   H (  9)  7.534044  2.191764  3.481338  1.095638  2.494153  2.493763
   H ( 10)  7.019114  2.192105  2.811905  1.094656  3.080412  2.524095
   H ( 11)  7.024161  2.192170  2.811585  1.094617  2.525862  3.080010
             H (  7)   H (  8)   H (  9)   H ( 10)
   H (  8)  1.869438
   H (  9)  4.041442  4.052481
   H ( 10)  2.967339  3.498285  1.773059
   H ( 11)  3.478894  2.987699  1.773205  1.767979
 
 Applying Cartesian multipole field
    Component          Value
    ---------          -----
     (2,0,0)        1.00000E-11
     (0,2,0)        2.00000E-10
     (0,0,2)       -3.00000E-10
 Nucleus-field energy     =     0.0000000283 hartrees
 Requested basis set is 6-31G(d,p)
 There are 41 shells and 115 basis functions
 A cutoff of  1.0D-14 yielded    731 shell pairs
 There are      5384 function pairs
 Smallest overlap matrix eigenvalue = 7.27E-04
 Guess from superposition of atomic densities
 Warning:  Energy on first SCF cycle will be non-variational
 SAD guess density has 59.972873 electrons

 -----------------------------------------------------------------------
  General SCF calculation program by
  Eric Jon Sundstrom, Paul Horn, Yuezhi Mao, Dmitri Zuev, Alec White,
  David Stuck, Shaama M.S., Shane Yost, Joonho Lee, David Small,
  Daniel Levine, Susi Lehtola, Hugh Burton, Evgeny Epifanovsky
 -----------------------------------------------------------------------
 Exchange:     0.2000 Hartree-Fock + 0.0800 Slater + 0.7200 B88
 Correlation:  0.1900 VWN1RPA + 0.8100 LYP
 Using SG-1 standard quadrature grid
 using 12 threads for integral computing
 -------------------------------------------------------
 OpenMP Integral computing Module                
 Release: version 1.0, May 2013, Q-Chem Inc. Pittsburgh 
 -------------------------------------------------------
 -------------------------------------------------------
 OpenMP BLAS3 based DFT computing Module                
 Release: version 1.0, May 2013, Q-Chem Inc. Pittsburgh 
 -------------------------------------------------------
 A unrestricted SCF calculation will be
 performed using DIIS
 SCF converges when DIIS error is below 1.0e-06
 Alpha HF Exchange    Energy = -10.71151444564666
 Beta HF Exchange     Energy = -10.71151444564666
 DFT Correlation      Energy =  -3.10453654370518
 DFT Exchange         Energy = -84.97374301317569
 One-Electron (alpha) Energy = -2028.73101106488571
 One-Electron (beta)  Energy = -2028.73101106488571
 Total Coulomb        Energy = 1309.34288684086323
 ---------------------------------------
  Cycle       Energy         DIIS error
 ---------------------------------------
    1   -2695.5197985488      1.64e-01  
 Alpha HF Exchange    Energy = -10.89609818214321
 Beta HF Exchange     Energy = -10.70146776093264
 DFT Correlation      Energy =  -3.13680029752232
 DFT Exchange         Energy = -85.89861438755267
 One-Electron (alpha) Energy = -2051.45335282961196
 One-Electron (beta)  Energy = -2016.68472278100307
 Total Coulomb        Energy = 1324.45368055893368
    2   -2692.2167304916      9.50e-03  
 Alpha HF Exchange    Energy = -10.79862106381320
 Beta HF Exchange     Energy = -10.61434075980816
 DFT Correlation      Energy =  -3.10197123305242
 DFT Exchange         Energy = -85.14589570233227
 One-Electron (alpha) Energy = -2043.97195201231534
 One-Electron (beta)  Energy = -2009.70614824425434
 Total Coulomb        Energy = 1309.02034889916899
    3   -2692.2179349282      4.12e-03  
 Alpha HF Exchange    Energy = -10.87305890339615
 Beta HF Exchange     Energy = -10.68054686991314
 DFT Correlation      Energy =  -3.12815675681221
 DFT Exchange         Energy = -85.71455913551252
 One-Electron (alpha) Energy = -2049.59723085234509
 One-Electron (beta)  Energy = -2014.73541322347114
 Total Coulomb        Energy = 1320.35001846977457
    4   -2692.2783020834      2.63e-03  
 Alpha HF Exchange    Energy = -10.84931623169850
 Beta HF Exchange     Energy = -10.65824306785958
 DFT Correlation      Energy =  -3.11870181687111
 DFT Exchange         Energy = -85.52636818400512
 One-Electron (alpha) Energy = -2047.95603414765947
 One-Electron (beta)  Energy = -2013.17686880061956
 Total Coulomb        Energy = 1316.86422007443639
    5   -2692.3206669860      3.14e-04  
 Alpha HF Exchange    Energy = -10.84719926299860
 Beta HF Exchange     Energy = -10.65681761407801
 DFT Correlation      Energy =  -3.11845421407234
 DFT Exchange         Energy = -85.51284386917629
 One-Electron (alpha) Energy = -2047.75758359843121
 One-Electron (beta)  Energy = -2013.00229986835802
 Total Coulomb        Energy = 1316.47343624907921
    6   -2692.3211169898      5.52e-05  
 Alpha HF Exchange    Energy = -10.84710635794639
 Beta HF Exchange     Energy = -10.65656382669596
 DFT Correlation      Energy =  -3.11832292230685
 DFT Exchange         Energy = -85.51134958447513
 One-Electron (alpha) Energy = -2047.74449176028588
 One-Electron (beta)  Energy = -2012.98236610168306
 Total Coulomb        Energy = 1316.43841648895932
    7   -2692.3211388762      1.68e-05  
 Alpha HF Exchange    Energy = -10.84717502035955
 Beta HF Exchange     Energy = -10.65662848295552
 DFT Correlation      Energy =  -3.11830325013290
 DFT Exchange         Energy = -85.51181273576367
 One-Electron (alpha) Energy = -2047.75423712960264
 One-Electron (beta)  Energy = -2012.98772060089709
 Total Coulomb        Energy = 1316.45408979820490
    8   -2692.3211422333      7.43e-06  
 Alpha HF Exchange    Energy = -10.84722094802128
 Beta HF Exchange     Energy = -10.65663268133485
 DFT Correlation      Energy =  -3.11831063826819
 DFT Exchange         Energy = -85.51201431479593
 One-Electron (alpha) Energy = -2047.75651655907768
 One-Electron (beta)  Energy = -2012.98716570990177
 Total Coulomb        Energy = 1316.45607120743875
    9   -2692.3211444557      3.79e-06  
 Alpha HF Exchange    Energy = -10.84722108413192
 Beta HF Exchange     Energy = -10.65662627506267
 DFT Correlation      Energy =  -3.11830513511118
 DFT Exchange         Energy = -85.51198416640787
 One-Electron (alpha) Energy = -2047.75617152617360
 One-Electron (beta)  Energy = -2012.98602394269415
 Total Coulomb        Energy = 1316.45454032576026
   10   -2692.3211466156      3.48e-06  
 Alpha HF Exchange    Energy = -10.84722102271272
 Beta HF Exchange     Energy = -10.65662529069277
 DFT Correlation      Energy =  -3.11830411444327
 DFT Exchange         Energy = -85.51197969931528
 One-Electron (alpha) Energy = -2047.75621728657666
 One-Electron (beta)  Energy = -2012.98584912635056
 Total Coulomb        Energy = 1316.45440332466728
   11   -2692.3211480272      3.39e-06  
 Alpha HF Exchange    Energy = -10.84722080789386
 Beta HF Exchange     Energy = -10.65662458498389
 DFT Correlation      Energy =  -3.11830347198240
 DFT Exchange         Energy = -85.51197647129401
 One-Electron (alpha) Energy = -2047.75619852801219
 One-Electron (beta)  Energy = -2012.98556650328533
 Total Coulomb        Energy = 1316.45409497013520
   12   -2692.3211502091      3.37e-06  
 Alpha HF Exchange    Energy = -10.84722086715445
 Beta HF Exchange     Energy = -10.65662590784468
 DFT Correlation      Energy =  -3.11830119559715
 DFT Exchange         Energy = -85.51198261921959
 One-Electron (alpha) Energy = -2047.75632636128535
 One-Electron (beta)  Energy = -2012.98460197697273
 Total Coulomb        Energy = 1316.45325382462579
   13   -2692.3211599152      3.31e-06  
 Alpha HF Exchange    Energy = -10.84721843285068
 Beta HF Exchange     Energy = -10.65663142589352
 DFT Correlation      Energy =  -3.11829509465407
 DFT Exchange         Energy = -85.51199400641289
 One-Electron (alpha) Energy = -2047.75627123121808
 One-Electron (beta)  Energy = -2012.98252989216257
 Total Coulomb        Energy = 1316.45111290299360
   14   -2692.3211819920      3.60e-06  
 Alpha HF Exchange    Energy = -10.84721780564529
 Beta HF Exchange     Energy = -10.65663579002831
 DFT Correlation      Energy =  -3.11829323119237
 DFT Exchange         Energy = -85.51200789206506
 One-Electron (alpha) Energy = -2047.75623864388081
 One-Electron (beta)  Energy = -2012.98229622079793
 Total Coulomb        Energy = 1316.45085653237243
   15   -2692.3211878630      4.34e-06  
 Alpha HF Exchange    Energy = -10.84720286482262
 Beta HF Exchange     Energy = -10.65678407379132
 DFT Correlation      Energy =  -3.11825793253499
 DFT Exchange         Energy = -85.51249006707178
 One-Electron (alpha) Energy = -2047.75517004083417
 One-Electron (beta)  Energy = -2012.98861605511456
 Total Coulomb        Energy = 1316.45662586514595
   16   -2692.3212499808      4.54e-05  
 Alpha HF Exchange    Energy = -10.84719353435466
 Beta HF Exchange     Energy = -10.65686633333776
 DFT Correlation      Energy =  -3.11824491998202
 DFT Exchange         Energy = -85.51275298959405
 One-Electron (alpha) Energy = -2047.75407627147592
 One-Electron (beta)  Energy = -2012.99546675508486
 Total Coulomb        Energy = 1316.46271434487130
   17   -2692.3212412707      6.90e-05  
 Alpha HF Exchange    Energy = -10.84719247085901
 Beta HF Exchange     Energy = -10.65687645760256
 DFT Correlation      Energy =  -3.11824389105718
 DFT Exchange         Energy = -85.51278623694581
 One-Electron (alpha) Energy = -2047.75391827117301
 One-Electron (beta)  Energy = -2012.99660746414270
 Total Coulomb        Energy = 1316.46374206993164
   18   -2692.3212375336      7.20e-05  
 Alpha HF Exchange    Energy = -10.84719405574867
 Beta HF Exchange     Energy = -10.65686343287562
 DFT Correlation      Energy =  -3.11824169063036
 DFT Exchange         Energy = -85.51274019595232
 One-Electron (alpha) Energy = -2047.75445896683823
 One-Electron (beta)  Energy = -2012.99324447217487
 Total Coulomb        Energy = 1316.46084275217072
   19   -2692.3212548738      6.79e-05  
 Alpha HF Exchange    Energy = -10.84717868801112
 Beta HF Exchange     Energy = -10.65697102351204
 DFT Correlation      Energy =  -3.11822402718758
 DFT Exchange         Energy = -85.51306711387952
 One-Electron (alpha) Energy = -2047.75282985873878
 One-Electron (beta)  Energy = -2013.00211758752948
 Total Coulomb        Energy = 1316.46851880927420
   20   -2692.3212243013      9.95e-05  
 Alpha HF Exchange    Energy = -10.84717906360757
 Beta HF Exchange     Energy = -10.65695278761228
 DFT Correlation      Energy =  -3.11822554564099
 DFT Exchange         Energy = -85.51300127445154
 One-Electron (alpha) Energy = -2047.75301110217424
 One-Electron (beta)  Energy = -2013.00028623839535
 Total Coulomb        Energy = 1316.46677821009030
   21   -2692.3212326136      9.45e-05  
 Alpha HF Exchange    Energy = -10.84718477780257
 Beta HF Exchange     Energy = -10.65691699489430
 DFT Correlation      Energy =  -3.11822941539073
 DFT Exchange         Energy = -85.51289126201202
 One-Electron (alpha) Energy = -2047.75375086357212
 One-Electron (beta)  Energy = -2012.99620987836533
 Total Coulomb        Energy = 1316.46328686093602
   22   -2692.3212511429      8.36e-05  
 Alpha HF Exchange    Energy = -10.84718609823063
 Beta HF Exchange     Energy = -10.65691700774244
 DFT Correlation      Energy =  -3.11822919499122
 DFT Exchange         Energy = -85.51289415030875
 One-Electron (alpha) Energy = -2047.75408642478487
 One-Electron (beta)  Energy = -2012.99532266938922
 Total Coulomb        Energy = 1316.46273352050002
   23   -2692.3212568367      8.27e-05  
 Alpha HF Exchange    Energy = -10.84718811671537
 Beta HF Exchange     Energy = -10.65687044465453
 DFT Correlation      Energy =  -3.11823192129098
 DFT Exchange         Energy = -85.51272571312418
 One-Electron (alpha) Energy = -2047.75463750034532
 One-Electron (beta)  Energy = -2012.98930575635313
 Total Coulomb        Energy = 1316.45703433843073
   24   -2692.3212799258      6.92e-05  
 Alpha HF Exchange    Energy = -10.84719115367277
 Beta HF Exchange     Energy = -10.65681593295022
 DFT Correlation      Energy =  -3.11823567666998
 DFT Exchange         Energy = -85.51253356365454
 One-Electron (alpha) Energy = -2047.75532404038586
 One-Electron (beta)  Energy = -2012.98275573847536
 Total Coulomb        Energy = 1316.45091073567642
   25   -2692.3213001819      5.31e-05  
 Alpha HF Exchange    Energy = -10.84720163637473
 Beta HF Exchange     Energy = -10.65673320725334
 DFT Correlation      Energy =  -3.11824246809233
 DFT Exchange         Energy = -85.51226522477475
 One-Electron (alpha) Energy = -2047.75691022756223
 One-Electron (beta)  Energy = -2012.97274417698804
 Total Coulomb        Energy = 1316.44213016854246
   26   -2692.3213215843      2.81e-05  
 Alpha HF Exchange    Energy = -10.84720996074029
 Beta HF Exchange     Energy = -10.65664992640306
 DFT Correlation      Energy =  -3.11824830013761
 DFT Exchange         Energy = -85.51198628118088
 One-Electron (alpha) Energy = -2047.75821495434866
 One-Electron (beta)  Energy = -2012.96281943116742
 Total Coulomb        Energy = 1316.43315385996107
   27   -2692.3213298058      3.72e-06  
 Alpha HF Exchange    Energy = -10.84721199131060
 Beta HF Exchange     Energy = -10.65663371790994
 DFT Correlation      Energy =  -3.11824926933795
 DFT Exchange         Energy = -85.51193331338565
 One-Electron (alpha) Energy = -2047.75853396617072
 One-Electron (beta)  Energy = -2012.96089619348390
 Total Coulomb        Energy = 1316.43148330204485
   28   -2692.3213299613      8.54e-07  Convergence criterion met
 ---------------------------------------
 SCF time:   CPU 68.25s  wall 5.00s 
<S^2> =          2.005170085
 Alpha HF Exchange    Energy = -10.84721199131060
 Beta HF Exchange     Energy = -10.65663371790994
 DFT Correlation      Energy =  -3.11824926933795
 DFT Exchange         Energy = -85.51193331338565
 One-Electron (alpha) Energy = -2047.75853396617072
 One-Electron (beta)  Energy = -2012.96089619348390
 Total Coulomb        Energy = 1316.43148330204485
 Nuclear repulsion Energy = 162.10064518824120
 SCF   energy in the final basis set =    -2692.3213299613
 Total energy in the final basis set =    -2692.3213299613
 
 --------------------------------------------------------------
 
                    Orbital Energies (a.u.)
 --------------------------------------------------------------
 
 Alpha MOs
 -- Occupied --
******* -62.554 -56.379 -56.371 -56.371 -10.188 -10.186 -10.178
 -8.742  -6.578  -6.556  -6.556  -2.669  -2.664  -2.664  -2.647
 -2.647  -0.794  -0.781  -0.674  -0.580  -0.465  -0.427  -0.396
 -0.379  -0.368  -0.349  -0.334  -0.320  -0.320  -0.202
 -- Virtual --
  0.101   0.136   0.142   0.157   0.168   0.179   0.180   0.218
  0.229   0.268   0.291   0.314   0.315   0.513   0.529   0.534
  0.536   0.547   0.547   0.549   0.584   0.584   0.596   0.616
  0.656   0.699   0.782   0.810   0.857   0.878   0.881   0.910
  0.935   0.958   1.001   1.215   1.306   1.420   1.475   1.536
  1.600   1.681   1.683   1.821   1.877   1.939   1.973   2.008
  2.051   2.070   2.115   2.124   2.230   2.257   2.291   2.368
  2.439   2.449   2.515   2.584   2.677   2.719   2.741   2.798
  2.843   2.882   2.915   3.184   3.261   3.373   3.377   3.466
  3.476   3.549   4.240   4.429   4.603   4.651   4.659   4.659
  4.684   4.684   6.210  90.129
 
 Beta MOs
 -- Occupied --
******* -62.553 -56.373 -56.370 -56.370 -10.187 -10.176 -10.175
 -8.738  -6.567  -6.554  -6.554  -2.661  -2.658  -2.658  -2.646
 -2.646  -0.770  -0.751  -0.656  -0.567  -0.460  -0.421  -0.390
 -0.367  -0.344  -0.332  -0.306  -0.306
 -- Virtual --
 -0.232  -0.044   0.105   0.144   0.148   0.158   0.174   0.180
  0.187   0.222   0.234   0.277   0.318   0.319   0.321   0.517
  0.535   0.546   0.564   0.591   0.591   0.593   0.593   0.596
  0.599   0.650   0.667   0.719   0.786   0.817   0.860   0.880
  0.884   0.917   0.941   0.970   1.003   1.225   1.316   1.450
  1.480   1.550   1.621   1.682   1.702   1.830   1.881   1.943
  2.000   2.045   2.052   2.071   2.116   2.132   2.231   2.268
  2.292   2.375   2.444   2.461   2.524   2.608   2.683   2.721
  2.745   2.801   2.845   2.884   2.918   3.185   3.265   3.376
  3.381   3.469   3.482   3.552   4.259   4.445   4.606   4.670
  4.673   4.674   4.687   4.687   6.226  90.135
 --------------------------------------------------------------
 
          Ground-State Mulliken Net Atomic Charges

     Atom                 Charge (a.u.)    Spin (a.u.)
  --------------------------------------------------------
      1 Br                   -0.003414       1.001924
      2 C                    -0.190614      -0.072916
      3 C                    -0.226061       1.076187
      4 C                    -0.307087       0.050305
      5 H                     0.102723       0.012073
      6 H                     0.103003       0.013528
      7 H                     0.103699      -0.046805
      8 H                     0.104068      -0.046822
      9 H                     0.102127       0.013682
     10 H                     0.105715      -0.000632
     11 H                     0.105840      -0.000524
  --------------------------------------------------------
  Sum of atomic charges =     0.000000
  Sum of spin   charges =     2.000000

 -----------------------------------------------------------------
                    Cartesian Multipole Moments
 -----------------------------------------------------------------
    Charge (ESU x 10^10)
                 0.0000
    Dipole Moment (Debye)
         X      -0.3840      Y       0.0235      Z       0.0015
       Tot       0.3847
    Quadrupole Moments (Debye-Ang)
        XX     -37.6634     XY      -0.2441     YY     -39.6721
        XZ       0.0289     YZ       0.0021     ZZ     -38.7649
    Octopole Moments (Debye-Ang^2)
       XXX    -148.0199    XXY       3.6673    XYY     -60.8811
       YYY       2.0273    XXZ      -0.0242    XYZ       0.0143
       YYZ      -0.3308    XZZ     -61.0833    YZZ      -0.3591
       ZZZ      -0.9813
    Hexadecapole Moments (Debye-Ang^3)
      XXXX   -2244.1308   XXXY       2.7206   XXYY    -439.5302
      XYYY     -13.8005   YYYY     -92.5811   XXXZ      -2.4441
      XXYZ       0.0344   XYYZ      -1.5565   YYYZ      -0.1886
      XXZZ    -436.9867   XYZZ      -3.9022   YYZZ     -24.1799
      XZZZ      -4.5759   YZZZ      -0.1132   ZZZZ     -64.3527
 -----------------------------------------------------------------
 Calculating analytic gradient of the SCF energy
 Gradient of SCF Energy
            1           2           3           4           5           6
    1   0.0002641   0.0003120   0.0041030  -0.0000711   0.0000970   0.0001061
    2   0.0001592  -0.0008810  -0.0047420  -0.0000116  -0.0000927  -0.0000881
    3   0.0000147   0.0000198   0.0004871  -0.0000034  -0.0000124   0.0000179
            7           8           9          10          11
    1  -0.0023553  -0.0025315   0.0000001   0.0000373   0.0000383
    2   0.0026740   0.0029455   0.0000126   0.0000163   0.0000078
    3   0.0002201  -0.0007317  -0.0000002   0.0000183  -0.0000302
 Max gradient component =       4.742E-03
 RMS gradient           =       1.445E-03
 Gradient time:  CPU 9.16 s  wall 0.81 s
 Geometry Optimization Parameters
   NAtoms,    NIC,     NZ,  NCons,   NDum,   NFix, NCnnct, MaxDiis
       11      85       0       1       0       0       0       0

 Cartesian Hessian Update
 Hessian Updated using BFGS Update


** CONSTRAINED OPTIMIZATION IN DELOCALIZED INTERNAL COORDINATES **
   Searching for a Minimum

   Optimization Cycle:   2

                       Coordinates (Angstroms)
     ATOM                X               Y               Z
      1  Br        4.4197936486    0.0735995617    0.0170825800
      2  C        -0.9082062199    0.4659696447    0.0072287166
      3  C         0.1664672996   -0.5697211389    0.0033846239
      4  C        -2.3343691190   -0.1349288625   -0.0083593030
      5  H        -0.8086121607    1.1047982093    0.8942358838
      6  H        -0.7980018306    1.1222399912   -0.8659526821
      7  H         0.4642620144   -1.0246546848   -0.9328545201
      8  H         0.4747464292   -1.0217023038    0.9365519248
      9  H        -3.0916042808    0.6569077997   -0.0047296159
     10  H        -2.4901852116   -0.7502990713   -0.9001628014
     11  H        -2.5015015690   -0.7696081453    0.8676741933
   Point Group: c1    Number of degrees of freedom:    27


   Energy is  -2692.321329961

              Constraints and their Current Values
                                        Value     Constraint
   Distance(Angs):        1   3             4.301725     4.300000
 Hessian Updated using BFGS Update

   Using Lagrange Multiplier Algorithm


 27 Hessian modes will be used to form the next step
  Hessian Eigenvalues:
    -0.996083    0.045000    0.045000    0.048369    0.050874    0.067948
     0.078178    0.082995    0.083064    0.086272    0.088556    0.103357
     0.107701    0.132548    0.160000    0.160022    0.219925    0.278512
     0.327608    0.332616    0.339207    0.339450    0.341690    0.342795
     0.342840    0.390489    1.004586

 Minimum Search - Taking P-RFO Step
 Searching for Lamda that Maximizes Along the Constraint modes Only
 Value Taken    Lamda =   0.00000691
 Searching for Lamda that Minimizes Along All other modes
 Value Taken    Lamda =  -0.00009776
 Step Taken.  Stepsize is  0.025307

                             Maximum     Tolerance    Cnvgd?
         Gradient            0.003259       0.000300      NO
         Displacement        0.017276       0.001200      NO
         Energy change      0.000106       0.000001      NO


 New Cartesian Coordinates Obtained by Inverse Iteration

 Displacement from previous Coordinates is:  0.017234
 ----------------------------------------------------------------
             Standard Nuclear Orientation (Angstroms)
    I     Atom           X                Y                Z
 ----------------------------------------------------------------
    1      Br      4.4179500981     0.0738485768     0.0169517933
    2      C      -0.9089757558     0.4675982513     0.0072125800
    3      C       0.1663092761    -0.5690872886     0.0033629733
    4      C      -2.3347918430    -0.1342376018    -0.0083998458
    5      H      -0.8100924959     1.1066450937     0.8942155592
    6      H      -0.7994937811     1.1241204242    -0.8659428838
    7      H       0.4678918379    -1.0285182821    -0.9318263646
    8      H       0.4785689326    -1.0259595560     0.9358906191
    9      H      -3.0926103896     0.6570118435    -0.0047913128
   10      H      -2.4903063118    -0.7497564820    -0.9002032709
   11      H      -2.5016605676    -0.7690639790     0.8676291530
 ----------------------------------------------------------------
 Nuclear Repulsion Energy =   162.0884724290 hartrees
 There are       31 alpha and       29 beta electrons

                       Distance Matrix (Angstroms)
             Br(  1)   C (  2)   C (  3)   C (  4)   H (  5)   H (  6)
   C (  2)  5.341467
   C (  3)  4.300000  1.493643
   C (  4)  6.755995  1.547709  2.538649
   H (  5)  5.400805  1.097694  2.134258  2.163149
   H (  6)  5.394840  1.097911  2.134343  2.162403  1.760277
   H (  7)  4.209317  2.239626  1.084716  3.083422  3.086518  2.498892
   H (  8)  4.191986  2.240187  1.084364  3.098685  2.492065  3.082676
   H (  9)  7.533198  2.191867  3.481945  1.095617  2.494047  2.493623
   H ( 10)  7.017372  2.192251  2.811882  1.094697  3.080468  2.524170
   H ( 11)  7.022476  2.192326  2.811585  1.094658  2.525944  3.080063
             H (  7)   H (  8)   H (  9)   H ( 10)
   H (  8)  1.867749
   H (  9)  4.046923  4.058398
   H ( 10)  2.971472  3.501678  1.773000
   H ( 11)  3.481896  2.992060  1.773142  1.767974
 
 Applying Cartesian multipole field
    Component          Value
    ---------          -----
     (2,0,0)        1.00000E-11
     (0,2,0)        2.00000E-10
     (0,0,2)       -3.00000E-10
 Nucleus-field energy     =     0.0000000283 hartrees
 Requested basis set is 6-31G(d,p)
 There are 41 shells and 115 basis functions
 A cutoff of  1.0D-14 yielded    731 shell pairs
 There are      5384 function pairs
 Smallest overlap matrix eigenvalue = 7.27E-04
 Guess from superposition of atomic densities
 Warning:  Energy on first SCF cycle will be non-variational
 SAD guess density has 59.972873 electrons

 -----------------------------------------------------------------------
  General SCF calculation program by
  Eric Jon Sundstrom, Paul Horn, Yuezhi Mao, Dmitri Zuev, Alec White,
  David Stuck, Shaama M.S., Shane Yost, Joonho Lee, David Small,
  Daniel Levine, Susi Lehtola, Hugh Burton, Evgeny Epifanovsky
 -----------------------------------------------------------------------
 Exchange:     0.2000 Hartree-Fock + 0.0800 Slater + 0.7200 B88
 Correlation:  0.1900 VWN1RPA + 0.8100 LYP
 Using SG-1 standard quadrature grid
 using 12 threads for integral computing
 -------------------------------------------------------
 OpenMP Integral computing Module                
 Release: version 1.0, May 2013, Q-Chem Inc. Pittsburgh 
 -------------------------------------------------------
 -------------------------------------------------------
 OpenMP BLAS3 based DFT computing Module                
 Release: version 1.0, May 2013, Q-Chem Inc. Pittsburgh 
 -------------------------------------------------------
 A unrestricted SCF calculation will be
 performed using DIIS
 SCF converges when DIIS error is below 1.0e-06
 Alpha HF Exchange    Energy = -10.71107659898103
 Beta HF Exchange     Energy = -10.71107659898103
 DFT Correlation      Energy =  -3.10443755258517
 DFT Exchange         Energy = -84.97282324637317
 One-Electron (alpha) Energy = -2028.72194220251185
 One-Electron (beta)  Energy = -2028.72194220251185
 Total Coulomb        Energy = 1309.33821711921519
 ---------------------------------------
  Cycle       Energy         DIIS error
 ---------------------------------------
    1   -2695.5166088254      1.64e-01  
 Alpha HF Exchange    Energy = -10.89575785388179
 Beta HF Exchange     Energy = -10.70118808475020
 DFT Correlation      Energy =  -3.13665237883042
 DFT Exchange         Energy = -85.89632071761558
 One-Electron (alpha) Energy = -2051.43887713316553
 One-Electron (beta)  Energy = -2016.67127532213954
 Total Coulomb        Energy = 1324.43454523278797
    2   -2692.2170538002      9.50e-03  
 Alpha HF Exchange    Energy = -10.79842999407949
 Beta HF Exchange     Energy = -10.61414899819714
 DFT Correlation      Energy =  -3.10186091020615
 DFT Exchange         Energy = -85.14453273576110
 One-Electron (alpha) Energy = -2043.96396045300139
 One-Electron (beta)  Energy = -2009.69697973572897
 Total Coulomb        Energy = 1309.01327459723711
    3   -2692.2181657724      4.12e-03  
 Alpha HF Exchange    Energy = -10.87281695792750
 Beta HF Exchange     Energy = -10.68031896266995
 DFT Correlation      Energy =  -3.12803904839686
 DFT Exchange         Energy = -85.71288463668682
 One-Electron (alpha) Energy = -2049.58776184529279
 One-Electron (beta)  Energy = -2014.72554290571861
 Total Coulomb        Energy = 1320.34059363449933
    4   -2692.2782982648      2.63e-03  
 Alpha HF Exchange    Energy = -10.84906581443429
 Beta HF Exchange     Energy = -10.65800879209236
 DFT Correlation      Energy =  -3.11857466709493
 DFT Exchange         Energy = -85.52461818339947
 One-Electron (alpha) Energy = -2047.94568974105141
 One-Electron (beta)  Energy = -2013.16603052274718
 Total Coulomb        Energy = 1316.85277861611416
    5   -2692.3207366474      3.13e-04  
 Alpha HF Exchange    Energy = -10.84694961277165
 Beta HF Exchange     Energy = -10.65657767859058
 DFT Correlation      Energy =  -3.11832791603864
 DFT Exchange         Energy = -85.51107783749245
 One-Electron (alpha) Energy = -2047.74687399504751
 One-Electron (beta)  Energy = -2012.99101304171450
 Total Coulomb        Energy = 1316.46116546728035
    6   -2692.3211821570      5.52e-05  
 Alpha HF Exchange    Energy = -10.84685906444383
 Beta HF Exchange     Energy = -10.65632501597528
 DFT Correlation      Energy =  -3.11819673163445
 DFT Exchange         Energy = -85.50959688017511
 One-Electron (alpha) Energy = -2047.73398151731999
 One-Electron (beta)  Energy = -2012.97120041159815
 Total Coulomb        Energy = 1316.42648310472941
    7   -2692.3212040591      1.68e-05  
 Alpha HF Exchange    Energy = -10.84692730445018
 Beta HF Exchange     Energy = -10.65638916961407
 DFT Correlation      Energy =  -3.11817677088426
 DFT Exchange         Energy = -85.51005625811787
 One-Electron (alpha) Energy = -2047.74370396341965
 One-Electron (beta)  Energy = -2012.97650671768270
 Total Coulomb        Energy = 1316.44208026766978
    8   -2692.3212074591      7.47e-06  
 Alpha HF Exchange    Energy = -10.84697384462953
 Beta HF Exchange     Energy = -10.65639338600297
 DFT Correlation      Energy =  -3.11818419069905
 DFT Exchange         Energy = -85.51026036336401
 One-Electron (alpha) Energy = -2047.74602102840981
 One-Electron (beta)  Energy = -2012.97595190035031
 Total Coulomb        Energy = 1316.44410253052843
    9   -2692.3212097256      3.82e-06  
 Alpha HF Exchange    Energy = -10.84697396389438
 Beta HF Exchange     Energy = -10.65638684460578
 DFT Correlation      Energy =  -3.11817860652873
 DFT Exchange         Energy = -85.51022957501786
 One-Electron (alpha) Energy = -2047.74567426876479
 One-Electron (beta)  Energy = -2012.97479308753009
 Total Coulomb        Energy = 1316.44255195656456
   10   -2692.3212119324      3.51e-06  
 Alpha HF Exchange    Energy = -10.84697392518089
 Beta HF Exchange     Energy = -10.65638584643287
 DFT Correlation      Energy =  -3.11817759169865
 DFT Exchange         Energy = -85.51022517254549
 One-Electron (alpha) Energy = -2047.74572121904635
 One-Electron (beta)  Energy = -2012.97461456478209
 Total Coulomb        Energy = 1316.44241248822004
   11   -2692.3212133741      3.42e-06  
 Alpha HF Exchange    Energy = -10.84697371998007
 Beta HF Exchange     Energy = -10.65638514306899
 DFT Correlation      Energy =  -3.11817694007247
 DFT Exchange         Energy = -85.51022198742464
 One-Electron (alpha) Energy = -2047.74570415494691
 One-Electron (beta)  Energy = -2012.97432941405395
 Total Coulomb        Energy = 1316.44210331798763
   12   -2692.3212155842      3.40e-06  
 Alpha HF Exchange    Energy = -10.84697378578776
 Beta HF Exchange     Energy = -10.65638639783211
 DFT Correlation      Energy =  -3.11817466136667
 DFT Exchange         Energy = -85.51022790344066
 One-Electron (alpha) Energy = -2047.74583128518816
 One-Electron (beta)  Energy = -2012.97336333861790
 Total Coulomb        Energy = 1316.44125964335626
   13   -2692.3212252715      3.35e-06  
 Alpha HF Exchange    Energy = -10.84697143191911
 Beta HF Exchange     Energy = -10.65639173602028
 DFT Correlation      Energy =  -3.11816854754614
 DFT Exchange         Energy = -85.51023896956616
 One-Electron (alpha) Energy = -2047.74578498830056
 One-Electron (beta)  Energy = -2012.97127529621616
 Total Coulomb        Energy = 1316.43911108508360
   14   -2692.3212474271      3.62e-06  
 Alpha HF Exchange    Energy = -10.84697088498194
 Beta HF Exchange     Energy = -10.65639558232008
 DFT Correlation      Energy =  -3.11816685304389
 DFT Exchange         Energy = -85.51025124472272
 One-Electron (alpha) Energy = -2047.74575832707433
 One-Electron (beta)  Energy = -2012.97104916526064
 Total Coulomb        Energy = 1316.43886680118044
   15   -2692.3212527989      4.25e-06  
 Alpha HF Exchange    Energy = -10.84695481508876
 Beta HF Exchange     Energy = -10.65655603552724
 DFT Correlation      Energy =  -3.11812886880879
 DFT Exchange         Energy = -85.51077362412744
 One-Electron (alpha) Energy = -2047.74457409763227
 One-Electron (beta)  Energy = -2012.97812100866327
 Total Coulomb        Energy = 1316.44531868787431
   16   -2692.3213173046      4.88e-05  
 Alpha HF Exchange    Energy = -10.84694611530328
 Beta HF Exchange     Energy = -10.65663201461653
 DFT Correlation      Energy =  -3.11811684477024
 DFT Exchange         Energy = -85.51101623793410
 One-Electron (alpha) Energy = -2047.74354279707609
 One-Electron (beta)  Energy = -2012.98448847265945
 Total Coulomb        Energy = 1316.45096200639182
   17   -2692.3213080186      7.06e-05  
 Alpha HF Exchange    Energy = -10.84694470362012
 Beta HF Exchange     Energy = -10.65664501849801
 DFT Correlation      Energy =  -3.11811543413574
 DFT Exchange         Energy = -85.51105870061019
 One-Electron (alpha) Energy = -2047.74333665586892
 One-Electron (beta)  Energy = -2012.98591886627673
 Total Coulomb        Energy = 1316.45224365982540
   18   -2692.3213032618      7.44e-05  
 Alpha HF Exchange    Energy = -10.84694633011686
 Beta HF Exchange     Energy = -10.65663081214426
 DFT Correlation      Energy =  -3.11811337775095
 DFT Exchange         Energy = -85.51100854478945
 One-Electron (alpha) Energy = -2047.74388445376690
 One-Electron (beta)  Energy = -2012.98245028720135
 Total Coulomb        Energy = 1316.44924009452552
   19   -2692.3213212539      7.00e-05  
 Alpha HF Exchange    Energy = -10.84692839297865
 Beta HF Exchange     Energy = -10.65675882009798
 DFT Correlation      Energy =  -3.11809293488222
 DFT Exchange         Energy = -85.51140014619119
 One-Electron (alpha) Energy = -2047.74192267791659
 One-Electron (beta)  Energy = -2012.99333442654256
 Total Coulomb        Energy = 1316.45868547902296
   20   -2692.3212794622      1.08e-04  
 Alpha HF Exchange    Energy = -10.84692946394102
 Beta HF Exchange     Energy = -10.65673510201830
 DFT Correlation      Energy =  -3.11809505575257
 DFT Exchange         Energy = -85.51131675486087
 One-Electron (alpha) Energy = -2047.74221753507845
 One-Electron (beta)  Energy = -2012.99090819343996
 Total Coulomb        Energy = 1316.45643804207270
   21   -2692.3212916057      1.01e-04  
 Alpha HF Exchange    Energy = -10.84693599891221
 Beta HF Exchange     Energy = -10.65669392923087
 DFT Correlation      Energy =  -3.11809951367076
 DFT Exchange         Energy = -85.51118994550150
 One-Electron (alpha) Energy = -2047.74307611800532
 One-Electron (beta)  Energy = -2012.98620813040611
 Total Coulomb        Energy = 1316.45241681276093
   22   -2692.3213143656      8.86e-05  
 Alpha HF Exchange    Energy = -10.84693695842458
 Beta HF Exchange     Energy = -10.65669433092991
 DFT Correlation      Energy =  -3.11809918430587
 DFT Exchange         Energy = -85.51119284867917
 One-Electron (alpha) Energy = -2047.74336914626201
 One-Electron (beta)  Energy = -2012.98541509706570
 Total Coulomb        Energy = 1316.45191553798350
   23   -2692.3213195703      8.79e-05  
 Alpha HF Exchange    Energy = -10.84693941321359
 Beta HF Exchange     Energy = -10.65664460040732
 DFT Correlation      Energy =  -3.11810236067472
 DFT Exchange         Energy = -85.51101462013648
 One-Electron (alpha) Energy = -2047.74397871025576
 One-Electron (beta)  Energy = -2012.97909396269506
 Total Coulomb        Energy = 1316.44595601567335
   24   -2692.3213451944      7.35e-05  
 Alpha HF Exchange    Energy = -10.84694285436147
 Beta HF Exchange     Energy = -10.65658965082500
 DFT Correlation      Energy =  -3.11810636070609
 DFT Exchange         Energy = -85.51082249594833
 One-Electron (alpha) Energy = -2047.74471282463924
 One-Electron (beta)  Energy = -2012.97248492947847
 Total Coulomb        Energy = 1316.43981951368710
   25   -2692.3213671449      5.71e-05  
 Alpha HF Exchange    Energy = -10.84695380570607
 Beta HF Exchange     Energy = -10.65650270097137
 DFT Correlation      Energy =  -3.11811363289447
 DFT Exchange         Energy = -85.51054028045230
 One-Electron (alpha) Energy = -2047.74637178489388
 One-Electron (beta)  Energy = -2012.96197634595865
 Total Coulomb        Energy = 1316.43059462175711
   26   -2692.3213914718      3.07e-05  
 Alpha HF Exchange    Energy = -10.84696195669225
 Beta HF Exchange     Energy = -10.65641666908191
 DFT Correlation      Energy =  -3.11811965311855
 DFT Exchange         Energy = -85.51025037226742
 One-Electron (alpha) Energy = -2047.74767293737364
 One-Electron (beta)  Energy = -2012.95173820595664
 Total Coulomb        Energy = 1316.42128617628691
   27   -2692.3214011608      5.59e-06  
 Alpha HF Exchange    Energy = -10.84696456345778
 Beta HF Exchange     Energy = -10.65639563544436
 DFT Correlation      Energy =  -3.11812097802381
 DFT Exchange         Energy = -85.51018156516807
 One-Electron (alpha) Energy = -2047.74807951137905
 One-Electron (beta)  Energy = -2012.94923637056263
 Total Coulomb        Energy = 1316.41910464550460
   28   -2692.3214015212      3.84e-07  Convergence criterion met
 ---------------------------------------
 SCF time:   CPU 68.08s  wall 5.00s 
<S^2> =          2.005190867
 Alpha HF Exchange    Energy = -10.84696456345778
 Beta HF Exchange     Energy = -10.65639563544436
 DFT Correlation      Energy =  -3.11812097802381
 DFT Exchange         Energy = -85.51018156516807
 One-Electron (alpha) Energy = -2047.74807951137905
 One-Electron (beta)  Energy = -2012.94923637056263
 Total Coulomb        Energy = 1316.41910464550460
 Nuclear repulsion Energy = 162.08847245735464
 SCF   energy in the final basis set =    -2692.3214015212
 Total energy in the final basis set =    -2692.3214015212
 
 --------------------------------------------------------------
 
                    Orbital Energies (a.u.)
 --------------------------------------------------------------
 
 Alpha MOs
 -- Occupied --
******* -62.554 -56.379 -56.371 -56.371 -10.189 -10.187 -10.178
 -8.742  -6.578  -6.556  -6.556  -2.669  -2.664  -2.664  -2.647
 -2.647  -0.794  -0.781  -0.674  -0.580  -0.464  -0.427  -0.395
 -0.379  -0.368  -0.349  -0.334  -0.320  -0.320  -0.202
 -- Virtual --
  0.101   0.135   0.142   0.156   0.169   0.179   0.180   0.218
  0.229   0.268   0.291   0.314   0.315   0.513   0.529   0.534
  0.536   0.547   0.547   0.549   0.584   0.584   0.595   0.617
  0.656   0.699   0.782   0.810   0.857   0.878   0.881   0.909
  0.935   0.958   0.999   1.214   1.306   1.420   1.475   1.534
  1.599   1.681   1.683   1.820   1.875   1.942   1.972   2.006
  2.051   2.070   2.116   2.123   2.228   2.256   2.290   2.368
  2.437   2.449   2.515   2.579   2.676   2.715   2.741   2.798
  2.844   2.881   2.915   3.184   3.259   3.367   3.376   3.465
  3.474   3.549   4.239   4.429   4.603   4.651   4.659   4.659
  4.684   4.684   6.210  90.129
 
 Beta MOs
 -- Occupied --
******* -62.553 -56.373 -56.370 -56.370 -10.187 -10.176 -10.175
 -8.738  -6.567  -6.554  -6.554  -2.661  -2.658  -2.658  -2.646
 -2.646  -0.770  -0.751  -0.655  -0.567  -0.459  -0.422  -0.390
 -0.367  -0.344  -0.332  -0.306  -0.306
 -- Virtual --
 -0.232  -0.044   0.105   0.144   0.147   0.158   0.174   0.180
  0.187   0.222   0.234   0.277   0.318   0.319   0.321   0.518
  0.535   0.547   0.564   0.591   0.591   0.593   0.593   0.596
  0.598   0.650   0.667   0.719   0.786   0.817   0.860   0.879
  0.884   0.917   0.941   0.969   1.002   1.225   1.315   1.450
  1.480   1.549   1.621   1.681   1.702   1.830   1.879   1.945
  1.999   2.043   2.052   2.071   2.117   2.131   2.230   2.268
  2.291   2.374   2.442   2.461   2.524   2.603   2.682   2.717
  2.744   2.801   2.847   2.883   2.918   3.185   3.262   3.372
  3.378   3.468   3.480   3.552   4.258   4.445   4.605   4.670
  4.673   4.674   4.687   4.687   6.226  90.135
 --------------------------------------------------------------
 
          Ground-State Mulliken Net Atomic Charges

     Atom                 Charge (a.u.)    Spin (a.u.)
  --------------------------------------------------------
      1 Br                   -0.003421       1.001937
      2 C                    -0.190358      -0.072927
      3 C                    -0.226485       1.076663
      4 C                    -0.307186       0.050102
      5 H                     0.103000       0.012009
      6 H                     0.103271       0.013453
      7 H                     0.103508      -0.046867
      8 H                     0.103805      -0.046905
      9 H                     0.102101       0.013702
     10 H                     0.105819      -0.000636
     11 H                     0.105947      -0.000530
  --------------------------------------------------------
  Sum of atomic charges =    -0.000000
  Sum of spin   charges =     2.000000

 -----------------------------------------------------------------
                    Cartesian Multipole Moments
 -----------------------------------------------------------------
    Charge (ESU x 10^10)
                 0.0000
    Dipole Moment (Debye)
         X      -0.3860      Y       0.0245      Z       0.0012
       Tot       0.3868
    Quadrupole Moments (Debye-Ang)
        XX     -37.6554     XY      -0.2627     YY     -39.6614
        XZ       0.0278     YZ       0.0019     ZZ     -38.7817
    Octopole Moments (Debye-Ang^2)
       XXX    -147.9221    XXY       3.5904    XYY     -60.8441
       YYY       1.9775    XXZ      -0.0309    XYZ       0.0132
       YYZ      -0.3283    XZZ     -61.0492    YZZ      -0.3633
       ZZZ      -0.9743
    Hexadecapole Moments (Debye-Ang^3)
      XXXX   -2242.5596   XXXY       2.3694   XXYY    -439.2930
      XYYY     -13.7903   YYYY     -92.6895   XXXZ      -2.4789
      XXYZ       0.0300   XYYZ      -1.5464   YYYZ      -0.1863
      XXZZ    -436.7038   XYZZ      -3.9005   YYZZ     -24.1964
      XZZZ      -4.5463   YZZZ      -0.1107   ZZZZ     -64.3911
 -----------------------------------------------------------------
 Calculating analytic gradient of the SCF energy
 Gradient of SCF Energy
            1           2           3           4           5           6
    1   0.0002640   0.0000004   0.0029197  -0.0000629  -0.0000203  -0.0000174
    2   0.0001623  -0.0002433  -0.0032438   0.0000411   0.0000154   0.0000237
    3   0.0000145   0.0000064   0.0001464  -0.0000040   0.0000153  -0.0000074
            7           8           9          10          11
    1  -0.0015399  -0.0015748  -0.0000013   0.0000168   0.0000158
    2   0.0015992   0.0016853  -0.0000176  -0.0000066  -0.0000158
    3  -0.0005386   0.0003794   0.0000001  -0.0000019  -0.0000103
 Max gradient component =       3.244E-03
 RMS gradient           =       9.521E-04
 Gradient time:  CPU 8.97 s  wall 0.78 s
 Geometry Optimization Parameters
   NAtoms,    NIC,     NZ,  NCons,   NDum,   NFix, NCnnct, MaxDiis
       11      85       0       1       0       0       0       0

 Cartesian Hessian Update
 Hessian Updated using BFGS Update


** CONSTRAINED OPTIMIZATION IN DELOCALIZED INTERNAL COORDINATES **
   Searching for a Minimum

   Optimization Cycle:   3

                       Coordinates (Angstroms)
     ATOM                X               Y               Z
      1  Br        4.4179500981    0.0738485768    0.0169517933
      2  C        -0.9089757558    0.4675982513    0.0072125800
      3  C         0.1663092761   -0.5690872886    0.0033629733
      4  C        -2.3347918430   -0.1342376018   -0.0083998458
      5  H        -0.8100924959    1.1066450937    0.8942155592
      6  H        -0.7994937811    1.1241204242   -0.8659428838
      7  H         0.4678918379   -1.0285182821   -0.9318263646
      8  H         0.4785689326   -1.0259595560    0.9358906191
      9  H        -3.0926103896    0.6570118435   -0.0047913128
     10  H        -2.4903063118   -0.7497564820   -0.9002032709
     11  H        -2.5016605676   -0.7690639790    0.8676291530
   Point Group: c1    Number of degrees of freedom:    27


   Energy is  -2692.321401521

              Constraints and their Current Values
                                        Value     Constraint
   Distance(Angs):        1   3             4.300000     4.300000
 Hessian Updated using BFGS Update

 25 Hessian modes will be used to form the next step
  Hessian Eigenvalues:
     0.037404    0.045000    0.045001    0.048408    0.050881    0.067949
     0.078198    0.083064    0.086318    0.089065    0.105236    0.132549
     0.160000    0.160000    0.160026    0.219604    0.278524    0.327543
     0.332411    0.339176    0.339426    0.341689    0.342794    0.342839
     0.428798

 Minimum Search - Taking Simple RFO Step
 Searching for Lamda that Minimizes Along All modes
 Value Taken    Lamda =  -0.00012549
 Step Taken.  Stepsize is  0.057197

                             Maximum     Tolerance    Cnvgd?
         Gradient           0.001660      0.000300      NO
         Displacement       0.041137      0.001200      NO
         Energy change     -0.000072      0.000001      NO


 New Cartesian Coordinates Obtained by Inverse Iteration

 Displacement from previous Coordinates is:  0.033079
 ----------------------------------------------------------------
             Standard Nuclear Orientation (Angstroms)
    I     Atom           X                Y                Z
 ----------------------------------------------------------------
    1      Br      4.4164278948     0.0728430055     0.0167336715
    2      C      -0.9111248006     0.4704833357     0.0072387064
    3      C       0.1641349021    -0.5657703205     0.0033847290
    4      C      -2.3360021464    -0.1334192857    -0.0084429147
    5      H      -0.8123472291     1.1093311672     0.8942668300
    6      H      -0.8016524177     1.1268299437    -0.8659106587
    7      H       0.4752827727    -1.0344666585    -0.9263054636
    8      H       0.4858621183    -1.0323126304     0.9306857051
    9      H      -3.0949855933     0.6567305778    -0.0049224625
   10      H      -2.4906732825    -0.7492025180    -0.9002228875
   11      H      -2.5021332183    -0.7684456168     0.8675937451
 ----------------------------------------------------------------
 Nuclear Repulsion Energy =   162.0784936579 hartrees
 There are       31 alpha and       29 beta electrons

                       Distance Matrix (Angstroms)
             Br(  1)   C (  2)   C (  3)   C (  4)   H (  5)   H (  6)
   C (  2)  5.342380
   C (  3)  4.300000  1.493325
   C (  4)  6.755627  1.547650  2.537273
   H (  5)  5.402264  1.097589  2.133812  2.163524
   H (  6)  5.396139  1.097800  2.133850  2.162801  1.760297
   H (  7)  4.200962  2.249112  1.086652  3.091550  3.093274  2.511058
   H (  8)  4.184020  2.250049  1.086765  3.106910  2.504658  3.089878
   H (  9)  7.534104  2.191822  3.480868  1.095630  2.494760  2.494328
   H ( 10)  7.016026  2.192280  2.810367  1.094707  3.080766  2.524573
   H ( 11)  7.021269  2.192365  2.810146  1.094668  2.526289  3.080380
             H (  7)   H (  8)   H (  9)   H ( 10)
   H (  8)  1.857023
   H (  9)  4.056589  4.068255
   H ( 10)  2.979757  3.506015  1.772965
   H ( 11)  3.486237  3.000287  1.773101  1.767959
 
 Applying Cartesian multipole field
    Component          Value
    ---------          -----
     (2,0,0)        1.00000E-11
     (0,2,0)        2.00000E-10
     (0,0,2)       -3.00000E-10
 Nucleus-field energy     =     0.0000000284 hartrees
 Requested basis set is 6-31G(d,p)
 There are 41 shells and 115 basis functions
 A cutoff of  1.0D-14 yielded    731 shell pairs
 There are      5384 function pairs
 Smallest overlap matrix eigenvalue = 7.27E-04
 Guess from superposition of atomic densities
 Warning:  Energy on first SCF cycle will be non-variational
 SAD guess density has 59.972873 electrons

 -----------------------------------------------------------------------
  General SCF calculation program by
  Eric Jon Sundstrom, Paul Horn, Yuezhi Mao, Dmitri Zuev, Alec White,
  David Stuck, Shaama M.S., Shane Yost, Joonho Lee, David Small,
  Daniel Levine, Susi Lehtola, Hugh Burton, Evgeny Epifanovsky
[...]
 Beta HF Exchange     Energy = -10.65625663228370
 DFT Correlation      Energy =  -3.11816630287636
 DFT Exchange         Energy = -85.50906252412346
 One-Electron (alpha) Energy = -2047.30442777643543
 One-Electron (beta)  Energy = -2012.56089434949627
 Total Coulomb        Energy = 1315.99325169720510
    7   -2692.3213973852      1.66e-05  
 Alpha HF Exchange    Energy = -10.84683065736560
 Beta HF Exchange     Energy = -10.65632060858017
 DFT Correlation      Energy =  -3.11814668725503
 DFT Exchange         Energy = -85.50951974815993
 One-Electron (alpha) Energy = -2047.31409007565912
 One-Electron (beta)  Energy = -2012.56625638163337
 Total Coulomb        Energy = 1316.00884256361928
    8   -2692.3214002240      7.20e-06  
 Alpha HF Exchange    Energy = -10.84687743515775
 Beta HF Exchange     Energy = -10.65632497178871
 DFT Correlation      Energy =  -3.11815434743048
 DFT Exchange         Energy = -85.50972498855366
 One-Electron (alpha) Energy = -2047.31639048632246
 One-Electron (beta)  Energy = -2012.56579874979116
 Total Coulomb        Energy = 1316.01094779578170
    9   -2692.3214018123      3.21e-06  
 Alpha HF Exchange    Energy = -10.84687738119458
 Beta HF Exchange     Energy = -10.65631833159363
 DFT Correlation      Energy =  -3.11814896282647
 DFT Exchange         Energy = -85.50969289258606
 One-Electron (alpha) Energy = -2047.31601679733444
 One-Electron (beta)  Energy = -2012.56474759441949
 Total Coulomb        Energy = 1316.00947736541275
   10   -2692.3214032236      2.83e-06  
 Alpha HF Exchange    Energy = -10.84687741816009
 Beta HF Exchange     Energy = -10.65631744152339
 DFT Correlation      Energy =  -3.11814814804401
 DFT Exchange         Energy = -85.50968912052841
 One-Electron (alpha) Energy = -2047.31605992655636
 One-Electron (beta)  Energy = -2012.56464990611084
 Total Coulomb        Energy = 1316.00941645743319
   11   -2692.3214041325      2.72e-06  
 Alpha HF Exchange    Energy = -10.84687724169110
 Beta HF Exchange     Energy = -10.65631685841589
 DFT Correlation      Energy =  -3.11814776667404
 DFT Exchange         Energy = -85.50968632992632
 One-Electron (alpha) Energy = -2047.31603522247519
 One-Electron (beta)  Energy = -2012.56448643065869
 Total Coulomb        Energy = 1316.00922297226748
   12   -2692.3214055066      2.69e-06  
 Alpha HF Exchange    Energy = -10.84687730120277
 Beta HF Exchange     Energy = -10.65631823520793
 DFT Correlation      Energy =  -3.11814671739393
 DFT Exchange         Energy = -85.50969193848765
 One-Electron (alpha) Energy = -2047.31611572576026
 One-Electron (beta)  Energy = -2012.56402639868816
 Total Coulomb        Energy = 1316.00884357548671
   13   -2692.3214113703      2.63e-06  
 Alpha HF Exchange    Energy = -10.84687390440948
 Beta HF Exchange     Energy = -10.65632899677649
 DFT Correlation      Energy =  -3.11814149155068
 DFT Exchange         Energy = -85.50971675499264
 One-Electron (alpha) Energy = -2047.31593493618220
 One-Electron (beta)  Energy = -2012.56267059453944
 Total Coulomb        Energy = 1316.00731136971967
   14   -2692.3214339377      3.54e-06  
 Alpha HF Exchange    Energy = -10.84687334103328
 Beta HF Exchange     Energy = -10.65633366007005
 DFT Correlation      Energy =  -3.11814046000315
 DFT Exchange         Energy = -85.50973155689879
 One-Electron (alpha) Energy = -2047.31588542807799
 One-Electron (beta)  Energy = -2012.56277803176886
 Total Coulomb        Energy = 1316.00738349106859
   15   -2692.3214376158      4.56e-06  
 Alpha HF Exchange    Energy = -10.84686471617227
 Beta HF Exchange     Energy = -10.65641844790980
 DFT Correlation      Energy =  -3.11812645080337
 DFT Exchange         Energy = -85.51000253081028
 One-Electron (alpha) Energy = -2047.31525908529034
 One-Electron (beta)  Energy = -2012.56797815754544
 Total Coulomb        Energy = 1316.01225699252359
   16   -2692.3214710250      2.69e-05  
 Alpha HF Exchange    Energy = -10.84686023160873
 Beta HF Exchange     Energy = -10.65645917384632
 DFT Correlation      Energy =  -3.11812128778298
 DFT Exchange         Energy = -85.51013078204520
 One-Electron (alpha) Energy = -2047.31483168872978
 One-Electron (beta)  Energy = -2012.57145619991661
 Total Coulomb        Energy = 1316.01546349221053
   17   -2692.3214745007      3.81e-05  
 Alpha HF Exchange    Energy = -10.84686012639685
 Beta HF Exchange     Energy = -10.65646419391211
 DFT Correlation      Energy =  -3.11812099936390
 DFT Exchange         Energy = -85.51014890061747
 One-Electron (alpha) Energy = -2047.31481700135828
 One-Electron (beta)  Energy = -2012.57205990579678
 Total Coulomb        Energy = 1316.01607621955054
   18   -2692.3214735369      3.94e-05  
 Alpha HF Exchange    Energy = -10.84686024362394
 Beta HF Exchange     Energy = -10.65646314252852
 DFT Correlation      Energy =  -3.11812107409088
 DFT Exchange         Energy = -85.51014545296840
 One-Electron (alpha) Energy = -2047.31483887093668
 One-Electron (beta)  Energy = -2012.57193314845063
 Total Coulomb        Energy = 1316.01596672918026
   19   -2692.3214738324      3.91e-05  
 Alpha HF Exchange    Energy = -10.84686093437702
 Beta HF Exchange     Energy = -10.65645794306863
 DFT Correlation      Energy =  -3.11812057839280
 DFT Exchange         Energy = -85.51012459214326
 One-Electron (alpha) Energy = -2047.31519084062734
 One-Electron (beta)  Energy = -2012.57042653092594
 Total Coulomb        Energy = 1316.01477657183796
   20   -2692.3214834767      3.71e-05  
 Alpha HF Exchange    Energy = -10.84685784749876
 Beta HF Exchange     Energy = -10.65646018485494
 DFT Correlation      Energy =  -3.11811902644151
 DFT Exchange         Energy = -85.51011498721982
 One-Electron (alpha) Energy = -2047.31505002999393
 One-Electron (beta)  Energy = -2012.57003170300186
 Total Coulomb        Energy = 1316.01422361936852
   21   -2692.3214887887      3.79e-05  
 Alpha HF Exchange    Energy = -10.84685670567685
 Beta HF Exchange     Energy = -10.65647003641676
 DFT Correlation      Energy =  -3.11811787875248
 DFT Exchange         Energy = -85.51014667505791
 One-Electron (alpha) Energy = -2047.31486426685592
 One-Electron (beta)  Energy = -2012.57116844184520
 Total Coulomb        Energy = 1316.01521621502570
   22   -2692.3214864186      4.10e-05  
 Alpha HF Exchange    Energy = -10.84685769194867
 Beta HF Exchange     Energy = -10.65645828452072
 DFT Correlation      Energy =  -3.11811867781222
 DFT Exchange         Energy = -85.51010642063034
 One-Electron (alpha) Energy = -2047.31501575763718
 One-Electron (beta)  Energy = -2012.56978546865957
 Total Coulomb        Energy = 1316.01393156916856
   23   -2692.3214893611      3.76e-05  
 Alpha HF Exchange    Energy = -10.84686239403419
 Beta HF Exchange     Energy = -10.65641973501212
 DFT Correlation      Energy =  -3.11812266793042
 DFT Exchange         Energy = -85.50997698554977
 One-Electron (alpha) Energy = -2047.31584784397205
 One-Electron (beta)  Energy = -2012.56491363484110
 Total Coulomb        Energy = 1316.00972186238596
   24   -2692.3215000280      2.50e-05  
 Alpha HF Exchange    Energy = -10.84686437313180
 Beta HF Exchange     Energy = -10.65638130902266
 DFT Correlation      Energy =  -3.11812578426914
 DFT Exchange         Energy = -85.50984104765774
 One-Electron (alpha) Energy = -2047.31625312923802
 One-Electron (beta)  Energy = -2012.56054574206905
 Total Coulomb        Energy = 1316.00558544949035
   25   -2692.3215045649      1.40e-05  
 Alpha HF Exchange    Energy = -10.84687045034906
 Beta HF Exchange     Energy = -10.65632673525227
 DFT Correlation      Energy =  -3.11813073615323
 DFT Exchange         Energy = -85.50966389057346
 One-Electron (alpha) Energy = -2047.31709561964772
 One-Electron (beta)  Energy = -2012.55430315959302
 Total Coulomb        Energy = 1315.99996276160732
   26   -2692.3215064590      2.36e-06  
 Alpha HF Exchange    Energy = -10.84686971209551
 Beta HF Exchange     Energy = -10.65633927329431
 DFT Correlation      Energy =  -3.11813002568386
 DFT Exchange         Energy = -85.50970673592114
 One-Electron (alpha) Energy = -2047.31699069632941
 One-Electron (beta)  Energy = -2012.55574757748877
 Total Coulomb        Energy = 1316.00135613464795
   27   -2692.3215065152      1.23e-06  
 Alpha HF Exchange    Energy = -10.84686968933893
 Beta HF Exchange     Energy = -10.65633581077451
 DFT Correlation      Energy =  -3.11813018915678
 DFT Exchange         Energy = -85.50969375072883
 One-Electron (alpha) Energy = -2047.31701282961899
 One-Electron (beta)  Energy = -2012.55535905836268
 Total Coulomb        Energy = 1316.00097342772847
   28   -2692.3215065293      2.83e-07  Convergence criterion met
 ---------------------------------------
 SCF time:   CPU 67.90s  wall 5.00s 
<S^2> =          2.005227280
 Alpha HF Exchange    Energy = -10.84686968933893
 Beta HF Exchange     Energy = -10.65633581077451
 DFT Correlation      Energy =  -3.11813018915678
 DFT Exchange         Energy = -85.50969375072883
 One-Electron (alpha) Energy = -2047.31701282961899
 One-Electron (beta)  Energy = -2012.55535905836268
 Total Coulomb        Energy = 1316.00097342772847
 Nuclear repulsion Energy = 161.68092137098913
 SCF   energy in the final basis set =    -2692.3215065293
 Total energy in the final basis set =    -2692.3215065293
 
 --------------------------------------------------------------
 
                    Orbital Energies (a.u.)
 --------------------------------------------------------------
 
 Alpha MOs
 -- Occupied --
******* -62.555 -56.379 -56.371 -56.371 -10.189 -10.187 -10.178
 -8.742  -6.579  -6.556  -6.556  -2.669  -2.664  -2.664  -2.648
 -2.648  -0.794  -0.780  -0.674  -0.581  -0.463  -0.428  -0.394
 -0.379  -0.369  -0.350  -0.333  -0.320  -0.320  -0.201
 -- Virtual --
  0.102   0.133   0.141   0.156   0.169   0.178   0.180   0.219
  0.229   0.269   0.292   0.314   0.315   0.513   0.531   0.532
  0.536   0.546   0.547   0.549   0.583   0.584   0.594   0.617
  0.656   0.698   0.786   0.810   0.856   0.876   0.881   0.908
  0.935   0.958   0.997   1.211   1.305   1.429   1.476   1.522
  1.599   1.680   1.683   1.821   1.872   1.951   1.976   1.999
  2.051   2.069   2.121   2.123   2.223   2.259   2.289   2.368
  2.438   2.447   2.521   2.571   2.675   2.708   2.740   2.800
  2.857   2.881   2.919   3.184   3.255   3.356   3.377   3.464
  3.476   3.553   4.238   4.428   4.604   4.651   4.659   4.659
  4.684   4.684   6.210  90.129
 
 Beta MOs
 -- Occupied --
******* -62.553 -56.373 -56.370 -56.370 -10.188 -10.176 -10.175
 -8.738  -6.568  -6.555  -6.555  -2.661  -2.658  -2.658  -2.647
 -2.647  -0.770  -0.751  -0.655  -0.567  -0.458  -0.423  -0.389
 -0.367  -0.345  -0.331  -0.306  -0.306
 -- Virtual --
 -0.233  -0.044   0.106   0.143   0.146   0.158   0.174   0.179
  0.188   0.223   0.234   0.278   0.317   0.320   0.322   0.518
  0.534   0.549   0.565   0.591   0.591   0.593   0.593   0.596
  0.597   0.650   0.667   0.717   0.790   0.817   0.860   0.878
  0.884   0.916   0.941   0.970   1.000   1.221   1.315   1.460
  1.480   1.536   1.621   1.681   1.701   1.830   1.877   1.954
  2.000   2.040   2.052   2.071   2.122   2.130   2.225   2.271
  2.290   2.374   2.443   2.458   2.530   2.596   2.680   2.709
  2.744   2.803   2.860   2.883   2.923   3.186   3.259   3.361
  3.379   3.466   3.482   3.556   4.257   4.444   4.606   4.670
  4.673   4.673   4.686   4.687   6.225  90.135
 --------------------------------------------------------------
 
          Ground-State Mulliken Net Atomic Charges

     Atom                 Charge (a.u.)    Spin (a.u.)
  --------------------------------------------------------
      1 Br                   -0.003282       1.001581
      2 C                    -0.189649      -0.073537
      3 C                    -0.227827       1.078338
      4 C                    -0.307162       0.049975
      5 H                     0.103441       0.012451
      6 H                     0.103649       0.013636
      7 H                     0.103206      -0.047415
      8 H                     0.103402      -0.047460
      9 H                     0.101836       0.013514
     10 H                     0.106142      -0.000586
     11 H                     0.106245      -0.000497
  --------------------------------------------------------
  Sum of atomic charges =    -0.000000
  Sum of spin   charges =     2.000000

 -----------------------------------------------------------------
                    Cartesian Multipole Moments
 -----------------------------------------------------------------
    Charge (ESU x 10^10)
                -0.0000
    Dipole Moment (Debye)
         X      -0.3598      Y       0.0338      Z       0.0004
       Tot       0.3614
    Quadrupole Moments (Debye-Ang)
        XX     -37.5119     XY      -0.5826     YY     -39.7266
        XZ       0.0092     YZ      -0.0033     ZZ     -38.8175
    Octopole Moments (Debye-Ang^2)
       XXX    -148.5122    XXY       3.0429    XYY     -61.4412
       YYY       8.7389    XXZ      -0.0941    XYZ      -0.0024
       YYZ      -0.2551    XZZ     -61.4698    YZZ       1.9717
       ZZZ      -0.7598
    Hexadecapole Moments (Debye-Ang^3)
      XXXX   -2268.7084   XXXY      14.7324   XXYY    -445.5682
      XYYY      19.6480   YYYY     -90.7914   XXXZ      -2.3908
      XXYZ      -0.0505   XYYZ      -1.2061   YYYZ      -0.0762
      XXZZ    -442.4659   XYZZ       7.1566   YYZZ     -23.9580
      XZZZ      -3.5275   YZZZ       0.0066   ZZZZ     -64.3755
 -----------------------------------------------------------------
 Calculating analytic gradient of the SCF energy
 Gradient of SCF Energy
            1           2           3           4           5           6
    1   0.0003204   0.0000803  -0.0004995  -0.0000115  -0.0000062  -0.0000049
    2   0.0000485   0.0000459  -0.0002519  -0.0000001   0.0000066   0.0000152
    3   0.0000094   0.0000024  -0.0000105  -0.0000025   0.0000018   0.0000069
            7           8           9          10          11
    1   0.0000519   0.0000646   0.0000027   0.0000025  -0.0000005
    2   0.0000706   0.0000712  -0.0000004  -0.0000017  -0.0000040
    3  -0.0000338   0.0000348  -0.0000024  -0.0000036  -0.0000026
 Max gradient component =       4.995E-04
 RMS gradient           =       1.163E-04
 Gradient time:  CPU 8.89 s  wall 0.77 s
 Geometry Optimization Parameters
   NAtoms,    NIC,     NZ,  NCons,   NDum,   NFix, NCnnct, MaxDiis
       11      85       0       1       0       0       0       0

 Cartesian Hessian Update
 Hessian Updated using BFGS Update


** CONSTRAINED OPTIMIZATION IN DELOCALIZED INTERNAL COORDINATES **
   Searching for a Minimum

   Optimization Cycle:  12

                       Coordinates (Angstroms)
     ATOM                X               Y               Z
      1  Br        4.4488897327   -0.0628166430    0.0126258063
      2  C        -0.9349804341    0.4874805832    0.0079224094
      3  C         0.1725238622   -0.5129709772    0.0050831549
      4  C        -2.3418048775   -0.1572390106   -0.0090554378
      5  H        -0.8565325317    1.1290321138    0.8951565328
      6  H        -0.8445849416    1.1472198348   -0.8649374610
      7  H         0.5177482902   -0.9569670707   -0.9238519753
      8  H         0.5223162755   -0.9586683095    0.9314320713
      9  H        -3.1227005829    0.6112369799   -0.0070366458
     10  H        -2.4775238070   -0.7777327529   -0.9005567688
     11  H        -2.4905619858   -0.7959737478    0.8673173139
   Point Group: c1    Number of degrees of freedom:    27


   Energy is  -2692.321506529

              Constraints and their Current Values
                                        Value     Constraint
   Distance(Angs):        1   3             4.300000     4.300000
 Hessian Updated using BFGS Update

 26 Hessian modes will be used to form the next step
  Hessian Eigenvalues:
     0.001156    0.030119    0.044967    0.045004    0.046644    0.051447
     0.067949    0.078105    0.082995    0.083082    0.086440    0.105208
     0.132548    0.159622    0.160000    0.160495    0.218042    0.277538
     0.327422    0.329741    0.338925    0.339365    0.341695    0.342804
     0.342857    0.461012

 Minimum Search - Taking Simple RFO Step
 Searching for Lamda that Minimizes Along All modes
 Value Taken    Lamda =   0.00000000
 Step Taken.  Stepsize is  0.003578

                             Maximum     Tolerance    Cnvgd?
         Gradient           0.000060      0.000300     YES
         Displacement       0.002275      0.001200      NO
         Energy change     -0.000001      0.000001     YES


                       Distance Matrix (Angstroms)
             Br(  1)   C (  2)   C (  3)   C (  4)   H (  5)   H (  6)
   C (  2)  5.411923
   C (  3)  4.300000  1.492474
   C (  4)  6.791386  1.547613  2.539408
   H (  5)  5.508799  1.097692  2.132454  2.162898
   H (  6)  5.500471  1.097867  2.132529  2.162363  1.760229
   H (  7)  4.138885  2.250567  1.085925  3.107002  3.090118  2.507394
   H (  8)  4.130948  2.251206  1.085874  3.119294  2.502206  3.087090
   H (  9)  7.601560  2.191269  3.481737  1.095608  2.493508  2.492606
   H ( 10)  7.022835  2.192154  2.813012  1.094626  3.080252  2.524520
   H ( 11)  7.030221  2.192179  2.813461  1.094596  2.525168  3.079927
             H (  7)   H (  8)   H (  9)   H ( 10)
   H (  8)  1.855290
   H (  9)  4.068499  4.078170
   H ( 10)  3.000720  3.519654  1.773096
   H ( 11)  3.504873  3.017949  1.773228  1.768016
 
 Final energy is   -2692.32150652926     


 ******************************
 **  OPTIMIZATION CONVERGED  **
 ******************************

                       Coordinates (Angstroms)
     ATOM                X               Y               Z
      1  Br        4.4488897327   -0.0628166430    0.0126258063
      2  C        -0.9349804341    0.4874805832    0.0079224094
      3  C         0.1725238622   -0.5129709772    0.0050831549
      4  C        -2.3418048775   -0.1572390106   -0.0090554378
      5  H        -0.8565325317    1.1290321138    0.8951565328
      6  H        -0.8445849416    1.1472198348   -0.8649374610
      7  H         0.5177482902   -0.9569670707   -0.9238519753
      8  H         0.5223162755   -0.9586683095    0.9314320713
      9  H        -3.1227005829    0.6112369799   -0.0070366458
     10  H        -2.4775238070   -0.7777327529   -0.9005567688
     11  H        -2.4905619858   -0.7959737478    0.8673173139

Z-matrix Print:
$molecule
0 3
Br
H  1 4.130948
C  2 1.085874 1 91.572194
H  3 1.085925 2 117.357090 1 62.030924 0
C  3 1.492474 2 120.834108 1 -129.532093 0
H  5 1.097692 3 109.894176 2 36.734261 0
H  5 1.097867 3 109.889623 2 153.723537 0
C  5 1.547613 3 113.283401 2 -84.805599 0
H  8 1.094596 5 110.968187 3 59.893846 0
H  8 1.094626 5 110.964386 3 -59.839998 0
H  8 1.095608 5 110.835640 3 -179.963027 0
$end

PES scan, value:    4.3000 energy: -2692.3215065293
------- Summary of potential scan: ------ 
    4.3000     -2692.3215065293
----------------------------------------- 
Archival summary:
1\1\hpc0242\JobtypUnspecified\ProcedureUnspecified\6-31G**\r137(3)\knomura\WedMar1317:26:052019WedMar1317:26:052019\0\\#,JobtypUnspecified,ProcedureUnspecified,6-31G**,\\0,3\Br\H,1,4.13095\C,2,1.08587,1,91.5722\H,3,1.08592,2,117.357,1,62.0309,0\C,3,1.49247,2,120.834,1,-129.532,0\H,5,1.09769,3,109.894,2,36.7343,0\H,5,1.09787,3,109.89,2,153.724,0\C,5,1.54761,3,113.283,2,-84.8056,0\H,8,1.0946,5,110.968,3,59.8938,0\H,8,1.09463,5,110.964,3,-59.84,0\H,8,1.09561,5,110.836,3,-179.963,0\\\@

 Total job time:  89.94s(wall), 986.53s(cpu) 
 Wed Mar 13 17:26:05 2019

        *************************************************************
        *                                                           *
        *  Thank you very much for using Q-Chem.  Have a nice day.  *
        *                                                           *
        *************************************************************


