
Running Job 1 of 1 halogens/Bromine/02/Br_3.xyz.data/inputs/bond_triplet_4.5.in
qchem halogens/Bromine/02/Br_3.xyz.data/inputs/bond_triplet_4.5.in_27987.0 /staging/scratch/2868759/qchem27987/ 1
/usr/usc/qchem/5.1.1/exe/qcprog.exe_s halogens/Bromine/02/Br_3.xyz.data/inputs/bond_triplet_4.5.in_27987.0 /staging/scratch/2868759/qchem27987/
Check license passed

                  Welcome to Q-Chem
     A Quantum Leap Into The Future Of Chemistry


 Q-Chem 5.1, Q-Chem, Inc., Pleasanton, CA (2018)

 Yihan Shao,  Zhengting Gan,  E. Epifanovsky,  A. T. B. Gilbert,  M. Wormit,  
 J. Kussmann,  A. W. Lange,  A. Behn,  Jia Deng,  Xintian Feng,  D. Ghosh,  
 M. Goldey,  P. R. Horn,  L. D. Jacobson,  I. Kaliman,  T. Kus,  A. Landau,  
 Jie Liu,  E. I. Proynov,  R. M. Richard,  R. P. Steele,  E. J. Sundstrom,  
 H. L. Woodcock III,  P. M. Zimmerman,  D. Zuev,  B. Albrecht,  E. Alguire,  
 S. A. Baeppler,  D. Barton,  Z. Benda,  Y. A. Bernard,  E. J. Berquist,  
 K. B. Bravaya,  H. Burton,  D. Casanova,  Chun-Min Chang,  Yunqing Chen,  
 A. Chien,  K. D. Closser,  M. P. Coons,  S. Coriani,  S. Dasgupta,  
 A. L. Dempwolff,  M. Diedenhofen,  Hainam Do,  R. G. Edgar,  Po-Tung Fang,  
 S. Faraji,  S. Fatehi,  Qingguo Feng,  K. D. Fenk,  J. Fosso-Tande,  
 Qinghui Ge,  A. Ghysels,  G. Gidofalvi,  J. Gomes,  J. Gonthier,  A. Gunina,  
 D. Hait,  M. W. D. Hanson-Heine,  P. H. P. Harbach,  A. W. Hauser,  
 J. E. Herr,  E. G. Hohenstein,  Z. C. Holden,  Kerwin Hui,  B. C. Huynh,  
 T.-C. Jagau,  Hyunjun Ji,  B. Kaduk,  K. Khistyaev,  Jaehoon Kim,  
 P. Klunzinger,  K. Koh,  D. Kosenkov,  L. Koulias,  T. Kowalczyk,  
 C. M. Krauter,  A. Kunitsa,  Ka Un Lao,  A. Laurent,  K. V. Lawler,  
 Joonho Lee,  D. Lefrancois,  S. Lehtola,  D. S. Levine,  Yi-Pei Li,  
 You-Sheng Lin,  Fenglai Liu,  E. Livshits,  A. Luenser,  P. Manohar,  
 E. Mansoor,  S. F. Manzer,  Shan-Ping Mao,  Yuezhi Mao,  N. Mardirossian,  
 A. V. Marenich,  T. Markovich,  L. A. Martinez-Martinez,  S. A. Maurer,  
 N. J. Mayhall,  S. C. McKenzie,  J.-M. Mewes,  A. F. Morrison,  
 J. W. Mullinax,  K. Nanda,  T. S. Nguyen-Beck,  R. Olivares-Amaya,  
 J. A. Parkhill,  T. M. Perrine,  F. Plasser,  P. Pokhilko,  S. Prager,  
 A. Prociuk,  E. Ramos,  D. R. Rehn,  F. Rob,  M. Schneider,  N. Sergueev,  
 S. M. Sharada,  S. Sharma,  D. W. Small,  T. Stauch,  T. Stein,  
 Yu-Chuan Su,  A. J. W. Thom,  A. Tkatchenko,  T. Tsuchimochi,  N. M. Tubman,  
 L. Vogt,  M. L. Vidal,  O. Vydrov,  M. A. Watson,  J. Wenzel,  
 M. de Wergifosse,  T. A. Wesolowski,  A. White,  J. Witte,  A. Yamada,  
 Jun Yang,  K. Yao,  S. Yeganeh,  S. R. Yost,  Zhi-Qiang You,  A. Zech,  
 Igor Ying Zhang,  Xing Zhang,  Yan Zhao,  Ying Zhu,  B. R. Brooks,  
 G. K. L. Chan,  C. J. Cramer,  M. S. Gordon,  W. J. Hehre,  A. Klamt,  
 M. W. Schmidt,  C. D. Sherrill,  D. G. Truhlar,  A. Aspuru-Guzik,  R. Baer,  
 A. T. Bell,  N. A. Besley,  Jeng-Da Chai,  A. E. DePrince, III,  
 R. A. DiStasio Jr.,  A. Dreuw,  B. D. Dunietz,  T. R. Furlani,  
 Chao-Ping Hsu,  Yousung Jung,  Jing Kong,  D. S. Lambrecht,  WanZhen Liang,  
 C. Ochsenfeld,  V. A. Rassolov,  L. V. Slipchenko,  J. E. Subotnik,  
 T. Van Voorhis,  J. M. Herbert,  A. I. Krylov,  P. M. W. Gill,  M. Head-Gordon

 Contributors to earlier versions of Q-Chem not listed above: 
 R. D. Adamson,  B. Austin,  J. Baker,  G. J. O. Beran,  K. Brandhorst,  
 S. T. Brown,  E. F. C. Byrd,  A. K. Chakraborty,  C.-L. Cheng,  
 Siu Hung Chien,  D. M. Chipman,  D. L. Crittenden,  H. Dachsel,  
 R. J. Doerksen,  A. D. Dutoi,  L. Fusti-Molnar,  W. A. Goddard III,  
 A. Golubeva-Zadorozhnaya,  S. R. Gwaltney,  G. Hawkins,  A. Heyden,  
 S. Hirata,  G. Kedziora,  F. J. Keil,  C. Kelley,  Jihan Kim,  R. A. King,  
 R. Z. Khaliullin,  P. P. Korambath,  W. Kurlancheek,  A. M. Lee,  M. S. Lee,  
 S. V. Levchenko,  Ching Yeh Lin,  D. Liotard,  R. C. Lochan,  I. Lotan,  
 P. E. Maslen,  N. Nair,  D. P. O'Neill,  D. Neuhauser,  E. Neuscamman,  
 C. M. Oana,  R. Olson,  B. Peters,  R. Peverati,  P. A. Pieniazek,  
 Y. M. Rhee,  J. Ritchie,  M. A. Rohrdanz,  E. Rosta,  N. J. Russ,  
 H. F. Schaefer III,  N. E. Schultz,  N. Shenvi,  A. C. Simmonett,  A. Sodt,  
 D. Stuck,  K. S. Thanthiriwatte,  V. Vanovschi,  Tao Wang,  A. Warshel,  
 C. F. Williams,  Q. Wu,  X. Xu,  W. Zhang

 Please cite Q-Chem as follows:
 Y. Shao et al., Mol. Phys. 113, 184-215 (2015)
 DOI: 10.1080/00268976.2014.952696

 Q-Chem 5.1.1 for Intel X86 EM64T Linux

 Parts of Q-Chem use Armadillo 8.300.2 (Tropical Shenanigans).
 http://arma.sourceforge.net/

 Q-Chem begins on Wed Mar 13 17:22:39 2019  

Host: 
0

     Scratch files written to /staging/scratch/2868759/qchem27987//
 Aug318 |scratch|qcdevops|jenkins|workspace|build_RNUM 6013   
Processing $rem in /usr/usc/qchem/5.1.1/config/preferences.
 MEM_TOTAL  2000 
Input Ideriv = 2
Curr. Ideriv = -1
Max.  Ideriv = 2

Checking the input file for inconsistencies... 	...done.

--------------------------------------------------------------
User input:
--------------------------------------------------------------

$comment
potential surface scanner
$end

$rem
JOBTYPE  PES_SCAN
UNRESTRICTED TRUE
SYM_IGNORE  TRUE
GEOM_OPT_MAX_CYCLES 400
SCF_MAX_CYCLES 400
METHOD   B3LYP
BASIS   6-31G**
PDB_PRINT 2
SCF_CONVERGENCE 6
THRESH 14
SCF_PRINT 1
$end
$molecule
0 3
Br 4.721292 -0.042909 0.023415
C -0.960516 0.485766 0.006022
C 0.145751 -0.516100 0.000760
C -2.368411 -0.156615 -0.007252
H -0.878830 1.127744 0.892644
H -0.871435 1.145023 -0.867388
H 0.481514 -0.967506 -0.928073
H 0.495070 -0.964204 0.926102
H -3.148005 0.613221 -0.003543
H -2.507460 -0.777042 -0.898290
H -2.516179 -0.794777 0.869701
$end
$scan
stre 1 3 4.500000 4.501000 0.100000
$end
--------------------------------------------------------------
 ----------------------------------------------------------------
             Standard Nuclear Orientation (Angstroms)
    I     Atom           X                Y                Z
 ----------------------------------------------------------------
    1      Br      4.7212920000    -0.0429090000     0.0234150000
    2      C      -0.9605160000     0.4857660000     0.0060220000
    3      C       0.1457510000    -0.5161000000     0.0007600000
    4      C      -2.3684110000    -0.1566150000    -0.0072520000
    5      H      -0.8788300000     1.1277440000     0.8926440000
    6      H      -0.8714350000     1.1450230000    -0.8673880000
    7      H       0.4815140000    -0.9675060000    -0.9280730000
    8      H       0.4950700000    -0.9642040000     0.9261020000
    9      H      -3.1480050000     0.6132210000    -0.0035430000
   10      H      -2.5074600000    -0.7770420000    -0.8982900000
   11      H      -2.5161790000    -0.7947770000     0.8697010000
 ----------------------------------------------------------------
 Nuclear Repulsion Energy =   157.0148740292 hartrees
 There are       31 alpha and       29 beta electrons
 Requested basis set is 6-31G(d,p)
 There are 41 shells and 115 basis functions

 Total QAlloc Memory Limit   2000 MB
 Mega-Array Size       188 MB
 MEM_STATIC part       192 MB
A total of 1 constraints
  
            1
    1   1.0100000
    2   1.0100000
    3   3.0100000
    4   4.5000000
    5   4.5010000
    6   0.1000000
    7   0.0000000
    8   0.0000000
    9   0.0000000
   10   0.0000000

                       Distance Matrix (Angstroms)
             Br(  1)   C (  2)   C (  3)   C (  4)   H (  5)   H (  6)
   C (  2)  5.706377
   C (  3)  4.600000  1.492511
   C (  4)  7.090681  1.547578  2.539745
   H (  5)  5.786826  1.097683  2.132474  2.162925
   H (  6)  5.786476  1.097907  2.132529  2.162182  1.760132
   H (  7)  4.442514  2.250330  1.085926  3.102826  3.091216  2.509369
   H (  8)  4.418663  2.251153  1.085854  3.118152  2.502992  3.087520
   H (  9)  7.896649  2.191220  3.481984  1.095640  2.493399  2.492351
   H ( 10)  7.324162  2.192145  2.813523  1.094629  3.080274  2.524256
   H ( 11)  7.325469  2.192218  2.813999  1.094592  2.525376  3.079851
             H (  7)   H (  8)   H (  9)   H ( 10)
   H (  8)  1.854227
   H (  9)  4.065324  4.077316
   H ( 10)  2.995184  3.518327  1.773049
   H ( 11)  3.499713  3.016539  1.773194  1.768101
 
 A cutoff of  1.0D-14 yielded    717 shell pairs
 There are      5257 function pairs
 
 -------------------------------------------------------
 OpenMP Integral Computing Module                       
 Release: version 1.0, May 2013, Q-Chem Inc. Pittsburgh 
 -------------------------------------------------------
 Integral Job Info:
 Integral job number is                      11
 Integral operator is                         1
 short-range coefficients                     0
 long-range coefficients              100000000
 Omega coefficients                           0
 if combine SR and LR in K                    0
 Integral screening is                        0
 Integral computing path is                   2
 max size of driver memory is            800000
 size of driver memory is                593474
 size of scratch memory is             15267112
 max col of scratch BK array               1296
 max len of scratch array in speh3          155
 max len of scratch index in speh4           18
 max int batch size is                      520
 min int batch size is                       52
 fixed nKL is                                52
 max L of basis functions is                  2
 order of int derivative is                   0
 number of shells is                         41
 number of basis is                         115
 number of cartesian basis is               115
 number of contracted shell pairs           717
 number of primitive shell pairs           2713
 maxK2 (contraction) of shell pair           36
 max number of K2 of shell pair               1
 max number of CS2 of shell pair             59
 max number of PS2 of shell pair            198
 mem total for path MDJ                  514716
 -------------------------------------------------------
 Smallest overlap matrix eigenvalue = 7.27E-04

 Scale SEOQF with 1.000000e-01/1.000000e+00/1.000000e+00

 Standard Electronic Orientation quadrupole field applied
 Nucleus-field energy     =     0.0000000316 hartrees
 Guess from superposition of atomic densities
 Warning:  Energy on first SCF cycle will be non-variational
 SAD guess density has 59.972873 electrons

 -----------------------------------------------------------------------
  General SCF calculation program by
  Eric Jon Sundstrom, Paul Horn, Yuezhi Mao, Dmitri Zuev, Alec White,
  David Stuck, Shaama M.S., Shane Yost, Joonho Lee, David Small,
  Daniel Levine, Susi Lehtola, Hugh Burton, Evgeny Epifanovsky
 -----------------------------------------------------------------------
 Exchange:     0.2000 Hartree-Fock + 0.0800 Slater + 0.7200 B88
 Correlation:  0.1900 VWN1RPA + 0.8100 LYP
 Using SG-1 standard quadrature grid
 using 12 threads for integral computing
 -------------------------------------------------------
 OpenMP Integral computing Module                
 Release: version 1.0, May 2013, Q-Chem Inc. Pittsburgh 
 -------------------------------------------------------
 -------------------------------------------------------
 OpenMP BLAS3 based DFT computing Module                
 Release: version 1.0, May 2013, Q-Chem Inc. Pittsburgh 
 -------------------------------------------------------
 A unrestricted SCF calculation will be
 performed using DIIS
 SCF converges when DIIS error is below 1.0e-06
 Alpha HF Exchange    Energy = -10.71096560695261
 Beta HF Exchange     Energy = -10.71096560695261
 DFT Correlation      Energy =  -3.10418443655340
 DFT Exchange         Energy = -84.97282209373057
 One-Electron (alpha) Energy = -2023.65109104853150
 One-Electron (beta)  Energy = -2023.65109104853150
 Total Coulomb        Energy = 1304.27873209447080
 ---------------------------------------
  Cycle       Energy         DIIS error
 ---------------------------------------
    1   -2695.5075136860      1.64e-01  
 Alpha HF Exchange    Energy = -10.89565940794353
 Beta HF Exchange     Energy = -10.70115861285615
 DFT Correlation      Energy =  -3.13646987113712
 DFT Exchange         Energy = -85.89583659544465
 One-Electron (alpha) Energy = -2046.11610107036699
 One-Electron (beta)  Energy = -2011.78056862626431
 Total Coulomb        Energy = 1319.29355806566400
    2   -2692.2173620576      9.50e-03  
 Alpha HF Exchange    Energy = -10.79844873296521
 Beta HF Exchange     Energy = -10.61423645141540
 DFT Correlation      Energy =  -3.10163524645801
 DFT Exchange         Energy = -85.14483903732788
 One-Electron (alpha) Energy = -2038.64708850368925
 One-Electron (beta)  Energy = -2004.82488660257832
 Total Coulomb        Energy = 1303.89782701627450
    3   -2692.2184334974      4.12e-03  
 Alpha HF Exchange    Energy = -10.87274958805173
 Beta HF Exchange     Energy = -10.68033062028239
 DFT Correlation      Energy =  -3.12787066642563
 DFT Exchange         Energy = -85.71275595775020
 One-Electron (alpha) Energy = -2044.27550071314681
 One-Electron (beta)  Energy = -2009.85729737650036
 Total Coulomb        Energy = 1315.23323452482077
    4   -2692.2783963366      2.63e-03  
 Alpha HF Exchange    Energy = -10.84898492994624
 Beta HF Exchange     Energy = -10.65800438476461
 DFT Correlation      Energy =  -3.11838409571913
 DFT Exchange         Energy = -85.52435141537097
 One-Electron (alpha) Energy = -2042.62545061370088
 One-Electron (beta)  Energy = -2008.29274600233111
 Total Coulomb        Energy = 1311.73221671524675
    5   -2692.3208306658      3.11e-04  
 Alpha HF Exchange    Energy = -10.84687606148590
 Beta HF Exchange     Energy = -10.65657498145351
 DFT Correlation      Energy =  -3.11813664488491
 DFT Exchange         Energy = -85.51085146067598
 One-Electron (alpha) Energy = -2042.42793777509496
 One-Electron (beta)  Energy = -2008.11994494153964
 Total Coulomb        Energy = 1311.34417838320542
    6   -2692.3212694212      5.49e-05  
 Alpha HF Exchange    Energy = -10.84678727069304
 Beta HF Exchange     Energy = -10.65632449746001
 DFT Correlation      Energy =  -3.11800687614427
 DFT Exchange         Energy = -85.50938880786478
 One-Electron (alpha) Energy = -2042.41521322979315
 One-Electron (beta)  Energy = -2008.10067250666202
 Total Coulomb        Energy = 1311.31022928930406
    7   -2692.3212898385      1.63e-05  
 Alpha HF Exchange    Energy = -10.84685652215296
 Beta HF Exchange     Energy = -10.65638822850332
 DFT Correlation      Energy =  -3.11798768114930
 DFT Exchange         Energy = -85.50985134227541
 One-Electron (alpha) Energy = -2042.42486975581369
 One-Electron (beta)  Energy = -2008.10618599556210
 Total Coulomb        Energy = 1311.32597338102551
    8   -2692.3212920837      6.85e-06  
 Alpha HF Exchange    Energy = -10.84690292591516
 Beta HF Exchange     Energy = -10.65639212108521
 DFT Correlation      Energy =  -3.11799560942520
 DFT Exchange         Energy = -85.51005410872148
 One-Electron (alpha) Energy = -2042.42712642353717
 One-Electron (beta)  Energy = -2008.10580460850247
 Total Coulomb        Energy = 1311.32810875316272
    9   -2692.3212929833      2.45e-06  
 Alpha HF Exchange    Energy = -10.84690288909951
 Beta HF Exchange     Energy = -10.65638533794722
 DFT Correlation      Energy =  -3.11799045585747
 DFT Exchange         Energy = -85.51002165602667
 One-Electron (alpha) Energy = -2042.42674793811489
 One-Electron (beta)  Energy = -2008.10484355669564
 Total Coulomb        Energy = 1311.32672417127924
   10   -2692.3212936017      1.93e-06  
 Alpha HF Exchange    Energy = -10.84690295317111
 Beta HF Exchange     Energy = -10.65638447115437
 DFT Correlation      Energy =  -3.11798979180851
 DFT Exchange         Energy = -85.51001805927908
 One-Electron (alpha) Energy = -2042.42678941860913
 One-Electron (beta)  Energy = -2008.10479996275626
 Total Coulomb        Energy = 1311.32671661261702
   11   -2692.3212939834      1.78e-06  
 Alpha HF Exchange    Energy = -10.84690283264960
 Beta HF Exchange     Energy = -10.65638390976425
 DFT Correlation      Energy =  -3.11798965413172
 DFT Exchange         Energy = -85.51001554923624
 One-Electron (alpha) Energy = -2042.42676283207629
 One-Electron (beta)  Energy = -2008.10472236835744
 Total Coulomb        Energy = 1311.32660857438441
   12   -2692.3212945111      1.76e-06  
 Alpha HF Exchange    Energy = -10.84690298600808
 Beta HF Exchange     Energy = -10.65638437395291
 DFT Correlation      Energy =  -3.11798961885773
 DFT Exchange         Energy = -85.51001805956793
 One-Electron (alpha) Energy = -2042.42679767941377
 One-Electron (beta)  Energy = -2008.10463399265473
 Total Coulomb        Energy = 1311.32655674657985
   13   -2692.3212959031      1.73e-06  
 Alpha HF Exchange    Energy = -10.84690159473506
 Beta HF Exchange     Energy = -10.65638816351951
 DFT Correlation      Energy =  -3.11798873053750
 DFT Exchange         Energy = -85.51002609931840
 One-Electron (alpha) Energy = -2042.42668281943361
 One-Electron (beta)  Energy = -2008.10396520256381
 Total Coulomb        Energy = 1311.32577333238919
   14   -2692.3213052170      1.79e-06  
 Alpha HF Exchange    Energy = -10.84690147840938
 Beta HF Exchange     Energy = -10.65638803897452
 DFT Correlation      Energy =  -3.11798864357066
 DFT Exchange         Energy = -85.51002490512055
 One-Electron (alpha) Energy = -2042.42668990953894
 One-Electron (beta)  Energy = -2008.10387215164178
 Total Coulomb        Energy = 1311.32568518444509
   15   -2692.3213058820      1.73e-06  
 Alpha HF Exchange    Energy = -10.84689506664093
 Beta HF Exchange     Energy = -10.65645036202947
 DFT Correlation      Energy =  -3.11798143255473
 DFT Exchange         Energy = -85.51022038634345
 One-Electron (alpha) Energy = -2042.42612338760114
 One-Electron (beta)  Energy = -2008.10790060619479
 Total Coulomb        Energy = 1311.32936785006245
   16   -2692.3213293305      1.81e-05  
 Alpha HF Exchange    Energy = -10.84689676191415
 Beta HF Exchange     Energy = -10.65643001717911
 DFT Correlation      Energy =  -3.11798319340893
 DFT Exchange         Energy = -85.51015349568495
 One-Electron (alpha) Energy = -2042.42634815849192
 One-Electron (beta)  Energy = -2008.10583985720496
 Total Coulomb        Energy = 1311.32744894893381
   17   -2692.3213284742      1.23e-05  
 Alpha HF Exchange    Energy = -10.84689669802275
 Beta HF Exchange     Energy = -10.65643266931619
 DFT Correlation      Energy =  -3.11798312993488
 DFT Exchange         Energy = -85.51016369924886
 One-Electron (alpha) Energy = -2042.42631865399312
 One-Electron (beta)  Energy = -2008.10630066896442
 Total Coulomb        Energy = 1311.32789427121020
   18   -2692.3213271875      1.31e-05  
 Alpha HF Exchange    Energy = -10.84689706829365
 Beta HF Exchange     Energy = -10.65645962579050
 DFT Correlation      Energy =  -3.11798096471832
 DFT Exchange         Energy = -85.51025628262335
 One-Electron (alpha) Energy = -2042.42653255443747
 One-Electron (beta)  Energy = -2008.10832710100544
 Total Coulomb        Energy = 1311.33024616536932
   19   -2692.3213333707      2.02e-05  
 Alpha HF Exchange    Energy = -10.84689503271310
 Beta HF Exchange     Energy = -10.65646256588018
 DFT Correlation      Energy =  -3.11798011076139
 DFT Exchange         Energy = -85.51025594635547
 One-Electron (alpha) Energy = -2042.42632720842812
 One-Electron (beta)  Energy = -2008.10854275459110
 Total Coulomb        Energy = 1311.33025595941558
   20   -2692.3213335985      2.13e-05  
 Alpha HF Exchange    Energy = -10.84689543120511
 Beta HF Exchange     Energy = -10.65645485019543
 DFT Correlation      Energy =  -3.11798068693489
 DFT Exchange         Energy = -85.51022911001999
 One-Electron (alpha) Energy = -2042.42641062708094
 One-Electron (beta)  Energy = -2008.10765870774799
 Total Coulomb        Energy = 1311.32942089357721
   21   -2692.3213344588      1.91e-05  
 Alpha HF Exchange    Energy = -10.84689750326651
 Beta HF Exchange     Energy = -10.65643661339725
 DFT Correlation      Energy =  -3.11798225698932
 DFT Exchange         Energy = -85.51016919736162
 One-Electron (alpha) Energy = -2042.42673268984640
 One-Electron (beta)  Energy = -2008.10551195555649
 Total Coulomb        Energy = 1311.32751988988366
   22   -2692.3213362658      1.36e-05  
 Alpha HF Exchange    Energy = -10.84689984417624
 Beta HF Exchange     Energy = -10.65641097097394
 DFT Correlation      Energy =  -3.11798441601416
 DFT Exchange         Energy = -85.51008275260995
 One-Electron (alpha) Energy = -2042.42714273098613
 One-Electron (beta)  Energy = -2008.10249863790204
 Total Coulomb        Energy = 1311.32480751149228
   23   -2692.3213377804      6.04e-06  
 Alpha HF Exchange    Energy = -10.84690117832388
 Beta HF Exchange     Energy = -10.65639416576237
 DFT Correlation      Energy =  -3.11798565547968
 DFT Exchange         Energy = -85.51002533521087
 One-Electron (alpha) Energy = -2042.42737060854165
 One-Electron (beta)  Energy = -2008.10054144784567
 Total Coulomb        Energy = 1311.32300619974330
   24   -2692.3213381307      1.18e-06  
 Alpha HF Exchange    Energy = -10.84690153021496
 Beta HF Exchange     Energy = -10.65639095233521
 DFT Correlation      Energy =  -3.11798590970557
 DFT Exchange         Energy = -85.51001476528148
 One-Electron (alpha) Energy = -2042.42742740206199
 One-Electron (beta)  Energy = -2008.10016427318988
 Total Coulomb        Energy = 1311.32267262800383
   25   -2692.3213381440      2.18e-07  Convergence criterion met
 ---------------------------------------
 SCF time:   CPU 60.63s  wall 5.00s 
<S^2> =          2.005217094
 Alpha HF Exchange    Energy = -10.84690153021496
 Beta HF Exchange     Energy = -10.65639095233521
 DFT Correlation      Energy =  -3.11798590970557
 DFT Exchange         Energy = -85.51001476528148
 One-Electron (alpha) Energy = -2042.42742740206199
 One-Electron (beta)  Energy = -2008.10016427318988
 Total Coulomb        Energy = 1311.32267262800383
 Nuclear repulsion Energy = 157.01487406076691
 SCF   energy in the final basis set =    -2692.3213381440
 Total energy in the final basis set =    -2692.3213381440
 
 --------------------------------------------------------------
 
                    Orbital Energies (a.u.)
 --------------------------------------------------------------
 
 Alpha MOs
 -- Occupied --
******* -62.555 -56.380 -56.372 -56.372 -10.188 -10.187 -10.177
 -8.743  -6.579  -6.557  -6.557  -2.670  -2.665  -2.665  -2.648
 -2.648  -0.795  -0.780  -0.674  -0.580  -0.462  -0.428  -0.393
 -0.379  -0.369  -0.349  -0.333  -0.321  -0.321  -0.201
 -- Virtual --
  0.103   0.135   0.142   0.157   0.169   0.178   0.179   0.219
  0.229   0.270   0.291   0.313   0.314   0.513   0.532   0.533
  0.536   0.546   0.546   0.548   0.582   0.583   0.594   0.602
  0.656   0.695   0.785   0.811   0.857   0.876   0.882   0.909
  0.936   0.959   0.997   1.212   1.306   1.428   1.476   1.525
  1.599   1.680   1.681   1.820   1.871   1.953   1.974   1.999
  2.052   2.070   2.121   2.123   2.224   2.259   2.289   2.369
  2.437   2.449   2.520   2.572   2.675   2.709   2.741   2.802
  2.857   2.881   2.920   3.184   3.255   3.356   3.377   3.464
  3.477   3.553   4.238   4.428   4.604   4.650   4.658   4.658
  4.683   4.683   6.208  90.125
 
 Beta MOs
 -- Occupied --
******* -62.554 -56.374 -56.371 -56.371 -10.187 -10.176 -10.174
 -8.739  -6.569  -6.555  -6.555  -2.662  -2.659  -2.659  -2.647
 -2.647  -0.769  -0.752  -0.655  -0.566  -0.458  -0.422  -0.388
 -0.367  -0.344  -0.331  -0.307  -0.307
 -- Virtual --
 -0.233  -0.043   0.107   0.144   0.148   0.158   0.175   0.180
  0.185   0.223   0.234   0.279   0.317   0.318   0.319   0.517
  0.534   0.548   0.565   0.590   0.591   0.592   0.592   0.597
  0.597   0.638   0.667   0.711   0.789   0.818   0.860   0.878
  0.885   0.916   0.941   0.970   1.000   1.222   1.316   1.458
  1.481   1.540   1.621   1.681   1.698   1.830   1.876   1.956
  1.999   2.039   2.052   2.071   2.122   2.129   2.226   2.270
  2.290   2.375   2.442   2.460   2.529   2.596   2.681   2.710
  2.745   2.804   2.859   2.883   2.923   3.186   3.259   3.361
  3.379   3.466   3.483   3.556   4.257   4.445   4.607   4.669
  4.672   4.672   4.686   4.686   6.223  90.131
 --------------------------------------------------------------
 
          Ground-State Mulliken Net Atomic Charges

     Atom                 Charge (a.u.)    Spin (a.u.)
  --------------------------------------------------------
      1 Br                   -0.001609       1.000872
      2 C                    -0.189387      -0.073711
      3 C                    -0.226118       1.079181
      4 C                    -0.307107       0.050013
      5 H                     0.103045       0.012233
      6 H                     0.103275       0.013698
      7 H                     0.102001      -0.047355
      8 H                     0.102330      -0.047399
      9 H                     0.101617       0.013586
     10 H                     0.105908      -0.000614
     11 H                     0.106047      -0.000504
  --------------------------------------------------------
  Sum of atomic charges =    -0.000000
  Sum of spin   charges =     2.000000

 -----------------------------------------------------------------
                    Cartesian Multipole Moments
 -----------------------------------------------------------------
    Charge (ESU x 10^10)
                 0.0000
    Dipole Moment (Debye)
         X      -0.3273      Y       0.0307      Z       0.0018
       Tot       0.3288
    Quadrupole Moments (Debye-Ang)
        XX     -37.4175     XY      -0.5255     YY     -39.7228
        XZ       0.0640     YZ       0.0019     ZZ     -38.8258
    Octopole Moments (Debye-Ang^2)
       XXX    -159.4767    XXY       3.3331    XYY     -65.9971
       YYY       7.6947    XXZ       0.2186    XYZ       0.0000
       YYZ      -0.4362    XZZ     -66.0584    YZZ       1.6277
       ZZZ      -1.2955
    Hexadecapole Moments (Debye-Ang^3)
      XXXX   -2515.4310   XXXY      14.8147   XXYY    -493.9287
      XYYY      15.1978   YYYY     -90.7027   XXXZ      -1.6121
      XXYZ      -0.0354   XYYZ      -2.1911   YYYZ      -0.0854
      XXZZ    -490.7541   XYZZ       5.7098   YYZZ     -23.9502
      XZZZ      -6.4790   YZZZ      -0.0065   ZZZZ     -64.4339
 -----------------------------------------------------------------
 Calculating analytic gradient of the SCF energy
 Gradient of SCF Energy
            1           2           3           4           5           6
    1   0.0002982  -0.0000043  -0.0003320  -0.0000170  -0.0000025  -0.0000021
    2   0.0000223   0.0000128   0.0000242  -0.0000319  -0.0000037  -0.0000002
    3   0.0000128   0.0000093  -0.0000071  -0.0000048   0.0000047   0.0000008
            7           8           9          10          11
    1   0.0000187   0.0000321   0.0000101   0.0000018  -0.0000029
    2  -0.0000319  -0.0000305   0.0000099   0.0000159   0.0000131
    3  -0.0000287   0.0000223  -0.0000020  -0.0000053  -0.0000022
 Max gradient component =       3.320E-04
 RMS gradient           =       7.928E-05
 Gradient time:  CPU 8.77 s  wall 0.77 s
 Geometry Optimization Parameters
   NAtoms,    NIC,     NZ,  NCons,   NDum,   NFix, NCnnct, MaxDiis
       11      85       0       1       0       0       0       0


** CONSTRAINED OPTIMIZATION IN DELOCALIZED INTERNAL COORDINATES **
   Searching for a Minimum

   Optimization Cycle:   1

                       Coordinates (Angstroms)
     ATOM                X               Y               Z
      1  Br        4.7212920000   -0.0429090000    0.0234150000
      2  C        -0.9605160000    0.4857660000    0.0060220000
      3  C         0.1457510000   -0.5161000000    0.0007600000
      4  C        -2.3684110000   -0.1566150000   -0.0072520000
      5  H        -0.8788300000    1.1277440000    0.8926440000
      6  H        -0.8714350000    1.1450230000   -0.8673880000
      7  H         0.4815140000   -0.9675060000   -0.9280730000
      8  H         0.4950700000   -0.9642040000    0.9261020000
      9  H        -3.1480050000    0.6132210000   -0.0035430000
     10  H        -2.5074600000   -0.7770420000   -0.8982900000
     11  H        -2.5161790000   -0.7947770000    0.8697010000
   Point Group: c1    Number of degrees of freedom:    27


   Energy is  -2692.321338144

              Constraints and their Current Values
                                        Value     Constraint
   Distance(Angs):        1   3             4.600000     4.500000

 Attempting to Generate Delocalized Internal Coordinates

   Using Lagrange Multiplier Algorithm


 28 Hessian modes will be used to form the next step
  Hessian Eigenvalues:
    -0.997651    0.045000    0.045000    0.048169    0.050620    0.067876
     0.078159    0.083025    0.083051    0.083396    0.084343    0.088567
     0.104428    0.132643    0.160000    0.160000    0.160000    0.219528
     0.278580    0.328040    0.331759    0.339146    0.339397    0.341689
     0.342831    0.342873    0.343145    1.002354

 Minimum Search - Taking P-RFO Step
 Searching for Lamda that Maximizes Along the Constraint modes Only
 Value Taken    Lamda =   0.01757002
 Searching for Lamda that Minimizes Along All other modes
 Value Taken    Lamda =  -0.01752481
 Step Taken.  Stepsize is  0.185714

                             Maximum     Tolerance    Cnvgd?
         Gradient            0.188972       0.000300      NO
         Displacement        0.185713       0.001200      NO
         Energy change     *********       0.000001      NO


 New Cartesian Coordinates Obtained by Inverse Iteration

 Displacement from previous Coordinates is:  0.238726
 ----------------------------------------------------------------
             Standard Nuclear Orientation (Angstroms)
    I     Atom           X                Y                Z
 ----------------------------------------------------------------
    1      Br      4.6264200785    -0.0011937366     0.0233563783
    2      C      -0.9399117972     0.4779096878     0.0060783518
    3      C       0.1564795532    -0.5347136937     0.0007387371
    4      C      -2.3539657581    -0.1507652096    -0.0071274051
    5      H      -0.8519045240     1.1190351991     0.8927118280
    6      H      -0.8444309196     1.1363033241    -0.8673071575
    7      H       0.4599633492    -0.9834030600    -0.9349263523
    8      H       0.4731846399    -0.9797166496     0.9322779121
    9      H      -3.1261411989     0.6265151566    -0.0033395845
   10      H      -2.4990702398    -0.7698280037    -0.8981589054
   11      H      -2.5078321832    -0.7875420144     0.8697941975
 ----------------------------------------------------------------
 Nuclear Repulsion Energy =   158.6392449462 hartrees
 There are       31 alpha and       29 beta electrons

                       Distance Matrix (Angstroms)
             Br(  1)   C (  2)   C (  3)   C (  4)   H (  5)   H (  6)
   C (  2)  5.586939
   C (  3)  4.501724  1.492484
   C (  4)  6.982055  1.547564  2.539648
   H (  5)  5.658863  1.097682  2.132449  2.162936
   H (  6)  5.658391  1.097908  2.132516  2.162210  1.760120
   H (  7)  4.386616  2.231720  1.081154  3.077709  3.079205  2.489814
   H (  8)  4.362684  2.231448  1.079859  3.092317  2.482375  3.074436
   H (  9)  7.777978  2.191294  3.481963  1.095643  2.493519  2.492494
   H ( 10)  7.225829  2.192138  2.813404  1.094637  3.080288  2.524306
   H ( 11)  7.227196  2.192201  2.813847  1.094601  2.525403  3.079871
             H (  7)   H (  8)   H (  9)   H ( 10)
   H (  8)  1.867255
   H (  9)  4.039782  4.050988
   H ( 10)  2.966959  3.496977  1.773046
   H ( 11)  3.478964  2.987858  1.773197  1.768064
 
 Applying Cartesian multipole field
    Component          Value
    ---------          -----
     (2,0,0)        1.00000E-11
     (0,2,0)        2.00000E-10
     (0,0,2)       -3.00000E-10
 Nucleus-field energy     =     0.0000000304 hartrees
 Requested basis set is 6-31G(d,p)
 There are 41 shells and 115 basis functions
 A cutoff of  1.0D-14 yielded    725 shell pairs
 There are      5299 function pairs
 Smallest overlap matrix eigenvalue = 7.27E-04
 Guess from superposition of atomic densities
 Warning:  Energy on first SCF cycle will be non-variational
 SAD guess density has 59.972873 electrons

 -----------------------------------------------------------------------
  General SCF calculation program by
  Eric Jon Sundstrom, Paul Horn, Yuezhi Mao, Dmitri Zuev, Alec White,
  David Stuck, Shaama M.S., Shane Yost, Joonho Lee, David Small,
  Daniel Levine, Susi Lehtola, Hugh Burton, Evgeny Epifanovsky
 -----------------------------------------------------------------------
 Exchange:     0.2000 Hartree-Fock + 0.0800 Slater + 0.7200 B88
 Correlation:  0.1900 VWN1RPA + 0.8100 LYP
 Using SG-1 standard quadrature grid
 using 12 threads for integral computing
 -------------------------------------------------------
 OpenMP Integral computing Module                
 Release: version 1.0, May 2013, Q-Chem Inc. Pittsburgh 
 -------------------------------------------------------
 -------------------------------------------------------
 OpenMP BLAS3 based DFT computing Module                
 Release: version 1.0, May 2013, Q-Chem Inc. Pittsburgh 
 -------------------------------------------------------
 A unrestricted SCF calculation will be
 performed using DIIS
 SCF converges when DIIS error is below 1.0e-06
 Alpha HF Exchange    Energy = -10.71170295175907
 Beta HF Exchange     Energy = -10.71170295175907
 DFT Correlation      Energy =  -3.10442424971172
 DFT Exchange         Energy = -84.97429978867672
 One-Electron (alpha) Energy = -2025.26912190689927
 One-Electron (beta)  Energy = -2025.26912190689927
 Total Coulomb        Energy = 1305.88611224251122
 ---------------------------------------
  Cycle       Energy         DIIS error
 ---------------------------------------
    1   -2695.5150165366      1.64e-01  
 Alpha HF Exchange    Energy = -10.89629681097748
 Beta HF Exchange     Energy = -10.70166396272738
 DFT Correlation      Energy =  -3.13675406111775
 DFT Exchange         Energy = -85.90004077027949
 One-Electron (alpha) Energy = -2047.82623594859388
 One-Electron (beta)  Energy = -2013.34841448369184
 Total Coulomb        Energy = 1320.95346115427787
    2   -2692.2166999065      9.50e-03  
 Alpha HF Exchange    Energy = -10.79880465943024
 Beta HF Exchange     Energy = -10.61454203716526
 DFT Correlation      Energy =  -3.10187412342356
 DFT Exchange         Energy = -85.14719994630025
 One-Electron (alpha) Energy = -2040.34502465555079
 One-Electron (beta)  Energy = -2006.37799455022150
 Total Coulomb        Energy = 1305.52814681467294
    3   -2692.2180481808      4.12e-03  
 Alpha HF Exchange    Energy = -10.87318983811360
 Beta HF Exchange     Energy = -10.68073339006954
 DFT Correlation      Energy =  -3.12808478033474
 DFT Exchange         Energy = -85.71569684748508
 One-Electron (alpha) Energy = -2045.97352188847390
 One-Electron (beta)  Energy = -2011.41087955145372
 Total Coulomb        Energy = 1316.86444463364387
    4   -2692.2784166857      2.63e-03  
 Alpha HF Exchange    Energy = -10.84946728778274
 Beta HF Exchange     Energy = -10.65841661270683
 DFT Correlation      Energy =  -3.11863529402854
 DFT Exchange         Energy = -85.52754650619688
 One-Electron (alpha) Energy = -2044.32806256723916
 One-Electron (beta)  Energy = -2009.84941887201694
 Total Coulomb        Energy = 1313.37163904244358
    5   -2692.3206631209      3.15e-04  
 Alpha HF Exchange    Energy = -10.84734929434296
 Beta HF Exchange     Energy = -10.65700005768772
 DFT Correlation      Energy =  -3.11838325070247
 DFT Exchange         Energy = -85.51404882245006
 One-Electron (alpha) Energy = -2044.13082278648199
 One-Electron (beta)  Energy = -2009.67684986785616
 Total Coulomb        Energy = 1312.98409112610670
    6   -2692.3211179768      5.50e-05  
 Alpha HF Exchange    Energy = -10.84725423939379
 Beta HF Exchange     Energy = -10.65674558430452
 DFT Correlation      Energy =  -3.11825326090499
 DFT Exchange         Energy = -85.51254726913224
 One-Electron (alpha) Energy = -2044.11747499918965
 One-Electron (beta)  Energy = -2009.65702285599764
 Total Coulomb        Energy = 1312.94891439733874
    7   -2692.3211388350      1.64e-05  
 Alpha HF Exchange    Energy = -10.84732398258940
 Beta HF Exchange     Energy = -10.65681041384382
 DFT Correlation      Energy =  -3.11823424643388
 DFT Exchange         Energy = -85.51301564421195
 One-Electron (alpha) Energy = -2044.12720963929769
 One-Electron (beta)  Energy = -2009.66258570720311
 Total Coulomb        Energy = 1312.96479337543315
    8   -2692.3211412815      6.90e-06  
 Alpha HF Exchange    Energy = -10.84736917778059
 Beta HF Exchange     Energy = -10.65681456564619
 DFT Correlation      Energy =  -3.11824203066545
 DFT Exchange         Energy = -85.51321447071449
 One-Electron (alpha) Energy = -2044.12941585545036
 One-Electron (beta)  Energy = -2009.66216999898188
 Total Coulomb        Energy = 1312.96683869398248
    9   -2692.3211424286      2.76e-06  
 Alpha HF Exchange    Energy = -10.84736919919608
 Beta HF Exchange     Energy = -10.65680819334684
 DFT Correlation      Energy =  -3.11823695568583
 DFT Exchange         Energy = -85.51318394982360
 One-Electron (alpha) Energy = -2044.12904957815385
 One-Electron (beta)  Energy = -2009.66119707959592
 Total Coulomb        Energy = 1312.96545663288293
   10   -2692.3211433463      2.32e-06  
 Alpha HF Exchange    Energy = -10.84736917845348
 Beta HF Exchange     Energy = -10.65680732926248
 DFT Correlation      Energy =  -3.11823621345934
 DFT Exchange         Energy = -85.51317999174731
 One-Electron (alpha) Energy = -2044.12908746706921
 One-Electron (beta)  Energy = -2009.66112780769436
 Total Coulomb        Energy = 1312.96541908458266
   11   -2692.3211439265      2.19e-06  
 Alpha HF Exchange    Energy = -10.84736901518860
 Beta HF Exchange     Energy = -10.65680675953418
 DFT Correlation      Energy =  -3.11823600651376
 DFT Exchange         Energy = -85.51317730858011
 One-Electron (alpha) Energy = -2044.12905840152780
 One-Electron (beta)  Energy = -2009.66101245499249
 Total Coulomb        Energy = 1312.96527021370002
   12   -2692.3211447560      2.17e-06  
 Alpha HF Exchange    Energy = -10.84736914555317
 Beta HF Exchange     Energy = -10.65680746297736
 DFT Correlation      Energy =  -3.11823575298286
 DFT Exchange         Energy = -85.51318069254772
 One-Electron (alpha) Energy = -2044.12910524050426
 One-Electron (beta)  Energy = -2009.66080474480896
 Total Coulomb        Energy = 1312.96511071219993
   13   -2692.3211473506      2.14e-06  
 Alpha HF Exchange    Energy = -10.84736677461012
 Beta HF Exchange     Energy = -10.65681447670573
 DFT Correlation      Energy =  -3.11823318842531
 DFT Exchange         Energy = -85.51319679992586
 One-Electron (alpha) Energy = -2044.12893722944409
 One-Electron (beta)  Energy = -2009.65967276858782
 Total Coulomb        Energy = 1312.96381312333074
   14   -2692.3211631378      2.59e-06  
 Alpha HF Exchange    Energy = -10.84736680525176
 Beta HF Exchange     Energy = -10.65681398005800
 DFT Correlation      Energy =  -3.11823325197385
 DFT Exchange         Energy = -85.51319504530812
 One-Electron (alpha) Energy = -2044.12894342795948
 One-Electron (beta)  Energy = -2009.65965266165335
 Total Coulomb        Energy = 1312.96379735859045
   15   -2692.3211628370      2.49e-06  
 Alpha HF Exchange    Energy = -10.84734988615250
 Beta HF Exchange     Energy = -10.65698453179113
 DFT Correlation      Energy =  -3.11821265577575
 DFT Exchange         Energy = -85.51374570726969
 One-Electron (alpha) Energy = -2044.12705221855140
 One-Electron (beta)  Energy = -2009.67359719666274
 Total Coulomb        Energy = 1312.97651282491961
   16   -2692.3211843947      5.01e-05  
 Alpha HF Exchange    Energy = -10.84735929416587
 Beta HF Exchange     Energy = -10.65688714089095
 DFT Correlation      Energy =  -3.11822220516914
 DFT Exchange         Energy = -85.51342792211318
 One-Electron (alpha) Energy = -2044.12835754102070
 One-Electron (beta)  Energy = -2009.66357882891498
 Total Coulomb        Energy = 1312.96739329931961
   17   -2692.3211946563      2.18e-05  
 Alpha HF Exchange    Energy = -10.84735934925473
 Beta HF Exchange     Energy = -10.65688609335222
 DFT Correlation      Energy =  -3.11822226515773
 DFT Exchange         Energy = -85.51342423102821
 One-Electron (alpha) Energy = -2044.12836783731905
 One-Electron (beta)  Energy = -2009.66344512701903
 Total Coulomb        Energy = 1312.96726507788503
   18   -2692.3211948486      2.15e-05  
 Alpha HF Exchange    Energy = -10.84736009697002
 Beta HF Exchange     Energy = -10.65689963094148
 DFT Correlation      Energy =  -3.11821991324858
 DFT Exchange         Energy = -85.51346937737031
 One-Electron (alpha) Energy = -2044.12870461290322
 One-Electron (beta)  Energy = -2009.66333882703611
 Total Coulomb        Energy = 1312.96754327609733
   19   -2692.3212042058      2.49e-05  
 Alpha HF Exchange    Energy = -10.84735776861310
 Beta HF Exchange     Energy = -10.65690590485558
 DFT Correlation      Energy =  -3.11821822261673
 DFT Exchange         Energy = -85.51347713813891
 One-Electron (alpha) Energy = -2044.12855403703588
 One-Electron (beta)  Energy = -2009.66353629541595
 Total Coulomb        Energy = 1312.96759919482406
   20   -2692.3212051952      2.69e-05  
 Alpha HF Exchange    Energy = -10.84735960569082
 Beta HF Exchange     Energy = -10.65687343100452
 DFT Correlation      Energy =  -3.11822045590939
 DFT Exchange         Energy = -85.51336308341739
 One-Electron (alpha) Energy = -2044.12892482317557
 One-Electron (beta)  Energy = -2009.65968521741843
 Total Coulomb        Energy = 1312.96397229736726
   21   -2692.3212093426      1.75e-05  
 Alpha HF Exchange    Energy = -10.84736406032275
 Beta HF Exchange     Energy = -10.65683957599437
 DFT Correlation      Energy =  -3.11822344703633
 DFT Exchange         Energy = -85.51325518120423
 One-Electron (alpha) Energy = -2044.12956985710048
 One-Electron (beta)  Energy = -2009.65567802112787
 Total Coulomb        Energy = 1312.96047333688603
   22   -2692.3212118293      7.27e-06  
 Alpha HF Exchange    Energy = -10.84736549041798
 Beta HF Exchange     Energy = -10.65682329269593
 DFT Correlation      Energy =  -3.11822469317209
 DFT Exchange         Energy = -85.51320017662002
 One-Electron (alpha) Energy = -2044.12983010173616
 One-Electron (beta)  Energy = -2009.65374381157471
 Total Coulomb        Energy = 1312.95873029640234
   23   -2692.3212122932      2.51e-06  
 Alpha HF Exchange    Energy = -10.84736639370037
 Beta HF Exchange     Energy = -10.65681445648923
 DFT Correlation      Energy =  -3.11822533678349
 DFT Exchange         Energy = -85.51317090017491
 One-Electron (alpha) Energy = -2044.12996760615943
 One-Electron (beta)  Energy = -2009.65270260087505
 Total Coulomb        Energy = 1312.95778996226613
   24   -2692.3212123553      5.58e-08  Convergence criterion met
 ---------------------------------------
 SCF time:   CPU 57.55s  wall 5.00s 
<S^2> =          2.005149061
 Alpha HF Exchange    Energy = -10.84736639370037
 Beta HF Exchange     Energy = -10.65681445648923
 DFT Correlation      Energy =  -3.11822533678349
 DFT Exchange         Energy = -85.51317090017491
 One-Electron (alpha) Energy = -2044.12996760615943
 One-Electron (beta)  Energy = -2009.65270260087505
 Total Coulomb        Energy = 1312.95778996226613
 Nuclear repulsion Energy = 158.63924497661483
 SCF   energy in the final basis set =    -2692.3212123553
 Total energy in the final basis set =    -2692.3212123553
 
 --------------------------------------------------------------
 
                    Orbital Energies (a.u.)
 --------------------------------------------------------------
 
 Alpha MOs
 -- Occupied --
******* -62.555 -56.379 -56.372 -56.372 -10.187 -10.186 -10.177
 -8.742  -6.579  -6.557  -6.557  -2.670  -2.664  -2.664  -2.648
 -2.648  -0.795  -0.780  -0.674  -0.580  -0.464  -0.427  -0.395
 -0.379  -0.369  -0.348  -0.333  -0.321  -0.321  -0.201
 -- Virtual --
  0.102   0.137   0.143   0.157   0.168   0.179   0.180   0.219
  0.229   0.268   0.291   0.314   0.314   0.513   0.529   0.535
  0.536   0.546   0.546   0.548   0.583   0.583   0.596   0.604
  0.657   0.697   0.782   0.810   0.857   0.879   0.881   0.911
  0.936   0.959   1.001   1.215   1.306   1.419   1.476   1.538
  1.600   1.681   1.681   1.821   1.877   1.941   1.974   2.009
  2.051   2.070   2.115   2.123   2.231   2.257   2.292   2.369
  2.440   2.450   2.515   2.586   2.677   2.721   2.741   2.800
  2.843   2.882   2.916   3.184   3.263   3.375   3.380   3.467
  3.479   3.550   4.240   4.430   4.603   4.651   4.658   4.658
  4.684   4.684   6.208  90.126
 
 Beta MOs
 -- Occupied --
******* -62.554 -56.374 -56.371 -56.371 -10.187 -10.176 -10.174
 -8.738  -6.568  -6.555  -6.555  -2.662  -2.658  -2.658  -2.647
 -2.647  -0.770  -0.751  -0.656  -0.566  -0.460  -0.421  -0.390
 -0.367  -0.343  -0.331  -0.307  -0.307
 -- Virtual --
 -0.233  -0.044   0.106   0.145   0.149   0.158   0.175   0.181
  0.186   0.223   0.234   0.277   0.317   0.319   0.320   0.518
  0.536   0.546   0.564   0.590   0.591   0.592   0.593   0.597
  0.599   0.641   0.668   0.714   0.786   0.817   0.861   0.881
  0.884   0.918   0.941   0.970   1.004   1.226   1.316   1.449
  1.480   1.552   1.621   1.682   1.699   1.831   1.882   1.944
  2.000   2.046   2.052   2.071   2.116   2.131   2.232   2.268
  2.293   2.375   2.445   2.462   2.524   2.610   2.683   2.723
  2.745   2.803   2.846   2.884   2.919   3.185   3.267   3.377
  3.385   3.469   3.485   3.552   4.259   4.446   4.606   4.670
  4.673   4.673   4.686   4.686   6.224  90.132
 --------------------------------------------------------------
 
          Ground-State Mulliken Net Atomic Charges

     Atom                 Charge (a.u.)    Spin (a.u.)
  --------------------------------------------------------
      1 Br                   -0.002113       1.001173
      2 C                    -0.190525      -0.073103
      3 C                    -0.224822       1.077140
      4 C                    -0.307018       0.050275
      5 H                     0.102310       0.012079
      6 H                     0.102569       0.013537
      7 H                     0.102979      -0.046801
      8 H                     0.103449      -0.046800
      9 H                     0.101960       0.013653
     10 H                     0.105540      -0.000631
     11 H                     0.105672      -0.000523
  --------------------------------------------------------
  Sum of atomic charges =    -0.000000
  Sum of spin   charges =     2.000000

 -----------------------------------------------------------------
                    Cartesian Multipole Moments
 -----------------------------------------------------------------
    Charge (ESU x 10^10)
                 0.0000
    Dipole Moment (Debye)
         X      -0.3548      Y       0.0188      Z       0.0023
       Tot       0.3553
    Quadrupole Moments (Debye-Ang)
        XX     -37.5379     XY      -0.3509     YY     -39.7143
        XZ       0.0621     YZ       0.0039     ZZ     -38.7663
    Octopole Moments (Debye-Ang^2)
       XXX    -156.0849    XXY       3.9280    XYY     -64.4588
       YYY       5.6672    XXZ       0.1851    XYZ       0.0167
       YYZ      -0.4347    XZZ     -64.5398    YZZ       0.8881
       ZZZ      -1.2923
    Hexadecapole Moments (Debye-Ang^3)
      XXXX   -2427.5858   XXXY      13.2382   XXYY    -476.2559
      XYYY       4.2686   YYYY     -90.8919   XXXZ      -1.8008
      XXYZ       0.0517   XYYZ      -2.1402   YYYZ      -0.1404
      XXZZ    -473.2989   XYZZ       2.0930   YYZZ     -23.9469
      XZZZ      -6.3300   YZZZ      -0.0620   ZZZZ     -64.3613
 -----------------------------------------------------------------
 Calculating analytic gradient of the SCF energy
 Gradient of SCF Energy
            1           2           3           4           5           6
    1   0.0002827   0.0002681   0.0050915  -0.0000936   0.0001247   0.0001331
    2   0.0000436  -0.0010996  -0.0054572  -0.0000243  -0.0000996  -0.0000940
    3   0.0000160   0.0000302   0.0006756  -0.0000054  -0.0000077   0.0000104
            7           8           9          10          11
    1  -0.0028075  -0.0030788   0.0000134   0.0000340   0.0000324
    2   0.0031284   0.0034984   0.0000345   0.0000359   0.0000339
    3   0.0010331  -0.0017426  -0.0000032   0.0000187  -0.0000252
 Max gradient component =       5.457E-03
 RMS gradient           =       1.750E-03
 Gradient time:  CPU 8.81 s  wall 0.78 s
 Geometry Optimization Parameters
   NAtoms,    NIC,     NZ,  NCons,   NDum,   NFix, NCnnct, MaxDiis
       11      85       0       1       0       0       0       0

 Cartesian Hessian Update
 Hessian Updated using BFGS Update


** CONSTRAINED OPTIMIZATION IN DELOCALIZED INTERNAL COORDINATES **
   Searching for a Minimum

   Optimization Cycle:   2

                       Coordinates (Angstroms)
     ATOM                X               Y               Z
      1  Br        4.6264200785   -0.0011937366    0.0233563783
      2  C        -0.9399117972    0.4779096878    0.0060783518
      3  C         0.1564795532   -0.5347136937    0.0007387371
      4  C        -2.3539657581   -0.1507652096   -0.0071274051
      5  H        -0.8519045240    1.1190351991    0.8927118280
      6  H        -0.8444309196    1.1363033241   -0.8673071575
      7  H         0.4599633492   -0.9834030600   -0.9349263523
      8  H         0.4731846399   -0.9797166496    0.9322779121
      9  H        -3.1261411989    0.6265151566   -0.0033395845
     10  H        -2.4990702398   -0.7698280037   -0.8981589054
     11  H        -2.5078321832   -0.7875420144    0.8697941975
   Point Group: c1    Number of degrees of freedom:    27


   Energy is  -2692.321212355

              Constraints and their Current Values
                                        Value     Constraint
   Distance(Angs):        1   3             4.501724     4.500000
 Hessian Updated using BFGS Update

   Using Lagrange Multiplier Algorithm


 27 Hessian modes will be used to form the next step
  Hessian Eigenvalues:
    -0.995111    0.045000    0.045000    0.048169    0.050620    0.067875
     0.078159    0.083025    0.083050    0.084343    0.088458    0.102372
     0.105711    0.132643    0.159999    0.160010    0.219734    0.278581
     0.328227    0.332385    0.339147    0.339398    0.341689    0.342831
     0.342872    0.416090    1.006062

 Minimum Search - Taking P-RFO Step
 Searching for Lamda that Maximizes Along the Constraint modes Only
 Value Taken    Lamda =   0.00000897
 Searching for Lamda that Minimizes Along All other modes
 Value Taken    Lamda =  -0.00012773
 Step Taken.  Stepsize is  0.026731

                             Maximum     Tolerance    Cnvgd?
         Gradient            0.003259       0.000300      NO
         Displacement        0.019311       0.001200      NO
         Energy change      0.000126       0.000001      NO


 New Cartesian Coordinates Obtained by Inverse Iteration

 Displacement from previous Coordinates is:  0.020376
 ----------------------------------------------------------------
             Standard Nuclear Orientation (Angstroms)
    I     Atom           X                Y                Z
 ----------------------------------------------------------------
    1      Br      4.6239255090     0.0009776121     0.0231954020
    2      C      -0.9405230278     0.4792733090     0.0060389497
    3      C       0.1560241733    -0.5350755516     0.0007062271
    4      C      -2.3545141566    -0.1495884923    -0.0071827699
    5      H      -0.8529449909     1.1205927404     0.8926471017
    6      H      -0.8454850978     1.1378943481    -0.8672925856
    7      H       0.4638906947    -0.9884468556    -0.9347377139
    8      H       0.4774171038    -0.9852374596     0.9326216660
    9      H      -3.1269265865     0.6274364377    -0.0033707987
   10      H      -2.4996523527    -0.7687218941    -0.8982170120
   11      H      -2.5084202684    -0.7865031942     0.8696895335
 ----------------------------------------------------------------
 Nuclear Repulsion Energy =   158.6215714179 hartrees
 There are       31 alpha and       29 beta electrons

                       Distance Matrix (Angstroms)
             Br(  1)   C (  2)   C (  3)   C (  4)   H (  5)   H (  6)
   C (  2)  5.584993
   C (  3)  4.500000  1.493770
   C (  4)  6.980130  1.547583  2.539973
   H (  5)  5.657349  1.097741  2.134201  2.162814
   H (  6)  5.656854  1.097963  2.134308  2.162075  1.760041
   H (  7)  4.382064  2.238669  1.084151  3.083415  3.085683  2.498067
   H (  8)  4.358120  2.239174  1.083700  3.098609  2.491181  3.081793
   H (  9)  7.776173  2.191438  3.482702  1.095629  2.493400  2.492369
   H ( 10)  7.224043  2.192272  2.813409  1.094684  3.080316  2.524364
   H ( 11)  7.225444  2.192347  2.813825  1.094647  2.525498  3.079897
             H (  7)   H (  8)   H (  9)   H ( 10)
   H (  8)  1.867411
   H (  9)  4.046294  4.058090
   H ( 10)  2.971902  3.501684  1.772986
   H ( 11)  3.483012  2.993106  1.773136  1.768018
 
 Applying Cartesian multipole field
    Component          Value
    ---------          -----
     (2,0,0)        1.00000E-11
     (0,2,0)        2.00000E-10
     (0,0,2)       -3.00000E-10
 Nucleus-field energy     =     0.0000000304 hartrees
 Requested basis set is 6-31G(d,p)
 There are 41 shells and 115 basis functions
 A cutoff of  1.0D-14 yielded    725 shell pairs
 There are      5299 function pairs
 Smallest overlap matrix eigenvalue = 7.27E-04
 Guess from superposition of atomic densities
 Warning:  Energy on first SCF cycle will be non-variational
 SAD guess density has 59.972873 electrons

 -----------------------------------------------------------------------
  General SCF calculation program by
  Eric Jon Sundstrom, Paul Horn, Yuezhi Mao, Dmitri Zuev, Alec White,
  David Stuck, Shaama M.S., Shane Yost, Joonho Lee, David Small,
  Daniel Levine, Susi Lehtola, Hugh Burton, Evgeny Epifanovsky
 -----------------------------------------------------------------------
 Exchange:     0.2000 Hartree-Fock + 0.0800 Slater + 0.7200 B88
 Correlation:  0.1900 VWN1RPA + 0.8100 LYP
 Using SG-1 standard quadrature grid
 using 12 threads for integral computing
 -------------------------------------------------------
 OpenMP Integral computing Module                
 Release: version 1.0, May 2013, Q-Chem Inc. Pittsburgh 
 -------------------------------------------------------
 -------------------------------------------------------
 OpenMP BLAS3 based DFT computing Module                
 Release: version 1.0, May 2013, Q-Chem Inc. Pittsburgh 
 -------------------------------------------------------
 A unrestricted SCF calculation will be
 performed using DIIS
 SCF converges when DIIS error is below 1.0e-06
 Alpha HF Exchange    Energy = -10.71112187207420
 Beta HF Exchange     Energy = -10.71112187207420
 DFT Correlation      Energy =  -3.10429331171962
 DFT Exchange         Energy = -84.97306729588361
 One-Electron (alpha) Energy = -2025.25578592560464
 One-Electron (beta)  Energy = -2025.25578592560464
 Total Coulomb        Energy = 1305.87873771444151
 ---------------------------------------
  Cycle       Energy         DIIS error
 ---------------------------------------
    1   -2695.5108670402      1.64e-01  
 Alpha HF Exchange    Energy = -10.89583561403908
 Beta HF Exchange     Energy = -10.70128593271376
 DFT Correlation      Energy =  -3.13655964966051
 DFT Exchange         Energy = -85.89694510363483
 One-Electron (alpha) Energy = -2047.80556326487317
 One-Electron (beta)  Energy = -2013.32983098597265
 Total Coulomb        Energy = 1320.92735111548882
    2   -2692.2170979871      9.50e-03  
 Alpha HF Exchange    Energy = -10.79853100326551
 Beta HF Exchange     Energy = -10.61426224029609
 DFT Correlation      Energy =  -3.10172144967336
 DFT Exchange         Energy = -85.14523080834843
 One-Electron (alpha) Energy = -2040.33183844047130
 One-Electron (beta)  Energy = -2006.36396231888898
 Total Coulomb        Energy = 1305.51569744859603
    3   -2692.2182773640      4.12e-03  
 Alpha HF Exchange    Energy = -10.87285938289234
 Beta HF Exchange     Energy = -10.68042143713940
 DFT Correlation      Energy =  -3.12792905915822
 DFT Exchange         Energy = -85.71341184333718
 One-Electron (alpha) Energy = -2045.95913827932918
 One-Electron (beta)  Energy = -2011.39648427437805
 Total Coulomb        Energy = 1316.85027942205807
    4   -2692.2783934059      2.63e-03  
 Alpha HF Exchange    Energy = -10.84912620031191
 Beta HF Exchange     Energy = -10.65809492502463
 DFT Correlation      Energy =  -3.11846601403217
 DFT Exchange         Energy = -85.52515986138366
 One-Electron (alpha) Energy = -2044.31271823591555
 One-Electron (beta)  Energy = -2009.83387223243562
 Total Coulomb        Energy = 1313.35510778931393
    5   -2692.3207582315      3.14e-04  
 Alpha HF Exchange    Energy = -10.84700738456798
 Beta HF Exchange     Energy = -10.65666939480963
 DFT Correlation      Energy =  -3.11821438035151
 DFT Exchange         Energy = -85.51162705178754
 One-Electron (alpha) Energy = -2044.11483905353180
 One-Electron (beta)  Energy = -2009.66054131567944
 Total Coulomb        Energy = 1312.96612018352062
    6   -2692.3212069489      5.51e-05  
 Alpha HF Exchange    Energy = -10.84691579568620
 Beta HF Exchange     Energy = -10.65641655480051
 DFT Correlation      Energy =  -3.11808460893865
 DFT Exchange         Energy = -85.51014508162754
 One-Electron (alpha) Energy = -2044.10177592397940
 One-Electron (beta)  Energy = -2009.64087984118282
 Total Coulomb        Energy = 1312.93141851681776
    7   -2692.3212278411      1.65e-05  
 Alpha HF Exchange    Energy = -10.84698494543038
 Beta HF Exchange     Energy = -10.65648073863925
 DFT Correlation      Energy =  -3.11806517324286
 DFT Exchange         Energy = -85.51060829330865
 One-Electron (alpha) Energy = -2044.11148295378780
 One-Electron (beta)  Energy = -2009.64637911361683
 Total Coulomb        Energy = 1312.94719943364885
    8   -2692.3212303361      6.95e-06  
 Alpha HF Exchange    Energy = -10.84703102617928
 Beta HF Exchange     Energy = -10.65648496193435
 DFT Correlation      Energy =  -3.11807301876703
 DFT Exchange         Energy = -85.51081091174248
 One-Electron (alpha) Energy = -2044.11374651156052
 One-Electron (beta)  Energy = -2009.64596746182110
 Total Coulomb        Energy = 1312.94931092033858
    9   -2692.3212315234      2.80e-06  
 Alpha HF Exchange    Energy = -10.84703103019506
 Beta HF Exchange     Energy = -10.65647840742012
 DFT Correlation      Energy =  -3.11806784117469
 DFT Exchange         Energy = -85.51077953376131
 One-Electron (alpha) Energy = -2044.11337748148026
 One-Electron (beta)  Energy = -2009.64497207803220
 Total Coulomb        Energy = 1312.94790244383103
   10   -2692.3212324799      2.36e-06  
 Alpha HF Exchange    Energy = -10.84703103315979
 Beta HF Exchange     Energy = -10.65647752298944
 DFT Correlation      Energy =  -3.11806710735658
 DFT Exchange         Energy = -85.51077561595815
 One-Electron (alpha) Energy = -2044.11341644539857
 One-Electron (beta)  Energy = -2009.64489851650978
 Total Coulomb        Energy = 1312.94786170818838
   11   -2692.3212330849      2.24e-06  
 Alpha HF Exchange    Energy = -10.84703087906082
 Beta HF Exchange     Energy = -10.65647695472014
 DFT Correlation      Energy =  -3.11806689189699
 DFT Exchange         Energy = -85.51077296558071
 One-Electron (alpha) Energy = -2044.11338903675778
 One-Electron (beta)  Energy = -2009.64477913368660
 Total Coulomb        Energy = 1312.94771046677170
   12   -2692.3212339466      2.21e-06  
 Alpha HF Exchange    Energy = -10.84703101158348
 Beta HF Exchange     Energy = -10.65647765875274
 DFT Correlation      Energy =  -3.11806661548136
 DFT Exchange         Energy = -85.51077635295802
 One-Electron (alpha) Energy = -2044.11343725477241
 One-Electron (beta)  Energy = -2009.64455607853529
 Total Coulomb        Energy = 1312.94753685933733
   13   -2692.3212366644      2.18e-06  
 Alpha HF Exchange    Energy = -10.84702863834400
 Beta HF Exchange     Energy = -10.65648481744114
 DFT Correlation      Energy =  -3.11806391611867
 DFT Exchange         Energy = -85.51079291364744
 One-Electron (alpha) Energy = -2044.11327457517677
 One-Electron (beta)  Energy = -2009.64336945058812
 Total Coulomb        Energy = 1312.94618984596877
   14   -2692.3212530170      2.66e-06  
 Alpha HF Exchange    Energy = -10.84702866908527
 Beta HF Exchange     Energy = -10.65648435166841
 DFT Correlation      Energy =  -3.11806398081910
 DFT Exchange         Energy = -85.51079128232516
 One-Electron (alpha) Energy = -2044.11328013508819
 One-Electron (beta)  Energy = -2009.64335335571673
 Total Coulomb        Energy = 1312.94617761274117
   15   -2692.3212527137      2.57e-06  
 Alpha HF Exchange    Energy = -10.84701086924945
 Beta HF Exchange     Energy = -10.65666372533212
 DFT Correlation      Energy =  -3.11804207842186
 DFT Exchange         Energy = -85.51137081653471
 One-Electron (alpha) Energy = -2044.11127318598687
 One-Electron (beta)  Energy = -2009.65804262658003
 Total Coulomb        Energy = 1312.95955774275330
   16   -2692.3212741110      5.28e-05  
 Alpha HF Exchange    Energy = -10.84702071824294
 Beta HF Exchange     Energy = -10.65656202704614
 DFT Correlation      Energy =  -3.11805215760193
 DFT Exchange         Energy = -85.51103885745991
 One-Electron (alpha) Energy = -2044.11264629936250
 One-Electron (beta)  Energy = -2009.64757842177164
 Total Coulomb        Energy = 1312.95004112729839
   17   -2692.3212859059      2.32e-05  
 Alpha HF Exchange    Energy = -10.84702078011634
 Beta HF Exchange     Energy = -10.65656089301764
 DFT Correlation      Energy =  -3.11805222578653
 DFT Exchange         Energy = -85.51103487491788
 One-Electron (alpha) Energy = -2044.11265764046539
 One-Electron (beta)  Energy = -2009.64743513452254
 Total Coulomb        Energy = 1312.94990398405594
   18   -2692.3212861165      2.29e-05  
 Alpha HF Exchange    Energy = -10.84702136877750
 Beta HF Exchange     Energy = -10.65657510587698
 DFT Correlation      Energy =  -3.11804969574827
 DFT Exchange         Energy = -85.51108179370220
 One-Electron (alpha) Energy = -2044.11297796547933
 One-Electron (beta)  Energy = -2009.64735396137485
 Total Coulomb        Energy = 1312.95019250628184
   19   -2692.3212959364      2.64e-05  
 Alpha HF Exchange    Energy = -10.84701879457954
 Beta HF Exchange     Energy = -10.65658396190861
 DFT Correlation      Energy =  -3.11804771428600
 DFT Exchange         Energy = -85.51109773044391
 One-Electron (alpha) Energy = -2044.11280014886552
 One-Electron (beta)  Energy = -2009.64780659873372
 Total Coulomb        Energy = 1312.95048675530893
   20   -2692.3212967452      2.92e-05  
 Alpha HF Exchange    Energy = -10.84702041204083
 Beta HF Exchange     Energy = -10.65655221942990
 DFT Correlation      Energy =  -3.11804984883380
 DFT Exchange         Energy = -85.51098541731572
 One-Electron (alpha) Energy = -2044.11314796822876
 One-Electron (beta)  Energy = -2009.64403882853753
 Total Coulomb        Energy = 1312.94692200483905
   21   -2692.3213012412      2.01e-05  
 Alpha HF Exchange    Energy = -10.84702524265668
 Beta HF Exchange     Energy = -10.65651593749583
 DFT Correlation      Energy =  -3.11805308472793
 DFT Exchange         Energy = -85.51086998946937
 One-Electron (alpha) Energy = -2044.11384618165152
 One-Electron (beta)  Energy = -2009.63974292258672
 Total Coulomb        Energy = 1312.94317752470533
   22   -2692.3213043856      9.10e-06  
 Alpha HF Exchange    Energy = -10.84702706449935
 Beta HF Exchange     Energy = -10.65649572953474
 DFT Correlation      Energy =  -3.11805464646080
 DFT Exchange         Energy = -85.51080189433775
 One-Electron (alpha) Energy = -2044.11417385692494
 One-Electron (beta)  Energy = -2009.63734020118500
 Total Coulomb        Energy = 1312.94101683451277
   23   -2692.3213051101      3.18e-06  
 Alpha HF Exchange    Energy = -10.84702819829224
 Beta HF Exchange     Energy = -10.65648459991359
 DFT Correlation      Energy =  -3.11805545748692
 DFT Exchange         Energy = -85.51076499250331
 One-Electron (alpha) Energy = -2044.11434732202338
 One-Electron (beta)  Energy = -2009.63602797388967
 Total Coulomb        Energy = 1312.93983188615903
   24   -2692.3213052096      5.30e-08  Convergence criterion met
 ---------------------------------------
 SCF time:   CPU 57.65s  wall 5.00s 
<S^2> =          2.005176628
 Alpha HF Exchange    Energy = -10.84702819829224
 Beta HF Exchange     Energy = -10.65648459991359
 DFT Correlation      Energy =  -3.11805545748692
 DFT Exchange         Energy = -85.51076499250331
 One-Electron (alpha) Energy = -2044.11434732202338
 One-Electron (beta)  Energy = -2009.63602797388967
 Total Coulomb        Energy = 1312.93983188615903
 Nuclear repulsion Energy = 158.62157144830712
 SCF   energy in the final basis set =    -2692.3213052096
 Total energy in the final basis set =    -2692.3213052096
 
 --------------------------------------------------------------
 
                    Orbital Energies (a.u.)
 --------------------------------------------------------------
 
 Alpha MOs
 -- Occupied --
******* -62.555 -56.379 -56.372 -56.372 -10.188 -10.186 -10.177
 -8.742  -6.579  -6.557  -6.557  -2.670  -2.664  -2.664  -2.648
 -2.648  -0.795  -0.780  -0.674  -0.580  -0.464  -0.427  -0.395
 -0.379  -0.369  -0.349  -0.333  -0.321  -0.321  -0.201
 -- Virtual --
  0.102   0.136   0.142   0.157   0.168   0.179   0.179   0.218
  0.229   0.268   0.291   0.314   0.314   0.513   0.530   0.534
  0.536   0.546   0.546   0.548   0.583   0.583   0.595   0.605
  0.656   0.697   0.782   0.810   0.857   0.878   0.881   0.910
  0.935   0.958   0.999   1.214   1.306   1.420   1.476   1.535
  1.600   1.681   1.681   1.821   1.875   1.942   1.972   2.006
  2.051   2.070   2.117   2.123   2.229   2.256   2.291   2.368
  2.437   2.449   2.515   2.580   2.677   2.716   2.741   2.799
  2.844   2.882   2.915   3.184   3.260   3.369   3.376   3.466
  3.475   3.550   4.239   4.429   4.603   4.651   4.658   4.658
  4.684   4.684   6.208  90.126
 
 Beta MOs
 -- Occupied --
******* -62.554 -56.374 -56.371 -56.371 -10.187 -10.176 -10.174
 -8.738  -6.568  -6.555  -6.555  -2.662  -2.658  -2.658  -2.647
 -2.647  -0.770  -0.751  -0.655  -0.566  -0.459  -0.421  -0.390
 -0.367  -0.343  -0.331  -0.307  -0.307
 -- Virtual --
 -0.233  -0.043   0.106   0.144   0.148   0.158   0.175   0.180
  0.186   0.222   0.234   0.277   0.317   0.319   0.320   0.518
  0.535   0.547   0.564   0.590   0.591   0.592   0.593   0.597
  0.598   0.641   0.667   0.714   0.786   0.817   0.860   0.880
  0.884   0.917   0.941   0.970   1.002   1.225   1.316   1.450
  1.480   1.550   1.621   1.682   1.699   1.830   1.879   1.946
  1.999   2.043   2.052   2.071   2.117   2.131   2.230   2.268
  2.292   2.375   2.442   2.461   2.524   2.604   2.682   2.718
  2.745   2.802   2.847   2.884   2.919   3.185   3.263   3.374
  3.378   3.468   3.481   3.552   4.258   4.445   4.606   4.670
  4.673   4.673   4.686   4.686   6.224  90.132
 --------------------------------------------------------------
 
          Ground-State Mulliken Net Atomic Charges

     Atom                 Charge (a.u.)    Spin (a.u.)
  --------------------------------------------------------
      1 Br                   -0.002121       1.001181
      2 C                    -0.190188      -0.073133
      3 C                    -0.225278       1.077785
      4 C                    -0.307115       0.050035
      5 H                     0.102622       0.012017
      6 H                     0.102870       0.013462
      7 H                     0.102742      -0.046915
      8 H                     0.103110      -0.046944
      9 H                     0.101922       0.013673
     10 H                     0.105650      -0.000635
     11 H                     0.105787      -0.000527
  --------------------------------------------------------
  Sum of atomic charges =    -0.000000
  Sum of spin   charges =     2.000000

 -----------------------------------------------------------------
                    Cartesian Multipole Moments
 -----------------------------------------------------------------
    Charge (ESU x 10^10)
                 0.0000
    Dipole Moment (Debye)
         X      -0.3567      Y       0.0209      Z       0.0020
       Tot       0.3573
    Quadrupole Moments (Debye-Ang)
        XX     -37.5324     XY      -0.3639     YY     -39.7047
        XZ       0.0598     YZ       0.0038     ZZ     -38.7839
    Octopole Moments (Debye-Ang^2)
       XXX    -155.9730    XXY       3.8841    XYY     -64.4035
       YYY       5.5337    XXZ       0.1671    XYZ       0.0159
       YYZ      -0.4316    XZZ     -64.4923    YZZ       0.8514
       ZZZ      -1.2833
    Hexadecapole Moments (Debye-Ang^3)
      XXXX   -2425.5353   XXXY      12.8637   XXYY    -475.8614
      XYYY       3.7966   YYYY     -91.0429   XXXZ      -1.9161
      XXYZ       0.0496   XYYZ      -2.1272   YYYZ      -0.1400
      XXZZ    -472.8978   XYZZ       1.9316   YYZZ     -23.9696
      XZZZ      -6.2926   YZZZ      -0.0618   ZZZZ     -64.4199
 -----------------------------------------------------------------
 Calculating analytic gradient of the SCF energy
 Gradient of SCF Energy
            1           2           3           4           5           6
    1   0.0002812  -0.0000932   0.0034803  -0.0000712  -0.0000105  -0.0000114
    2   0.0000484  -0.0003982  -0.0034686   0.0000478   0.0000168   0.0000275
    3   0.0000163   0.0000086   0.0001938  -0.0000045   0.0000167  -0.0000091
            7           8           9          10          11
    1  -0.0017708  -0.0018303   0.0000053   0.0000119   0.0000087
    2   0.0017992   0.0019124   0.0000027   0.0000075   0.0000046
    3  -0.0003218   0.0001106  -0.0000031  -0.0000012  -0.0000063
 Max gradient component =       3.480E-03
 RMS gradient           =       1.072E-03
 Gradient time:  CPU 8.82 s  wall 0.76 s
 Geometry Optimization Parameters
   NAtoms,    NIC,     NZ,  NCons,   NDum,   NFix, NCnnct, MaxDiis
       11      85       0       1       0       0       0       0

 Cartesian Hessian Update
 Hessian Updated using BFGS Update


** CONSTRAINED OPTIMIZATION IN DELOCALIZED INTERNAL COORDINATES **
   Searching for a Minimum

   Optimization Cycle:   3

                       Coordinates (Angstroms)
     ATOM                X               Y               Z
      1  Br        4.6239255090    0.0009776121    0.0231954020
      2  C        -0.9405230278    0.4792733090    0.0060389497
      3  C         0.1560241733   -0.5350755516    0.0007062271
      4  C        -2.3545141566   -0.1495884923   -0.0071827699
      5  H        -0.8529449909    1.1205927404    0.8926471017
      6  H        -0.8454850978    1.1378943481   -0.8672925856
      7  H         0.4638906947   -0.9884468556   -0.9347377139
      8  H         0.4774171038   -0.9852374596    0.9326216660
      9  H        -3.1269265865    0.6274364377   -0.0033707987
     10  H        -2.4996523527   -0.7687218941   -0.8982170120
     11  H        -2.5084202684   -0.7865031942    0.8696895335
   Point Group: c1    Number of degrees of freedom:    27


   Energy is  -2692.321305210

              Constraints and their Current Values
                                        Value     Constraint
   Distance(Angs):        1   3             4.500000     4.500000
 Hessian Updated using BFGS Update

 26 Hessian modes will be used to form the next step
  Hessian Eigenvalues:
     0.042916    0.045000    0.045004    0.048172    0.050631    0.067876
     0.078175    0.083025    0.083051    0.084348    0.088485    0.105126
     0.132644    0.160000    0.160000    0.160018    0.219532    0.278581
     0.328167    0.331716    0.339114    0.339373    0.341688    0.342831
     0.342872    0.441087

 Minimum Search - Taking Simple RFO Step
 Searching for Lamda that Minimizes Along All modes
 Value Taken    Lamda =  -0.00013591
 Step Taken.  Stepsize is  0.055223

                             Maximum     Tolerance    Cnvgd?
         Gradient           0.001927      0.000300      NO
         Displacement       0.041819      0.001200      NO
         Energy change     -0.000093      0.000001      NO


 New Cartesian Coordinates Obtained by Inverse Iteration

 Displacement from previous Coordinates is:  0.035631
 ----------------------------------------------------------------
             Standard Nuclear Orientation (Angstroms)
    I     Atom           X                Y                Z
 ----------------------------------------------------------------
    1      Br      4.6206578007     0.0052474738     0.0229172493
    2      C      -0.9419101154     0.4810449052     0.0060546150
    3      C       0.1532176776    -0.5346493742     0.0007532450
    4      C      -2.3558746805    -0.1476609687    -0.0072472996
    5      H      -0.8535123696     1.1220928517     0.8926590757
    6      H      -0.8459092146     1.1393784986    -0.8672580204
    7      H       0.4710125078    -0.9968237016    -0.9301666367
    8      H       0.4845266816    -0.9939846811     0.9285638555
    9      H      -3.1282797926     0.6293899582    -0.0034258644
   10      H      -2.5011455494    -0.7667726832    -0.8982957470
   11      H      -2.5099919458    -0.7846612787     0.8695435276
 ----------------------------------------------------------------
 Nuclear Repulsion Energy =   158.6213997290 hartrees
 There are       31 alpha and       29 beta electrons

                       Distance Matrix (Angstroms)
             Br(  1)   C (  2)   C (  3)   C (  4)   H (  5)   H (  6)
   C (  2)  5.582905
   C (  3)  4.500000  1.493642
   C (  4)  6.978273  1.547496  2.538773
   H (  5)  5.654231  1.097645  2.133963  2.163146
   H (  6)  5.653496  1.097859  2.134026  2.162426  1.760018
   H (  7)  4.374022  2.248768  1.086835  3.092596  3.093035  2.510299
   H (  8)  4.350430  2.249768  1.087008  3.108036  2.503881  3.089705
   H (  9)  7.774078  2.191417  3.481843  1.095642  2.494051  2.493092
   H ( 10)  7.222516  2.192285  2.812084  1.094701  3.080589  2.524714
   H ( 11)  7.224050  2.192374  2.812470  1.094661  2.525900  3.080192
             H (  7)   H (  8)   H (  9)   H ( 10)
   H (  8)  1.858782
   H (  9)  4.056886  4.068946
   H ( 10)  2.981218  3.507603  1.772952
   H ( 11)  3.488604  3.002406  1.773104  1.767952
 
 Applying Cartesian multipole field
    Component          Value
    ---------          -----
     (2,0,0)        1.00000E-11
     (0,2,0)        2.00000E-10
     (0,0,2)       -3.00000E-10
 Nucleus-field energy     =     0.0000000304 hartrees
 Requested basis set is 6-31G(d,p)
 There are 41 shells and 115 basis functions
 A cutoff of  1.0D-14 yielded    725 shell pairs
 There are      5299 function pairs
 Smallest overlap matrix eigenvalue = 7.27E-04
 Guess from superposition of atomic densities
 Warning:  Energy on first SCF cycle will be non-variational
 SAD guess density has 59.972873 electrons

 -----------------------------------------------------------------------
  General SCF calculation program by
  Eric Jon Sundstrom, Paul Horn, Yuezhi Mao, Dmitri Zuev, Alec White,
  David Stuck, Shaama M.S., Shane Yost, Joonho Lee, David Small,
  Daniel Levine, Susi Lehtola, Hugh Burton, Evgeny Epifanovsky
 -----------------------------------------------------------------------
 Exchange:     0.2000 Hartree-Fock + 0.0800 Slater + 0.7200 B88
 Correlation:  0.1900 VWN1RPA + 0.8100 LYP
 Using SG-1 standard quadrature grid
 using 12 threads for integral computing
 -------------------------------------------------------
 OpenMP Integral computing Module                
 Release: version 1.0, May 2013, Q-Chem Inc. Pittsburgh 
 -------------------------------------------------------
 -------------------------------------------------------
 OpenMP BLAS3 based DFT computing Module                
 Release: version 1.0, May 2013, Q-Chem Inc. Pittsburgh 
 -------------------------------------------------------
 A unrestricted SCF calculation will be
 performed using DIIS
 SCF converges when DIIS error is below 1.0e-06
 Alpha HF Exchange    Energy = -10.71076493526432
 Beta HF Exchange     Energy = -10.71076493526432
 DFT Correlation      Energy =  -3.10420583474197
 DFT Exchange         Energy = -84.97231049559738
 One-Electron (alpha) Energy = -2025.25858946693256
 One-Electron (beta)  Energy = -2025.25858946693256
 Total Coulomb        Energy = 1305.88517386141257
 ---------------------------------------
  Cycle       Energy         DIIS error
 ---------------------------------------
    1   -2695.5086515139      1.64e-01  
 Alpha HF Exchange    Energy = -10.89550408173705
 Beta HF Exchange     Energy = -10.70100812776745
 DFT Correlation      Energy =  -3.13642704774839
 DFT Exchange         Energy = -85.89470329100224
 One-Electron (alpha) Energy = -2047.80197119995069
 One-Electron (beta)  Energy = -2013.32759083867336
 Total Coulomb        Energy = 1320.91836151895836
    2   -2692.2174433085      9.50e-03  
 Alpha HF Exchange    Energy = -10.79834440157647
 Beta HF Exchange     Energy = -10.61408657430718
 DFT Correlation      Energy =  -3.10162072961612
 DFT Exchange         Energy = -85.14394912741776
 One-Electron (alpha) Energy = -2040.33396837028045
 One-Electron (beta)  Energy = -2006.36572749466632
 Total Coulomb        Energy = 1305.51783396248425
    3   -2692.2184629759      4.12e-03  
 Alpha HF Exchange    Energy = -10.87264600820553
 Beta HF Exchange     Energy = -10.68020143577343
 DFT Correlation      Energy =  -3.12783660725250
 DFT Exchange         Energy = -85.71190105265823
 One-Electron (alpha) Energy = -2045.96171858858634
 One-Electron (beta)  Energy = -2011.39873249833386
 Total Coulomb        Energy = 1316.85328310274417
    4   -2692.2783533286      2.63e-03  
 Alpha HF Exchange    Energy = -10.84888223636250
 Beta HF Exchange     Energy = -10.65786854582203
 DFT Correlation      Energy =  -3.11835248547456
 DFT Exchange         Energy = -85.52347498559348
 One-Electron (alpha) Energy = -2044.31315755486207
 One-Electron (beta)  Energy = -2009.83437647489131
 Total Coulomb        Energy = 1313.35387598703733
    5   -2692.3208365365      3.12e-04  
 Alpha HF Exchange    Energy = -10.84676954377878
 Beta HF Exchange     Energy = -10.65643579777070
 DFT Correlation      Energy =  -3.11810432392600
 DFT Exchange         Energy = -85.50994507405761
 One-Electron (alpha) Energy = -2044.11495916610352
 One-Electron (beta)  Energy = -2009.66053384053589
 Total Coulomb        Energy = 1312.96407190714422
    6   -2692.3212760796      5.50e-05  
 Alpha HF Exchange    Energy = -10.84668137454141
 Beta HF Exchange     Energy = -10.65618509823051
 DFT Correlation      Energy =  -3.11797439496809
 DFT Exchange         Energy = -85.50848352898134
 One-Electron (alpha) Energy = -2044.10227864916556
 One-Electron (beta)  Energy = -2009.64113917929149
 Total Coulomb        Energy = 1312.93004554175718
    7   -2692.3212969240      1.65e-05  
 Alpha HF Exchange    Energy = -10.84675004139774
 Beta HF Exchange     Energy = -10.65624867475156
 DFT Correlation      Energy =  -3.11795476629483
 DFT Exchange         Energy = -85.50894259521296
 One-Electron (alpha) Energy = -2044.11194090361414
 One-Electron (beta)  Energy = -2009.64655893923714
 Total Coulomb        Energy = 1312.94569669147859
    8   -2692.3212994696      7.01e-06  
 Alpha HF Exchange    Energy = -10.84679686289737
 Beta HF Exchange     Energy = -10.65625281246811
 DFT Correlation      Energy =  -3.11796262527387
 DFT Exchange         Energy = -85.50914779873722
[...]
 Beta HF Exchange     Energy = -10.61419531618775
 DFT Correlation      Energy =  -3.10167709058362
 DFT Exchange         Energy = -85.14467339416143
 One-Electron (alpha) Energy = -2040.36462846678910
 One-Electron (beta)  Energy = -2006.39585525442953
 Total Coulomb        Energy = 1305.54771819369421
    3   -2692.2184473793      4.12e-03  
 Alpha HF Exchange    Energy = -10.87276346114604
 Beta HF Exchange     Energy = -10.68030576829990
 DFT Correlation      Energy =  -3.12789855464685
 DFT Exchange         Energy = -85.71270963836388
 One-Electron (alpha) Energy = -2045.99311477417359
 One-Electron (beta)  Energy = -2011.42893383331284
 Total Coulomb        Energy = 1316.88403647730547
    4   -2692.2783884020      2.63e-03  
 Alpha HF Exchange    Energy = -10.84899079029964
 Beta HF Exchange     Energy = -10.65797730266362
 DFT Correlation      Energy =  -3.11841310029308
 DFT Exchange         Energy = -85.52426499709361
 One-Electron (alpha) Energy = -2044.34414079871499
 One-Electron (beta)  Energy = -2009.86456873738030
 Total Coulomb        Energy = 1313.38421343628556
    5   -2692.3208411395      3.11e-04  
 Alpha HF Exchange    Energy = -10.84688251186701
 Beta HF Exchange     Energy = -10.65654768361165
 DFT Correlation      Energy =  -3.11816665003288
 DFT Exchange         Energy = -85.51076615485208
 One-Electron (alpha) Energy = -2044.14629290058497
 One-Electron (beta)  Energy = -2009.69105670297381
 Total Coulomb        Energy = 1312.99513133285041
    6   -2692.3212801205      5.50e-05  
 Alpha HF Exchange    Energy = -10.84679356333344
 Beta HF Exchange     Energy = -10.65629687815263
 DFT Correlation      Energy =  -3.11803647230245
 DFT Exchange         Energy = -85.50930068040608
 One-Electron (alpha) Energy = -2044.13359546602101
 One-Electron (beta)  Energy = -2009.67167255087497
 Total Coulomb        Energy = 1312.96109355106000
    7   -2692.3213009094      1.64e-05  
 Alpha HF Exchange    Energy = -10.84686243147497
 Beta HF Exchange     Energy = -10.65636063019657
 DFT Correlation      Energy =  -3.11801705332830
 DFT Exchange         Energy = -85.50976150362415
 One-Electron (alpha) Energy = -2044.14325785285200
 One-Electron (beta)  Energy = -2009.67709943080013
 Total Coulomb        Energy = 1312.97675430249751
    8   -2692.3213034492      7.01e-06  
 Alpha HF Exchange    Energy = -10.84690899360266
 Beta HF Exchange     Energy = -10.65636466643088
 DFT Correlation      Energy =  -3.11802487450556
 DFT Exchange         Energy = -85.50996527078024
 One-Electron (alpha) Energy = -2044.14554800020892
 One-Electron (beta)  Energy = -2009.67667534371708
 Total Coulomb        Energy = 1312.97888130216938
    9   -2692.3213046965      2.86e-06  
 Alpha HF Exchange    Energy = -10.84690897991604
 Beta HF Exchange     Energy = -10.65635795029973
 DFT Correlation      Energy =  -3.11801963947889
 DFT Exchange         Energy = -85.50993316573417
 One-Electron (alpha) Energy = -2044.14517516008937
 One-Electron (beta)  Energy = -2009.67565362062714
 Total Coulomb        Energy = 1312.97744164818914
   10   -2692.3213057173      2.43e-06  
 Alpha HF Exchange    Energy = -10.84690902331997
 Beta HF Exchange     Energy = -10.65635706791174
 DFT Correlation      Energy =  -3.11801890432744
 DFT Exchange         Energy = -85.50992941783831
 One-Electron (alpha) Energy = -2044.14521897156010
 One-Electron (beta)  Energy = -2009.67557447711738
 Total Coulomb        Energy = 1312.97740034861727
   11   -2692.3213063628      2.31e-06  
 Alpha HF Exchange    Energy = -10.84690888011419
 Beta HF Exchange     Energy = -10.65635649426660
 DFT Correlation      Energy =  -3.11801867283682
 DFT Exchange         Energy = -85.50992677801892
 One-Electron (alpha) Energy = -2044.14519409734658
 One-Electron (beta)  Energy = -2009.67544483854454
 Total Coulomb        Energy = 1312.97724132347344
   12   -2692.3213072870      2.29e-06  
 Alpha HF Exchange    Energy = -10.84690901058488
 Beta HF Exchange     Energy = -10.65635718098422
 DFT Correlation      Energy =  -3.11801834312402
 DFT Exchange         Energy = -85.50993006858677
 One-Electron (alpha) Energy = -2044.14524452828232
 One-Electron (beta)  Energy = -2009.67518560801545
 Total Coulomb        Energy = 1312.97703336362656
   13   -2692.3213102253      2.26e-06  
 Alpha HF Exchange    Energy = -10.84690670258679
 Beta HF Exchange     Energy = -10.65636445984514
 DFT Correlation      Energy =  -3.11801537355046
 DFT Exchange         Energy = -85.50994716925426
 One-Electron (alpha) Energy = -2044.14510174126667
 One-Electron (beta)  Energy = -2009.67385958199520
 Total Coulomb        Energy = 1312.97556638783612
   14   -2692.3213274900      2.76e-06  
 Alpha HF Exchange    Energy = -10.84690672918657
 Beta HF Exchange     Energy = -10.65636408449532
 DFT Correlation      Energy =  -3.11801543376245
 DFT Exchange         Energy = -85.50994587043637
 One-Electron (alpha) Energy = -2044.14510574612541
 One-Electron (beta)  Energy = -2009.67385115322236
 Total Coulomb        Energy = 1312.97556065092363
   15   -2692.3213272157      2.69e-06  
 Alpha HF Exchange    Energy = -10.84688783273432
 Beta HF Exchange     Energy = -10.65655637466850
 DFT Correlation      Energy =  -3.11799103573172
 DFT Exchange         Energy = -85.51056872957093
 One-Electron (alpha) Energy = -2044.14296365336827
 One-Electron (beta)  Energy = -2009.68935430634838
 Total Coulomb        Energy = 1312.98967097445166
   16   -2692.3213498073      5.68e-05  
 Alpha HF Exchange    Energy = -10.84689803262984
 Beta HF Exchange     Energy = -10.65645048304977
 DFT Correlation      Energy =  -3.11800186700883
 DFT Exchange         Energy = -85.51022229486730
 One-Electron (alpha) Energy = -2044.14439493907958
 One-Electron (beta)  Energy = -2009.67852731277935
 Total Coulomb        Energy = 1312.97983040302483
   17   -2692.3213633758      2.59e-05  
 Alpha HF Exchange    Energy = -10.84689809389121
 Beta HF Exchange     Energy = -10.65644938702371
 DFT Correlation      Energy =  -3.11800193730830
 DFT Exchange         Energy = -85.51021845652474
 One-Electron (alpha) Energy = -2044.14440595404244
 One-Electron (beta)  Energy = -2009.67839127729962
 Total Coulomb        Energy = 1312.97970036519678
   18   -2692.3213635903      2.56e-05  
 Alpha HF Exchange    Energy = -10.84689807224036
 Beta HF Exchange     Energy = -10.65646740454354
 DFT Correlation      Energy =  -3.11799870701398
 DFT Exchange         Energy = -85.51027691856662
 One-Electron (alpha) Energy = -2044.14464362189506
 One-Electron (beta)  Energy = -2009.67861116906624
 Total Coulomb        Energy = 1312.98022028338687
   19   -2692.3213744593      3.03e-05  
 Alpha HF Exchange    Energy = -10.84689437088154
 Beta HF Exchange     Energy = -10.65648664640911
 DFT Correlation      Energy =  -3.11799555024036
 DFT Exchange         Energy = -85.51032578041779
 One-Electron (alpha) Energy = -2044.14431890556284
 One-Electron (beta)  Energy = -2009.68013887692950
 Total Coulomb        Energy = 1312.98148492435735
   20   -2692.3213740555      3.62e-05  
 Alpha HF Exchange    Energy = -10.84689502310122
 Beta HF Exchange     Energy = -10.65646183630589
 DFT Correlation      Energy =  -3.11799705702679
 DFT Exchange         Energy = -85.51023516572923
 One-Electron (alpha) Energy = -2044.14453954551186
 One-Electron (beta)  Energy = -2009.67718132666414
 Total Coulomb        Energy = 1312.97863009813432
   21   -2692.3213787056      2.91e-05  
 Alpha HF Exchange    Energy = -10.84690008639971
 Beta HF Exchange     Energy = -10.65642574663106
 DFT Correlation      Energy =  -3.11800040781112
 DFT Exchange         Energy = -85.51012127622866
 One-Electron (alpha) Energy = -2044.14526584097143
 One-Electron (beta)  Energy = -2009.67290847155823
 Total Coulomb        Energy = 1312.97493686285156
   22   -2692.3213838161      1.81e-05  
 Alpha HF Exchange    Energy = -10.84690342689575
 Beta HF Exchange     Energy = -10.65639017191877
 DFT Correlation      Energy =  -3.11800323443303
 DFT Exchange         Energy = -85.51000173287507
 One-Electron (alpha) Energy = -2044.14585781067990
 One-Electron (beta)  Energy = -2009.66866498235845
 Total Coulomb        Energy = 1312.97113368281475
   23   -2692.3213865257      7.66e-06  
 Alpha HF Exchange    Energy = -10.84690598878274
 Beta HF Exchange     Energy = -10.65636477843293
 DFT Correlation      Energy =  -3.11800511109645
 DFT Exchange         Energy = -85.50991729629946
 One-Electron (alpha) Energy = -2044.14625764802304
 One-Electron (beta)  Energy = -2009.66566414512113
 Total Coulomb        Energy = 1312.96842671144168
   24   -2692.3213871057      2.94e-07  Convergence criterion met
 ---------------------------------------
 SCF time:   CPU 57.71s  wall 5.00s 
<S^2> =          2.005194547
 Alpha HF Exchange    Energy = -10.84690598878274
 Beta HF Exchange     Energy = -10.65636477843293
 DFT Correlation      Energy =  -3.11800511109645
 DFT Exchange         Energy = -85.50991729629946
 One-Electron (alpha) Energy = -2044.14625764802304
 One-Electron (beta)  Energy = -2009.66566414512113
 Total Coulomb        Energy = 1312.96842671144168
 Nuclear repulsion Energy = 158.65330115062108
 SCF   energy in the final basis set =    -2692.3213871057
 Total energy in the final basis set =    -2692.3213871057
 
 --------------------------------------------------------------
 
                    Orbital Energies (a.u.)
 --------------------------------------------------------------
 
 Alpha MOs
 -- Occupied --
******* -62.555 -56.379 -56.372 -56.372 -10.188 -10.187 -10.178
 -8.742  -6.579  -6.557  -6.557  -2.670  -2.664  -2.664  -2.648
 -2.648  -0.795  -0.780  -0.674  -0.581  -0.463  -0.428  -0.393
 -0.379  -0.369  -0.350  -0.333  -0.321  -0.321  -0.201
 -- Virtual --
  0.103   0.135   0.142   0.157   0.169   0.179   0.179   0.218
  0.229   0.270   0.291   0.314   0.314   0.513   0.531   0.533
  0.536   0.546   0.546   0.548   0.583   0.583   0.594   0.606
  0.656   0.696   0.783   0.811   0.856   0.877   0.881   0.909
  0.936   0.958   0.996   1.213   1.305   1.424   1.476   1.529
  1.599   1.680   1.681   1.820   1.871   1.954   1.971   2.003
  2.051   2.070   2.121   2.123   2.224   2.257   2.288   2.370
  2.434   2.451   2.518   2.572   2.676   2.709   2.741   2.803
  2.854   2.881   2.919   3.184   3.255   3.355   3.376   3.464
  3.479   3.552   4.237   4.428   4.604   4.651   4.658   4.658
  4.684   4.684   6.208  90.126
 
 Beta MOs
 -- Occupied --
******* -62.554 -56.374 -56.371 -56.371 -10.188 -10.176 -10.174
 -8.738  -6.568  -6.555  -6.555  -2.662  -2.658  -2.658  -2.647
 -2.647  -0.770  -0.751  -0.655  -0.567  -0.458  -0.422  -0.388
 -0.367  -0.344  -0.331  -0.307  -0.307
 -- Virtual --
 -0.233  -0.043   0.106   0.144   0.148   0.158   0.175   0.180
  0.186   0.223   0.234   0.279   0.317   0.319   0.320   0.517
  0.534   0.548   0.565   0.590   0.591   0.592   0.593   0.597
  0.597   0.642   0.667   0.713   0.787   0.818   0.860   0.878
  0.884   0.916   0.941   0.970   0.999   1.223   1.315   1.453
  1.480   1.545   1.620   1.681   1.699   1.830   1.875   1.957
  1.997   2.041   2.052   2.071   2.122   2.130   2.226   2.268
  2.289   2.375   2.439   2.462   2.527   2.596   2.682   2.711
  2.745   2.806   2.857   2.883   2.923   3.185   3.259   3.360
  3.378   3.466   3.485   3.554   4.257   4.444   4.606   4.670
  4.673   4.673   4.686   4.686   6.224  90.132
 --------------------------------------------------------------
 
          Ground-State Mulliken Net Atomic Charges

     Atom                 Charge (a.u.)    Spin (a.u.)
  --------------------------------------------------------
      1 Br                   -0.002108       1.001194
      2 C                    -0.189609      -0.073314
      3 C                    -0.226254       1.077949
      4 C                    -0.307270       0.050120
      5 H                     0.103250       0.012067
      6 H                     0.103487       0.013507
      7 H                     0.102166      -0.047002
      8 H                     0.102472      -0.047047
      9 H                     0.101844       0.013700
     10 H                     0.105945      -0.000641
     11 H                     0.106077      -0.000534
  --------------------------------------------------------
  Sum of atomic charges =    -0.000000
  Sum of spin   charges =     2.000000

 -----------------------------------------------------------------
                    Cartesian Multipole Moments
 -----------------------------------------------------------------
    Charge (ESU x 10^10)
                -0.0000
    Dipole Moment (Debye)
         X      -0.3546      Y       0.0251      Z       0.0017
       Tot       0.3555
    Quadrupole Moments (Debye-Ang)
        XX     -37.4954     XY      -0.3949     YY     -39.6758
        XZ       0.0553     YZ       0.0036     ZZ     -38.8280
    Octopole Moments (Debye-Ang^2)
       XXX    -155.6490    XXY       3.6833    XYY     -64.2640
       YYY       5.1221    XXZ       0.1387    XYZ       0.0144
       YYZ      -0.4227    XZZ     -64.3928    YZZ       0.7610
       ZZZ      -1.2570
    Hexadecapole Moments (Debye-Ang^3)
      XXXX   -2421.5574   XXXY      11.1653   XXYY    -475.1084
      XYYY       2.2267   YYYY     -91.1344   XXXZ      -2.0518
      XXYZ       0.0413   XYYZ      -2.0824   YYYZ      -0.1449
      XXZZ    -472.1282   XYZZ       1.4199   YYZZ     -23.9877
      XZZZ      -6.1565   YZZZ      -0.0668   ZZZZ     -64.4314
 -----------------------------------------------------------------
 Calculating analytic gradient of the SCF energy
 Gradient of SCF Energy
            1           2           3           4           5           6
    1   0.0002741  -0.0000616  -0.0000573   0.0000188   0.0000055   0.0000053
    2   0.0000610  -0.0000153   0.0002515  -0.0000053  -0.0000116  -0.0000046
    3   0.0000174   0.0000088  -0.0000141  -0.0000020   0.0000060   0.0000020
            7           8           9          10          11
    1  -0.0000973  -0.0000810  -0.0000068   0.0000022  -0.0000019
    2  -0.0001342  -0.0001343  -0.0000049   0.0000010  -0.0000033
    3   0.0000179  -0.0000229  -0.0000032  -0.0000055  -0.0000044
 Max gradient component =       2.741E-04
 RMS gradient           =       7.857E-05
 Gradient time:  CPU 8.79 s  wall 0.76 s
 Geometry Optimization Parameters
   NAtoms,    NIC,     NZ,  NCons,   NDum,   NFix, NCnnct, MaxDiis
       11      85       0       1       0       0       0       0

 Cartesian Hessian Update
 Hessian Updated using BFGS Update


** CONSTRAINED OPTIMIZATION IN DELOCALIZED INTERNAL COORDINATES **
   Searching for a Minimum

   Optimization Cycle:   6

                       Coordinates (Angstroms)
     ATOM                X               Y               Z
      1  Br        4.6192213060    0.0074553028    0.0226572043
      2  C        -0.9419105726    0.4801334376    0.0061195764
      3  C         0.1521048798   -0.5351309902    0.0009304490
      4  C        -2.3566615773   -0.1469574217   -0.0073017524
      5  H        -0.8527405228    1.1209221309    0.8928315760
      6  H        -0.8450118039    1.1381883326   -0.8673059377
      7  H         0.4731917848   -0.9981790361   -0.9274767712
      8  H         0.4863710311   -0.9952287195    0.9260709069
      9  H        -3.1282155785    0.6309421377   -0.0034725311
     10  H        -2.5022965457   -0.7657743992   -0.8984423953
     11  H        -2.5112614009   -0.7837697749    0.8694876751
   Point Group: c1    Number of degrees of freedom:    27


   Energy is  -2692.321387106

              Constraints and their Current Values
                                        Value     Constraint
   Distance(Angs):        1   3             4.500000     4.500000
 Hessian Updated using BFGS Update

 26 Hessian modes will be used to form the next step
  Hessian Eigenvalues:
     0.019649    0.045000    0.045005    0.047631    0.050637    0.067876
     0.078142    0.083025    0.083053    0.084348    0.088290    0.105310
     0.132644    0.159869    0.160000    0.160149    0.218377    0.278325
     0.328164    0.331521    0.339068    0.339346    0.341680    0.342832
     0.342874    0.453159

 Minimum Search - Taking Simple RFO Step
 Searching for Lamda that Minimizes Along All modes
 Value Taken    Lamda =   0.00000000
 Step Taken.  Stepsize is  0.005223

                             Maximum     Tolerance    Cnvgd?
         Gradient           0.000098      0.000300     YES
         Displacement       0.003636      0.001200      NO
         Energy change     -0.000001      0.000001     YES


                       Distance Matrix (Angstroms)
             Br(  1)   C (  2)   C (  3)   C (  4)   H (  5)   H (  6)
   C (  2)  5.581208
   C (  3)  4.500000  1.492534
   C (  4)  6.977656  1.547560  2.538633
   H (  5)  5.651493  1.097643  2.132537  2.163224
   H (  6)  5.650525  1.097861  2.132621  2.162474  1.760239
   H (  7)  4.370768  2.249339  1.086025  3.095056  3.092282  2.511045
   H (  8)  4.347641  2.250109  1.085960  3.110238  2.504480  3.088729
   H (  9)  7.772528  2.191521  3.481415  1.095645  2.494239  2.493296
   H ( 10)  7.222349  2.192105  2.812101  1.094658  3.080474  2.524408
   H ( 11)  7.224053  2.192195  2.812425  1.094619  2.525686  3.080059
             H (  7)   H (  8)   H (  9)   H ( 10)
   H (  8)  1.853597
   H (  9)  4.059305  4.071083
   H ( 10)  2.984692  3.509079  1.773010
   H ( 11)  3.490274  3.005614  1.773162  1.768044
 
 Final energy is   -2692.32138710569     


 ******************************
 **  OPTIMIZATION CONVERGED  **
 ******************************

                       Coordinates (Angstroms)
     ATOM                X               Y               Z
      1  Br        4.6192213060    0.0074553028    0.0226572043
      2  C        -0.9419105726    0.4801334376    0.0061195764
      3  C         0.1521048798   -0.5351309902    0.0009304490
      4  C        -2.3566615773   -0.1469574217   -0.0073017524
      5  H        -0.8527405228    1.1209221309    0.8928315760
      6  H        -0.8450118039    1.1381883326   -0.8673059377
      7  H         0.4731917848   -0.9981790361   -0.9274767712
      8  H         0.4863710311   -0.9952287195    0.9260709069
      9  H        -3.1282155785    0.6309421377   -0.0034725311
     10  H        -2.5022965457   -0.7657743992   -0.8984423953
     11  H        -2.5112614009   -0.7837697749    0.8694876751

Z-matrix Print:
$molecule
0 3
Br
H  1 4.347641
C  2 1.085960 1 91.023736
H  3 1.086025 2 117.169380 1 65.526065 0
C  3 1.492534 2 120.720892 1 -128.196207 0
H  5 1.097643 3 109.899420 2 37.679779 0
H  5 1.097861 3 109.893106 2 154.680035 0
C  5 1.547560 3 113.229821 2 -83.867441 0
H  8 1.094619 5 110.971757 3 59.879532 0
H  8 1.094658 5 110.962294 3 -59.853496 0
H  8 1.095645 5 110.857143 3 -179.973555 0
$end

PES scan, value:    4.5000 energy: -2692.3213871057
------- Summary of potential scan: ------ 
    4.5000     -2692.3213871057
----------------------------------------- 
Archival summary:
1\1\hpc0242\JobtypUnspecified\ProcedureUnspecified\6-31G**\r137(3)\knomura\WedMar1317:23:162019WedMar1317:23:162019\0\\#,JobtypUnspecified,ProcedureUnspecified,6-31G**,\\0,3\Br\H,1,4.34764\C,2,1.08596,1,91.0237\H,3,1.08602,2,117.169,1,65.5261,0\C,3,1.49253,2,120.721,1,-128.196,0\H,5,1.09764,3,109.899,2,37.6798,0\H,5,1.09786,3,109.893,2,154.68,0\C,5,1.54756,3,113.23,2,-83.8674,0\H,8,1.09462,5,110.972,3,59.8795,0\H,8,1.09466,5,110.962,3,-59.8535,0\H,8,1.09564,5,110.857,3,-179.974,0\\\@

 Total job time:  36.92s(wall), 427.87s(cpu) 
 Wed Mar 13 17:23:16 2019

        *************************************************************
        *                                                           *
        *  Thank you very much for using Q-Chem.  Have a nice day.  *
        *                                                           *
        *************************************************************


