
Running Job 1 of 1 halogens/Bromine/02/Br_3.xyz.data/inputs/bond_triplet_5.4.in
qchem halogens/Bromine/02/Br_3.xyz.data/inputs/bond_triplet_5.4.in_27650.0 /staging/scratch/2868759/qchem27650/ 1
/usr/usc/qchem/5.1.1/exe/qcprog.exe_s halogens/Bromine/02/Br_3.xyz.data/inputs/bond_triplet_5.4.in_27650.0 /staging/scratch/2868759/qchem27650/
Check license passed

                  Welcome to Q-Chem
     A Quantum Leap Into The Future Of Chemistry


 Q-Chem 5.1, Q-Chem, Inc., Pleasanton, CA (2018)

 Yihan Shao,  Zhengting Gan,  E. Epifanovsky,  A. T. B. Gilbert,  M. Wormit,  
 J. Kussmann,  A. W. Lange,  A. Behn,  Jia Deng,  Xintian Feng,  D. Ghosh,  
 M. Goldey,  P. R. Horn,  L. D. Jacobson,  I. Kaliman,  T. Kus,  A. Landau,  
 Jie Liu,  E. I. Proynov,  R. M. Richard,  R. P. Steele,  E. J. Sundstrom,  
 H. L. Woodcock III,  P. M. Zimmerman,  D. Zuev,  B. Albrecht,  E. Alguire,  
 S. A. Baeppler,  D. Barton,  Z. Benda,  Y. A. Bernard,  E. J. Berquist,  
 K. B. Bravaya,  H. Burton,  D. Casanova,  Chun-Min Chang,  Yunqing Chen,  
 A. Chien,  K. D. Closser,  M. P. Coons,  S. Coriani,  S. Dasgupta,  
 A. L. Dempwolff,  M. Diedenhofen,  Hainam Do,  R. G. Edgar,  Po-Tung Fang,  
 S. Faraji,  S. Fatehi,  Qingguo Feng,  K. D. Fenk,  J. Fosso-Tande,  
 Qinghui Ge,  A. Ghysels,  G. Gidofalvi,  J. Gomes,  J. Gonthier,  A. Gunina,  
 D. Hait,  M. W. D. Hanson-Heine,  P. H. P. Harbach,  A. W. Hauser,  
 J. E. Herr,  E. G. Hohenstein,  Z. C. Holden,  Kerwin Hui,  B. C. Huynh,  
 T.-C. Jagau,  Hyunjun Ji,  B. Kaduk,  K. Khistyaev,  Jaehoon Kim,  
 P. Klunzinger,  K. Koh,  D. Kosenkov,  L. Koulias,  T. Kowalczyk,  
 C. M. Krauter,  A. Kunitsa,  Ka Un Lao,  A. Laurent,  K. V. Lawler,  
 Joonho Lee,  D. Lefrancois,  S. Lehtola,  D. S. Levine,  Yi-Pei Li,  
 You-Sheng Lin,  Fenglai Liu,  E. Livshits,  A. Luenser,  P. Manohar,  
 E. Mansoor,  S. F. Manzer,  Shan-Ping Mao,  Yuezhi Mao,  N. Mardirossian,  
 A. V. Marenich,  T. Markovich,  L. A. Martinez-Martinez,  S. A. Maurer,  
 N. J. Mayhall,  S. C. McKenzie,  J.-M. Mewes,  A. F. Morrison,  
 J. W. Mullinax,  K. Nanda,  T. S. Nguyen-Beck,  R. Olivares-Amaya,  
 J. A. Parkhill,  T. M. Perrine,  F. Plasser,  P. Pokhilko,  S. Prager,  
 A. Prociuk,  E. Ramos,  D. R. Rehn,  F. Rob,  M. Schneider,  N. Sergueev,  
 S. M. Sharada,  S. Sharma,  D. W. Small,  T. Stauch,  T. Stein,  
 Yu-Chuan Su,  A. J. W. Thom,  A. Tkatchenko,  T. Tsuchimochi,  N. M. Tubman,  
 L. Vogt,  M. L. Vidal,  O. Vydrov,  M. A. Watson,  J. Wenzel,  
 M. de Wergifosse,  T. A. Wesolowski,  A. White,  J. Witte,  A. Yamada,  
 Jun Yang,  K. Yao,  S. Yeganeh,  S. R. Yost,  Zhi-Qiang You,  A. Zech,  
 Igor Ying Zhang,  Xing Zhang,  Yan Zhao,  Ying Zhu,  B. R. Brooks,  
 G. K. L. Chan,  C. J. Cramer,  M. S. Gordon,  W. J. Hehre,  A. Klamt,  
 M. W. Schmidt,  C. D. Sherrill,  D. G. Truhlar,  A. Aspuru-Guzik,  R. Baer,  
 A. T. Bell,  N. A. Besley,  Jeng-Da Chai,  A. E. DePrince, III,  
 R. A. DiStasio Jr.,  A. Dreuw,  B. D. Dunietz,  T. R. Furlani,  
 Chao-Ping Hsu,  Yousung Jung,  Jing Kong,  D. S. Lambrecht,  WanZhen Liang,  
 C. Ochsenfeld,  V. A. Rassolov,  L. V. Slipchenko,  J. E. Subotnik,  
 T. Van Voorhis,  J. M. Herbert,  A. I. Krylov,  P. M. W. Gill,  M. Head-Gordon

 Contributors to earlier versions of Q-Chem not listed above: 
 R. D. Adamson,  B. Austin,  J. Baker,  G. J. O. Beran,  K. Brandhorst,  
 S. T. Brown,  E. F. C. Byrd,  A. K. Chakraborty,  C.-L. Cheng,  
 Siu Hung Chien,  D. M. Chipman,  D. L. Crittenden,  H. Dachsel,  
 R. J. Doerksen,  A. D. Dutoi,  L. Fusti-Molnar,  W. A. Goddard III,  
 A. Golubeva-Zadorozhnaya,  S. R. Gwaltney,  G. Hawkins,  A. Heyden,  
 S. Hirata,  G. Kedziora,  F. J. Keil,  C. Kelley,  Jihan Kim,  R. A. King,  
 R. Z. Khaliullin,  P. P. Korambath,  W. Kurlancheek,  A. M. Lee,  M. S. Lee,  
 S. V. Levchenko,  Ching Yeh Lin,  D. Liotard,  R. C. Lochan,  I. Lotan,  
 P. E. Maslen,  N. Nair,  D. P. O'Neill,  D. Neuhauser,  E. Neuscamman,  
 C. M. Oana,  R. Olson,  B. Peters,  R. Peverati,  P. A. Pieniazek,  
 Y. M. Rhee,  J. Ritchie,  M. A. Rohrdanz,  E. Rosta,  N. J. Russ,  
 H. F. Schaefer III,  N. E. Schultz,  N. Shenvi,  A. C. Simmonett,  A. Sodt,  
 D. Stuck,  K. S. Thanthiriwatte,  V. Vanovschi,  Tao Wang,  A. Warshel,  
 C. F. Williams,  Q. Wu,  X. Xu,  W. Zhang

 Please cite Q-Chem as follows:
 Y. Shao et al., Mol. Phys. 113, 184-215 (2015)
 DOI: 10.1080/00268976.2014.952696

 Q-Chem 5.1.1 for Intel X86 EM64T Linux

 Parts of Q-Chem use Armadillo 8.300.2 (Tropical Shenanigans).
 http://arma.sourceforge.net/

 Q-Chem begins on Wed Mar 13 17:16:57 2019  

Host: 
0

     Scratch files written to /staging/scratch/2868759/qchem27650//
 Aug318 |scratch|qcdevops|jenkins|workspace|build_RNUM 6013   
Processing $rem in /usr/usc/qchem/5.1.1/config/preferences.
 MEM_TOTAL  2000 
Input Ideriv = 2
Curr. Ideriv = -1
Max.  Ideriv = 2

Checking the input file for inconsistencies... 	...done.

--------------------------------------------------------------
User input:
--------------------------------------------------------------

$comment
potential surface scanner
$end

$rem
JOBTYPE  PES_SCAN
UNRESTRICTED TRUE
SYM_IGNORE  TRUE
GEOM_OPT_MAX_CYCLES 400
SCF_MAX_CYCLES 400
METHOD   B3LYP
BASIS   6-31G**
PDB_PRINT 2
SCF_CONVERGENCE 6
THRESH 14
SCF_PRINT 1
$end
$molecule
0 3
Br 5.545748 -1.035465 -0.003887
C -1.183737 0.628299 0.014307
C 0.129282 -0.080655 0.011393
C -2.399129 -0.329618 -0.014054
H -1.263975 1.265179 0.904677
H -1.250096 1.296086 -0.854896
H 0.560313 -0.443925 -0.916656
H 0.573938 -0.431835 0.937490
H -3.338741 0.234079 -0.014755
H -2.380921 -0.959954 -0.908840
H -2.399884 -0.989591 0.859319
$end
$scan
stre 1 3 5.400000 5.401000 0.100000
$end
--------------------------------------------------------------
 ----------------------------------------------------------------
             Standard Nuclear Orientation (Angstroms)
    I     Atom           X                Y                Z
 ----------------------------------------------------------------
    1      Br      5.5457480000    -1.0354650000    -0.0038870000
    2      C      -1.1837370000     0.6282990000     0.0143070000
    3      C       0.1292820000    -0.0806550000     0.0113930000
    4      C      -2.3991290000    -0.3296180000    -0.0140540000
    5      H      -1.2639750000     1.2651790000     0.9046770000
    6      H      -1.2500960000     1.2960860000    -0.8548960000
    7      H       0.5603130000    -0.4439250000    -0.9166560000
    8      H       0.5739380000    -0.4318350000     0.9374900000
    9      H      -3.3387410000     0.2340790000    -0.0147550000
   10      H      -2.3809210000    -0.9599540000    -0.9088400000
   11      H      -2.3998840000    -0.9895910000     0.8593190000
 ----------------------------------------------------------------
 Nuclear Repulsion Energy =   144.7939509771 hartrees
 There are       31 alpha and       29 beta electrons
 Requested basis set is 6-31G(d,p)
 There are 41 shells and 115 basis functions

 Total QAlloc Memory Limit   2000 MB
 Mega-Array Size       188 MB
 MEM_STATIC part       192 MB
A total of 1 constraints
  
            1
    1   1.0100000
    2   1.0100000
    3   3.0100000
    4   5.4000000
    5   5.4010000
    6   0.1000000
    7   0.0000000
    8   0.0000000
    9   0.0000000
   10   0.0000000

                       Distance Matrix (Angstroms)
             Br(  1)   C (  2)   C (  3)   C (  4)   H (  5)   H (  6)
   C (  2)  6.932129
   C (  3)  5.500000  1.492194
   C (  4)  7.976177  1.547768  2.540766
   H (  5)  7.245052  1.097640  2.133164  2.162410
   H (  6)  7.234904  1.098115  2.132734  2.161066  1.759899
   H (  7)  5.102708  2.249015  1.085830  3.096135  3.092946  2.511779
   H (  8)  5.096023  2.250683  1.085680  3.123301  2.501771  3.086334
   H (  9)  8.974743  2.190958  3.482373  1.095731  2.492624  2.489203
   H ( 10)  7.978516  2.192715  2.814447  1.094668  3.080200  2.524162
   H ( 11)  7.992515  2.193314  2.818124  1.094690  2.525140  3.079751
             H (  7)   H (  8)   H (  9)   H ( 10)
   H (  8)  1.854235
   H (  9)  4.059032  4.081577
   H ( 10)  2.986169  3.524065  1.772716
   H ( 11)  3.494940  3.026685  1.772802  1.768509
 
 A cutoff of  1.0D-14 yielded    689 shell pairs
 There are      4973 function pairs
 
 -------------------------------------------------------
 OpenMP Integral Computing Module                       
 Release: version 1.0, May 2013, Q-Chem Inc. Pittsburgh 
 -------------------------------------------------------
 Integral Job Info:
 Integral job number is                      11
 Integral operator is                         1
 short-range coefficients                     0
 long-range coefficients              100000000
 Omega coefficients                           0
 if combine SR and LR in K                    0
 Integral screening is                        0
 Integral computing path is                   2
 max size of driver memory is            800000
 size of driver memory is                593474
 size of scratch memory is             15267112
 max col of scratch BK array               1296
 max len of scratch array in speh3          155
 max len of scratch index in speh4           18
 max int batch size is                      520
 min int batch size is                       52
 fixed nKL is                                52
 max L of basis functions is                  2
 order of int derivative is                   0
 number of shells is                         41
 number of basis is                         115
 number of cartesian basis is               115
 number of contracted shell pairs           689
 number of primitive shell pairs           2610
 maxK2 (contraction) of shell pair           36
 max number of K2 of shell pair               1
 max number of CS2 of shell pair             59
 max number of PS2 of shell pair            186
 mem total for path MDJ                  513890
 -------------------------------------------------------
 Smallest overlap matrix eigenvalue = 7.27E-04

 Scale SEOQF with 1.000000e-02/1.000000e-01/1.000000e+00

 Standard Electronic Orientation quadrupole field applied
 Nucleus-field energy     =     0.0000000022 hartrees
 Guess from superposition of atomic densities
 Warning:  Energy on first SCF cycle will be non-variational
 SAD guess density has 59.972873 electrons

 -----------------------------------------------------------------------
  General SCF calculation program by
  Eric Jon Sundstrom, Paul Horn, Yuezhi Mao, Dmitri Zuev, Alec White,
  David Stuck, Shaama M.S., Shane Yost, Joonho Lee, David Small,
  Daniel Levine, Susi Lehtola, Hugh Burton, Evgeny Epifanovsky
 -----------------------------------------------------------------------
 Exchange:     0.2000 Hartree-Fock + 0.0800 Slater + 0.7200 B88
 Correlation:  0.1900 VWN1RPA + 0.8100 LYP
 Using SG-1 standard quadrature grid
 using 12 threads for integral computing
 -------------------------------------------------------
 OpenMP Integral computing Module                
 Release: version 1.0, May 2013, Q-Chem Inc. Pittsburgh 
 -------------------------------------------------------
 -------------------------------------------------------
 OpenMP BLAS3 based DFT computing Module                
 Release: version 1.0, May 2013, Q-Chem Inc. Pittsburgh 
 -------------------------------------------------------
 A unrestricted SCF calculation will be
 performed using DIIS
 SCF converges when DIIS error is below 1.0e-06
 Alpha HF Exchange    Energy = -10.71095839556878
 Beta HF Exchange     Energy = -10.71095839556878
 DFT Correlation      Energy =  -3.10395972190569
 DFT Exchange         Energy = -84.97290264997257
 One-Electron (alpha) Energy = -2011.43488032150526
 One-Electron (beta)  Energy = -2011.43488032150526
 Total Coulomb        Energy = 1292.08845207217860
 ---------------------------------------
  Cycle       Energy         DIIS error
 ---------------------------------------
    1   -2695.4861367546      1.64e-01  
 Alpha HF Exchange    Energy = -10.89573172592833
 Beta HF Exchange     Energy = -10.70118190309930
 DFT Correlation      Energy =  -3.13635967813965
 DFT Exchange         Energy = -85.89605741864722
 One-Electron (alpha) Energy = -2033.32878980807050
 One-Electron (beta)  Energy = -2000.05204850642804
 Total Coulomb        Energy = 1306.99934114856410
    2   -2692.2168769125      9.50e-03  
 Alpha HF Exchange    Energy = -10.79862477647219
 Beta HF Exchange     Energy = -10.61436249430547
 DFT Correlation      Energy =  -3.10149004269486
 DFT Exchange         Energy = -85.14569968965719
 One-Electron (alpha) Energy = -2025.86803769617040
 One-Electron (beta)  Energy = -1993.13504273820718
 Total Coulomb        Energy = 1291.65124344289598
    3   -2692.2180630153      4.12e-03  
 Alpha HF Exchange    Energy = -10.87278629041721
 Beta HF Exchange     Energy = -10.68036608386989
 DFT Correlation      Energy =  -3.12773741491366
 DFT Exchange         Energy = -85.71293642162385
 One-Electron (alpha) Energy = -2031.49233736415840
 One-Electron (beta)  Energy = -1998.16148342089605
 Total Coulomb        Energy = 1302.97571794245914
    4   -2692.2779780741      2.63e-03  
 Alpha HF Exchange    Energy = -10.84907028011891
 Beta HF Exchange     Energy = -10.65804143094690
 DFT Correlation      Energy =  -3.11825645568762
 DFT Exchange         Energy = -85.52470856595176
 One-Electron (alpha) Energy = -2029.83720836631232
 One-Electron (beta)  Energy = -1996.59492298724581
 Total Coulomb        Energy = 1299.46790114210535
    5   -2692.3203559649      3.11e-04  
 Alpha HF Exchange    Energy = -10.84695674844640
 Beta HF Exchange     Energy = -10.65661554575850
 DFT Correlation      Energy =  -3.11800366783104
 DFT Exchange         Energy = -85.51120512964657
 One-Electron (alpha) Energy = -2029.64164908387943
 One-Electron (beta)  Energy = -1996.42638854384722
 Total Coulomb        Energy = 1299.08606941517769
    6   -2692.3207983250      5.46e-05  
 Alpha HF Exchange    Energy = -10.84686744774472
 Beta HF Exchange     Energy = -10.65636453519513
 DFT Correlation      Energy =  -3.11787480189377
 DFT Exchange         Energy = -85.50974270445653
 One-Electron (alpha) Energy = -2029.62851174636012
 One-Electron (beta)  Energy = -1996.40718539597196
 Total Coulomb        Energy = 1299.05177744797288
    7   -2692.3208182044      1.60e-05  
 Alpha HF Exchange    Energy = -10.84693857335492
 Beta HF Exchange     Energy = -10.65642856075174
 DFT Correlation      Energy =  -3.11785602824026
 DFT Exchange         Energy = -85.51021402394150
 One-Electron (alpha) Energy = -2029.63816688568522
 One-Electron (beta)  Energy = -1996.41302871798871
 Total Coulomb        Energy = 1299.06786177203639
    8   -2692.3208200387      6.61e-06  
 Alpha HF Exchange    Energy = -10.84698454743587
 Beta HF Exchange     Energy = -10.65643211956203
 DFT Correlation      Energy =  -3.11786401970552
 DFT Exchange         Energy = -85.51041442516055
 One-Electron (alpha) Energy = -2029.64029779807947
 One-Electron (beta)  Energy = -1996.41269362436037
 Total Coulomb        Energy = 1299.06991507220573
    9   -2692.3208204828      1.78e-06  
 Alpha HF Exchange    Energy = -10.84698432656827
 Beta HF Exchange     Energy = -10.65642506896669
 DFT Correlation      Energy =  -3.11785888306028
 DFT Exchange         Energy = -85.51038036763546
 One-Electron (alpha) Energy = -2029.63990049095105
 One-Electron (beta)  Energy = -1996.41182782715759
 Total Coulomb        Energy = 1299.06860540515163
   10   -2692.3208205799      9.63e-07  Convergence criterion met
 ---------------------------------------
 SCF time:   CPU 24.34s  wall 2.00s 
<S^2> =          2.005217321
 Alpha HF Exchange    Energy = -10.84698432656827
 Beta HF Exchange     Energy = -10.65642506896669
 DFT Correlation      Energy =  -3.11785888306028
 DFT Exchange         Energy = -85.51038036763546
 One-Electron (alpha) Energy = -2029.63990049095105
 One-Electron (beta)  Energy = -1996.41182782715759
 Total Coulomb        Energy = 1299.06860540515163
 Nuclear repulsion Energy = 144.79395097927312
 SCF   energy in the final basis set =    -2692.3208205799
 Total energy in the final basis set =    -2692.3208205799
 
 --------------------------------------------------------------
 
                    Orbital Energies (a.u.)
 --------------------------------------------------------------
 
 Alpha MOs
 -- Occupied --
******* -62.557 -56.382 -56.374 -56.374 -10.186 -10.185 -10.177
 -8.744  -6.581  -6.559  -6.559  -2.672  -2.666  -2.666  -2.650
 -2.650  -0.797  -0.779  -0.672  -0.579  -0.461  -0.427  -0.392
 -0.378  -0.371  -0.348  -0.332  -0.323  -0.323  -0.199
 -- Virtual --
  0.104   0.138   0.143   0.157   0.167   0.178   0.179   0.220
  0.231   0.273   0.289   0.311   0.311   0.512   0.532   0.534
  0.534   0.545   0.545   0.547   0.581   0.581   0.589   0.596
  0.656   0.694   0.786   0.812   0.857   0.877   0.882   0.910
  0.937   0.959   0.998   1.213   1.307   1.428   1.477   1.527
  1.600   1.676   1.682   1.821   1.871   1.954   1.975   2.000
  2.052   2.070   2.121   2.124   2.225   2.259   2.290   2.370
  2.437   2.451   2.520   2.574   2.676   2.710   2.742   2.803
  2.857   2.882   2.921   3.185   3.257   3.357   3.378   3.465
  3.479   3.554   4.238   4.430   4.605   4.648   4.656   4.656
  4.682   4.682   6.205  90.122
 
 Beta MOs
 -- Occupied --
******* -62.556 -56.376 -56.373 -56.373 -10.186 -10.175 -10.172
 -8.740  -6.570  -6.557  -6.557  -2.664  -2.660  -2.660  -2.649
 -2.649  -0.768  -0.753  -0.654  -0.565  -0.457  -0.421  -0.387
 -0.366  -0.343  -0.330  -0.309  -0.309
 -- Virtual --
 -0.235  -0.040   0.108   0.145   0.150   0.159   0.176   0.180
  0.182   0.224   0.235   0.282   0.316   0.316   0.317   0.517
  0.535   0.548   0.566   0.589   0.589   0.590   0.591   0.596
  0.598   0.628   0.668   0.708   0.790   0.819   0.861   0.879
  0.885   0.917   0.942   0.971   1.001   1.223   1.317   1.458
  1.482   1.542   1.622   1.682   1.695   1.830   1.876   1.958
  2.000   2.040   2.053   2.071   2.123   2.129   2.227   2.270
  2.291   2.376   2.442   2.462   2.529   2.598   2.681   2.712
  2.746   2.806   2.860   2.884   2.924   3.186   3.260   3.362
  3.380   3.467   3.484   3.557   4.258   4.446   4.608   4.667
  4.671   4.671   4.684   4.684   6.221  90.128
 --------------------------------------------------------------
 
          Ground-State Mulliken Net Atomic Charges

     Atom                 Charge (a.u.)    Spin (a.u.)
  --------------------------------------------------------
      1 Br                   -0.000056       0.999976
      2 C                    -0.188949      -0.073907
      3 C                    -0.220604       1.080146
      4 C                    -0.307451       0.050135
      5 H                     0.102400       0.011714
      6 H                     0.102919       0.014278
      7 H                     0.099741      -0.047414
      8 H                     0.100000      -0.047499
      9 H                     0.101114       0.013697
     10 H                     0.105347      -0.000660
     11 H                     0.105539      -0.000466
  --------------------------------------------------------
  Sum of atomic charges =    -0.000000
  Sum of spin   charges =     2.000000

 -----------------------------------------------------------------
                    Cartesian Multipole Moments
 -----------------------------------------------------------------
    Charge (ESU x 10^10)
                -0.0000
    Dipole Moment (Debye)
         X      -0.2691      Y      -0.0221      Z       0.0011
       Tot       0.2700
    Quadrupole Moments (Debye-Ang)
        XX     -36.9979     XY      -0.1824     YY     -39.9769
        XZ      -0.0631     YZ      -0.0091     ZZ     -38.8368
    Octopole Moments (Debye-Ang^2)
       XXX    -194.5075    XXY      21.9607    XYY     -80.6532
       YYY      55.7234    XXZ      -0.6777    XYZ       0.0079
       YYZ       0.0218    XZZ     -79.7448    YZZ      18.1810
       ZZZ       0.0561
    Hexadecapole Moments (Debye-Ang^3)
      XXXX   -3366.5560   XXXY     319.2275   XXYY    -685.0211
      XYYY     324.5037   YYYY    -208.2615   XXXZ      -5.5357
      XXYZ       0.1316   XYYZ       0.2308   YYYZ      -0.6865
      XXZZ    -655.2230   XYZZ     108.2832   YYZZ     -44.0488
      XZZZ       0.6407   YZZZ      -0.4919   ZZZZ     -64.4321
 -----------------------------------------------------------------
 Calculating analytic gradient of the SCF energy
 Gradient of SCF Energy
            1           2           3           4           5           6
    1  -0.0000624  -0.0000543   0.0001290   0.0000104   0.0000113   0.0000052
    2   0.0000012  -0.0000285   0.0002367   0.0000031   0.0000066  -0.0000172
    3  -0.0000006   0.0000103  -0.0000229   0.0000095  -0.0000112  -0.0000168
            7           8           9          10          11
    1  -0.0000182  -0.0000151  -0.0000024  -0.0000042   0.0000006
    2  -0.0001126  -0.0000984   0.0000026  -0.0000047   0.0000112
    3  -0.0000079   0.0000110   0.0000038   0.0000119   0.0000128
 Max gradient component =       2.367E-04
 RMS gradient           =       5.659E-05
 Gradient time:  CPU 8.33 s  wall 0.73 s
 Geometry Optimization Parameters
   NAtoms,    NIC,     NZ,  NCons,   NDum,   NFix, NCnnct, MaxDiis
       11      85       0       1       0       0       0       0


** CONSTRAINED OPTIMIZATION IN DELOCALIZED INTERNAL COORDINATES **
   Searching for a Minimum

   Optimization Cycle:   1

                       Coordinates (Angstroms)
     ATOM                X               Y               Z
      1  Br        5.5457480000   -1.0354650000   -0.0038870000
      2  C        -1.1837370000    0.6282990000    0.0143070000
      3  C         0.1292820000   -0.0806550000    0.0113930000
      4  C        -2.3991290000   -0.3296180000   -0.0140540000
      5  H        -1.2639750000    1.2651790000    0.9046770000
      6  H        -1.2500960000    1.2960860000   -0.8548960000
      7  H         0.5603130000   -0.4439250000   -0.9166560000
      8  H         0.5739380000   -0.4318350000    0.9374900000
      9  H        -3.3387410000    0.2340790000   -0.0147550000
     10  H        -2.3809210000   -0.9599540000   -0.9088400000
     11  H        -2.3998840000   -0.9895910000    0.8593190000
   Point Group: c1    Number of degrees of freedom:    27


   Energy is  -2692.320820580

              Constraints and their Current Values
                                        Value     Constraint
   Distance(Angs):        1   3             5.500000     5.400000

 Attempting to Generate Delocalized Internal Coordinates

   Using Lagrange Multiplier Algorithm


 28 Hessian modes will be used to form the next step
  Hessian Eigenvalues:
    -0.998759    0.045000    0.045000    0.046196    0.047010    0.067818
     0.072850    0.078133    0.082970    0.083054    0.085255    0.087879
     0.104533    0.132714    0.160000    0.160000    0.160000    0.219531
     0.278417    0.330499    0.332103    0.332382    0.338914    0.339445
     0.341587    0.342763    0.342788    1.001243

 Minimum Search - Taking P-RFO Step
 Searching for Lamda that Maximizes Along the Constraint modes Only
 Value Taken    Lamda =   0.01759819
 Searching for Lamda that Minimizes Along All other modes
 Value Taken    Lamda =  -0.01749681
 Step Taken.  Stepsize is  0.185718

                             Maximum     Tolerance    Cnvgd?
         Gradient            0.188973       0.000300      NO
         Displacement        0.185714       0.001200      NO
         Energy change     *********       0.000001      NO


 New Cartesian Coordinates Obtained by Inverse Iteration

 Displacement from previous Coordinates is:  0.198217
 ----------------------------------------------------------------
             Standard Nuclear Orientation (Angstroms)
    I     Atom           X                Y                Z
 ----------------------------------------------------------------
    1      Br      5.4687043282    -1.0048081654    -0.0038516903
    2      C      -1.1643500998     0.6213618790     0.0142626363
    3      C       0.1439677256    -0.0961961803     0.0113803273
    4      C      -2.3860694765    -0.3284893853    -0.0140348183
    5      H      -1.2404099001     1.2588248734     0.9045857400
    6      H      -1.2263404648     1.2895377097    -0.8549687610
    7      H       0.5343846106    -0.4469931715    -0.9195905525
    8      H       0.5480698371    -0.4347071094     0.9404833621
    9      H      -3.3219078280     0.2414466886    -0.0147687231
   10      H      -2.3720489120    -0.9589905226    -0.9087799085
   11      H      -2.3912018203    -0.9883866162     0.8593803879
 ----------------------------------------------------------------
 Nuclear Repulsion Energy =   145.9730870995 hartrees
 There are       31 alpha and       29 beta electrons

                       Distance Matrix (Angstroms)
             Br(  1)   C (  2)   C (  3)   C (  4)   H (  5)   H (  6)
   C (  2)  6.829507
   C (  3)  5.401725  1.492177
   C (  4)  7.883843  1.547778  2.540806
   H (  5)  7.138733  1.097643  2.133167  2.162398
   H (  6)  7.128257  1.098119  2.132736  2.161054  1.759879
   H (  7)  5.049480  2.213406  1.068733  3.059923  3.063875  2.473837
   H (  8)  5.042760  2.214847  1.068232  3.087323  2.463331  3.056992
   H (  9)  8.878521  2.190944  3.482381  1.095729  2.492570  2.489143
   H ( 10)  7.892934  2.192728  2.814507  1.094668  3.080196  2.524168
   H ( 11)  7.907184  2.193326  2.818190  1.094689  2.525139  3.079746
             H (  7)   H (  8)   H (  9)   H ( 10)
   H (  8)  1.860165
   H (  9)  4.020403  4.043070
   H ( 10)  2.951206  3.495961  1.772720
   H ( 11)  3.466540  2.992066  1.772806  1.768508
 
 Applying Cartesian multipole field
    Component          Value
    ---------          -----
     (2,0,0)        1.00000E-12
     (0,2,0)        2.00000E-11
     (0,0,2)       -3.00000E-10
 Nucleus-field energy     =     0.0000000019 hartrees
 Requested basis set is 6-31G(d,p)
 There are 41 shells and 115 basis functions
 A cutoff of  1.0D-14 yielded    689 shell pairs
 There are      4973 function pairs
 Smallest overlap matrix eigenvalue = 7.27E-04
 Guess from superposition of atomic densities
 Warning:  Energy on first SCF cycle will be non-variational
 SAD guess density has 59.972873 electrons

 -----------------------------------------------------------------------
  General SCF calculation program by
  Eric Jon Sundstrom, Paul Horn, Yuezhi Mao, Dmitri Zuev, Alec White,
  David Stuck, Shaama M.S., Shane Yost, Joonho Lee, David Small,
  Daniel Levine, Susi Lehtola, Hugh Burton, Evgeny Epifanovsky
 -----------------------------------------------------------------------
 Exchange:     0.2000 Hartree-Fock + 0.0800 Slater + 0.7200 B88
 Correlation:  0.1900 VWN1RPA + 0.8100 LYP
 Using SG-1 standard quadrature grid
 using 12 threads for integral computing
 -------------------------------------------------------
 OpenMP Integral computing Module                
 Release: version 1.0, May 2013, Q-Chem Inc. Pittsburgh 
 -------------------------------------------------------
 -------------------------------------------------------
 OpenMP BLAS3 based DFT computing Module                
 Release: version 1.0, May 2013, Q-Chem Inc. Pittsburgh 
 -------------------------------------------------------
 A unrestricted SCF calculation will be
 performed using DIIS
 SCF converges when DIIS error is below 1.0e-06
 Alpha HF Exchange    Energy = -10.71312278868294
 Beta HF Exchange     Energy = -10.71312278868294
 DFT Correlation      Energy =  -3.10447160365700
 DFT Exchange         Energy = -84.97756240526337
 One-Electron (alpha) Energy = -2012.59474394505696
 One-Electron (beta)  Energy = -2012.59474394505696
 Total Coulomb        Energy = 1293.22286680310435
 ---------------------------------------
  Cycle       Energy         DIIS error
 ---------------------------------------
    1   -2695.5018135719      1.64e-01  
 Alpha HF Exchange    Energy = -10.89764327938717
 Beta HF Exchange     Energy = -10.70277231184610
 DFT Correlation      Energy =  -3.13710461991993
 DFT Exchange         Energy = -85.90889428795538
 One-Electron (alpha) Energy = -2034.57031453733180
 One-Electron (beta)  Energy = -2001.19133106176696
 Total Coulomb        Energy = 1308.21999312519620
    2   -2692.2149798716      9.51e-03  
 Alpha HF Exchange    Energy = -10.79981787667331
 Beta HF Exchange     Energy = -10.61558615517370
 DFT Correlation      Energy =  -3.10211786897313
 DFT Exchange         Energy = -85.15428363792722
 One-Electron (alpha) Energy = -2027.08421020746664
 One-Electron (beta)  Energy = -1994.25896925009397
 Total Coulomb        Energy = 1292.82466660476257
    3   -2692.2172312901      4.12e-03  
 Alpha HF Exchange    Energy = -10.87411376064928
 Beta HF Exchange     Energy = -10.68167469532135
 DFT Correlation      Energy =  -3.12830784272317
 DFT Exchange         Energy = -85.72220977240153
 One-Electron (alpha) Energy = -2032.70681774624836
 One-Electron (beta)  Energy = -1999.28214962710376
 Total Coulomb        Energy = 1304.14430202291101
    4   -2692.2778843201      2.62e-03  
 Alpha HF Exchange    Energy = -10.85049102114112
 Beta HF Exchange     Energy = -10.65939508141600
 DFT Correlation      Energy =  -3.11891492931643
 DFT Exchange         Energy = -85.53464093575374
 One-Electron (alpha) Energy = -2031.05770263858312
 One-Electron (beta)  Energy = -1997.72125358447306
 Total Coulomb        Energy = 1300.64971833551908
    5   -2692.3195927537      3.19e-04  
 Alpha HF Exchange    Energy = -10.84837529507072
 Beta HF Exchange     Energy = -10.65801472132805
 DFT Correlation      Energy =  -3.11865800806526
 DFT Exchange         Energy = -85.52128974199236
 One-Electron (alpha) Energy = -2030.86515308333037
 One-Electron (beta)  Energy = -1997.55651900189696
 Total Coulomb        Energy = 1300.27484900569357
    6   -2692.3200737445      5.43e-05  
 Alpha HF Exchange    Energy = -10.84826792774249
 Beta HF Exchange     Energy = -10.65775419257500
 DFT Correlation      Energy =  -3.11852827678868
 DFT Exchange         Energy = -85.51972273238717
 One-Electron (alpha) Energy = -2030.85041981401037
 One-Electron (beta)  Energy = -1997.53627745049175
 Total Coulomb        Energy = 1300.23778962213964
    7   -2692.3200936704      1.57e-05  
 Alpha HF Exchange    Energy = -10.84834165141990
 Beta HF Exchange     Energy = -10.65782080944999
 DFT Correlation      Energy =  -3.11851118231259
 DFT Exchange         Energy = -85.52021561599018
 One-Electron (alpha) Energy = -2030.86021569031072
 One-Electron (beta)  Energy = -1997.54238338656546
 Total Coulomb        Energy = 1300.25430582376657
    8   -2692.3200954108      6.41e-06  
 Alpha HF Exchange    Energy = -10.84838336911676
 Beta HF Exchange     Energy = -10.65782402620749
 DFT Correlation      Energy =  -3.11851888198375
 DFT Exchange         Energy = -85.52039802536774
 One-Electron (alpha) Energy = -2030.86206668180284
 One-Electron (beta)  Energy = -1997.54198930317830
 Total Coulomb        Energy = 1300.25599735163587
    9   -2692.3200958346      1.76e-06  
 Alpha HF Exchange    Energy = -10.84838323705120
 Beta HF Exchange     Energy = -10.65781791825061
 DFT Correlation      Energy =  -3.11851413255215
 DFT Exchange         Energy = -85.52036826251842
 One-Electron (alpha) Energy = -2030.86169721392366
 One-Electron (beta)  Energy = -1997.54121020639718
 Total Coulomb        Energy = 1300.25480792172539
   10   -2692.3200959475      1.01e-06  
 Alpha HF Exchange    Energy = -10.84838323903105
 Beta HF Exchange     Energy = -10.65781717753008
 DFT Correlation      Energy =  -3.11851348892697
 DFT Exchange         Energy = -85.52036487419704
 One-Electron (alpha) Energy = -2030.86172400115674
 One-Electron (beta)  Energy = -1997.54119670670138
 Total Coulomb        Energy = 1300.25481638117526
   11   -2692.3200960049      7.10e-07  Convergence criterion met
 ---------------------------------------
 SCF time:   CPU 25.76s  wall 2.00s 
<S^2> =          2.005086454
 Alpha HF Exchange    Energy = -10.84838323903105
 Beta HF Exchange     Energy = -10.65781717753008
 DFT Correlation      Energy =  -3.11851348892697
 DFT Exchange         Energy = -85.52036487419704
 One-Electron (alpha) Energy = -2030.86172400115674
 One-Electron (beta)  Energy = -1997.54119670670138
 Total Coulomb        Energy = 1300.25481638117526
 Nuclear repulsion Energy = 145.97308710144591
 SCF   energy in the final basis set =    -2692.3200960049
 Total energy in the final basis set =    -2692.3200960049
 
 --------------------------------------------------------------
 
                    Orbital Energies (a.u.)
 --------------------------------------------------------------
 
 Alpha MOs
 -- Occupied --
******* -62.557 -56.381 -56.374 -56.374 -10.184 -10.183 -10.176
 -8.744  -6.581  -6.559  -6.559  -2.672  -2.666  -2.666  -2.650
 -2.650  -0.797  -0.779  -0.674  -0.579  -0.465  -0.425  -0.396
 -0.377  -0.371  -0.347  -0.332  -0.323  -0.322  -0.199
 -- Virtual --
  0.104   0.142   0.145   0.158   0.167   0.179   0.181   0.221
  0.231   0.270   0.290   0.312   0.312   0.512   0.528   0.534
  0.536   0.545   0.545   0.546   0.581   0.581   0.588   0.598
  0.658   0.695   0.784   0.811   0.861   0.882   0.883   0.915
  0.939   0.961   1.006   1.217   1.308   1.420   1.478   1.541
  1.602   1.676   1.684   1.822   1.883   1.940   1.982   2.014
  2.053   2.071   2.114   2.123   2.236   2.258   2.297   2.372
  2.451   2.451   2.517   2.605   2.679   2.735   2.742   2.804
  2.847   2.885   2.918   3.185   3.273   3.378   3.411   3.475
  3.492   3.555   4.243   4.432   4.604   4.648   4.656   4.656
  4.682   4.682   6.205  90.122
 
 Beta MOs
 -- Occupied --
******* -62.556 -56.376 -56.373 -56.373 -10.185 -10.175 -10.169
 -8.740  -6.570  -6.557  -6.557  -2.664  -2.660  -2.660  -2.649
 -2.649  -0.769  -0.753  -0.655  -0.566  -0.460  -0.419  -0.391
 -0.365  -0.341  -0.330  -0.309  -0.308
 -- Virtual --
 -0.235  -0.041   0.107   0.147   0.153   0.160   0.176   0.182
  0.184   0.225   0.236   0.279   0.316   0.316   0.317   0.516
  0.538   0.544   0.565   0.589   0.589   0.591   0.591   0.596
  0.601   0.629   0.669   0.709   0.788   0.819   0.864   0.885
  0.886   0.922   0.944   0.974   1.009   1.228   1.318   1.451
  1.482   1.554   1.623   1.684   1.695   1.831   1.887   1.944
  2.004   2.053   2.055   2.072   2.115   2.131   2.238   2.270
  2.298   2.378   2.455   2.463   2.526   2.630   2.685   2.737
  2.746   2.806   2.849   2.887   2.921   3.186   3.276   3.380
  3.416   3.478   3.498   3.558   4.262   4.449   4.606   4.667
  4.671   4.671   4.684   4.684   6.221  90.128
 --------------------------------------------------------------
 
          Ground-State Mulliken Net Atomic Charges

     Atom                 Charge (a.u.)    Spin (a.u.)
  --------------------------------------------------------
      1 Br                   -0.000082       0.999974
      2 C                    -0.191154      -0.073440
      3 C                    -0.218151       1.078244
      4 C                    -0.307054       0.050323
      5 H                     0.100753       0.011672
      6 H                     0.101329       0.014248
      7 H                     0.101648      -0.046772
      8 H                     0.101926      -0.046845
      9 H                     0.101281       0.013714
     10 H                     0.104645      -0.000657
     11 H                     0.104858      -0.000462
  --------------------------------------------------------
  Sum of atomic charges =    -0.000000
  Sum of spin   charges =     2.000000

 -----------------------------------------------------------------
                    Cartesian Multipole Moments
 -----------------------------------------------------------------
    Charge (ESU x 10^10)
                -0.0000
    Dipole Moment (Debye)
         X      -0.2643      Y      -0.0331      Z       0.0013
       Tot       0.2664
    Quadrupole Moments (Debye-Ang)
        XX     -37.1432     XY      -0.0371     YY     -39.9522
        XZ      -0.0636     YZ      -0.0118     ZZ     -38.7381
    Octopole Moments (Debye-Ang^2)
       XXX    -192.0579    XXY      22.4466    XYY     -79.3621
       YYY      54.1863    XXZ      -0.6860    XYZ      -0.0039
       YYZ       0.0252    XZZ     -78.5141    YZZ      17.6725
       ZZZ       0.0590
    Hexadecapole Moments (Debye-Ang^3)
      XXXX   -3286.3769   XXXY     313.9078   XXYY    -667.6604
      XYYY     310.0618   YYYY    -200.6692   XXXZ      -5.5376
      XXYZ       0.0524   XYYZ       0.2445   YYYZ      -0.6792
      XXZZ    -638.4815   XYZZ     103.6138   YYZZ     -42.8037
      XZZZ       0.6117   YZZZ      -0.4832   ZZZZ     -64.1483
 -----------------------------------------------------------------
 Calculating analytic gradient of the SCF energy
 Gradient of SCF Energy
            1           2           3           4           5           6
    1  -0.0000282   0.0008194   0.0146765  -0.0000907   0.0002963   0.0002830
    2   0.0000005  -0.0014531  -0.0103165  -0.0001505  -0.0001063  -0.0001308
    3  -0.0000007  -0.0000107   0.0001840   0.0000070  -0.0000376   0.0000151
            7           8           9          10          11
    1  -0.0079271  -0.0081368   0.0000249   0.0000402   0.0000424
    2   0.0059862   0.0059860   0.0000570   0.0000542   0.0000734
    3   0.0078289  -0.0080201   0.0000048   0.0000440  -0.0000147
 Max gradient component =       1.468E-02
 RMS gradient           =       4.442E-03
 Gradient time:  CPU 8.48 s  wall 0.74 s
 Geometry Optimization Parameters
   NAtoms,    NIC,     NZ,  NCons,   NDum,   NFix, NCnnct, MaxDiis
       11      85       0       1       0       0       0       0

 Cartesian Hessian Update
 Hessian Updated using BFGS Update


** CONSTRAINED OPTIMIZATION IN DELOCALIZED INTERNAL COORDINATES **
   Searching for a Minimum

   Optimization Cycle:   2

                       Coordinates (Angstroms)
     ATOM                X               Y               Z
      1  Br        5.4687043282   -1.0048081654   -0.0038516903
      2  C        -1.1643500998    0.6213618790    0.0142626363
      3  C         0.1439677256   -0.0961961803    0.0113803273
      4  C        -2.3860694765   -0.3284893853   -0.0140348183
      5  H        -1.2404099001    1.2588248734    0.9045857400
      6  H        -1.2263404648    1.2895377097   -0.8549687610
      7  H         0.5343846106   -0.4469931715   -0.9195905525
      8  H         0.5480698371   -0.4347071094    0.9404833621
      9  H        -3.3219078280    0.2414466886   -0.0147687231
     10  H        -2.3720489120   -0.9589905226   -0.9087799085
     11  H        -2.3912018203   -0.9883866162    0.8593803879
   Point Group: c1    Number of degrees of freedom:    27


   Energy is  -2692.320096005

              Constraints and their Current Values
                                        Value     Constraint
   Distance(Angs):        1   3             5.401725     5.400000
 Hessian Updated using BFGS Update

   Using Lagrange Multiplier Algorithm


 27 Hessian modes will be used to form the next step
  Hessian Eigenvalues:
    -0.981995    0.045000    0.045000    0.046167    0.047010    0.067818
     0.072850    0.078132    0.082970    0.083054    0.085236    0.100538
     0.104880    0.132714    0.160000    0.160008    0.219570    0.278417
     0.330523    0.332107    0.338914    0.339444    0.341587    0.342763
     0.342788    0.502141    1.028538

 Minimum Search - Taking P-RFO Step
 Searching for Lamda that Maximizes Along the Constraint modes Only
 Value Taken    Lamda =   0.00004632
 Searching for Lamda that Minimizes Along All other modes
 Value Taken    Lamda =  -0.00063410
 Step Taken.  Stepsize is  0.046032

                             Maximum     Tolerance    Cnvgd?
         Gradient            0.009998       0.000300      NO
         Displacement        0.038966       0.001200      NO
         Energy change      0.000725       0.000001      NO


 New Cartesian Coordinates Obtained by Inverse Iteration

 Displacement from previous Coordinates is:  0.036200
 ----------------------------------------------------------------
             Standard Nuclear Orientation (Angstroms)
    I     Atom           X                Y                Z
 ----------------------------------------------------------------
    1      Br      5.4668765279    -1.0015034154    -0.0039015528
    2      C      -1.1661538797     0.6228146419     0.0142623989
    3      C       0.1432409958    -0.0966968282     0.0113961890
    4      C      -2.3879818655    -0.3269611640    -0.0140539082
    5      H      -1.2431427524     1.2604480252     0.9045059673
    6      H      -1.2289976838     1.2911226826    -0.8549374373
    7      H       0.5432417529    -0.4536094160    -0.9247594657
    8      H       0.5571023136    -0.4412644250     0.9458280484
    9      H      -3.3238949619     0.2428373860    -0.0148369274
   10      H      -2.3741472791    -0.9576239813    -0.9087542612
   11      H      -2.3933451679    -0.9869635058     0.8593489490
 ----------------------------------------------------------------
 Nuclear Repulsion Energy =   145.8804376044 hartrees
 There are       31 alpha and       29 beta electrons

                       Distance Matrix (Angstroms)
             Br(  1)   C (  2)   C (  3)   C (  4)   H (  5)   H (  6)
   C (  2)  6.829043
   C (  3)  5.400000  1.494062
   C (  4)  7.883775  1.547818  2.541802
   H (  5)  7.139047  1.097742  2.135778  2.162008
   H (  6)  7.128473  1.098223  2.135326  2.160677  1.759768
   H (  7)  5.038883  2.227663  1.078784  3.072051  3.078210  2.487930
   H (  8)  5.032071  2.229280  1.078504  3.099671  2.477583  3.071494
   H (  9)  8.878410  2.191136  3.483820  1.095721  2.492038  2.488627
   H ( 10)  7.893183  2.192942  2.815158  1.094722  3.080086  2.524109
   H ( 11)  7.907496  2.193526  2.818842  1.094744  2.525047  3.079636
             H (  7)   H (  8)   H (  9)   H ( 10)
   H (  8)  1.870680
   H (  9)  4.033329  4.056231
   H ( 10)  2.960650  3.506897  1.772630
   H ( 11)  3.477219  3.001734  1.772719  1.768451
 
 Applying Cartesian multipole field
    Component          Value
    ---------          -----
     (2,0,0)        1.00000E-12
     (0,2,0)        2.00000E-11
     (0,0,2)       -3.00000E-10
 Nucleus-field energy     =     0.0000000019 hartrees
 Requested basis set is 6-31G(d,p)
 There are 41 shells and 115 basis functions
 A cutoff of  1.0D-14 yielded    689 shell pairs
 There are      4973 function pairs
 Smallest overlap matrix eigenvalue = 7.27E-04
 Guess from superposition of atomic densities
 Warning:  Energy on first SCF cycle will be non-variational
 SAD guess density has 59.972873 electrons

 -----------------------------------------------------------------------
  General SCF calculation program by
  Eric Jon Sundstrom, Paul Horn, Yuezhi Mao, Dmitri Zuev, Alec White,
  David Stuck, Shaama M.S., Shane Yost, Joonho Lee, David Small,
  Daniel Levine, Susi Lehtola, Hugh Burton, Evgeny Epifanovsky
 -----------------------------------------------------------------------
 Exchange:     0.2000 Hartree-Fock + 0.0800 Slater + 0.7200 B88
 Correlation:  0.1900 VWN1RPA + 0.8100 LYP
 Using SG-1 standard quadrature grid
 using 12 threads for integral computing
 -------------------------------------------------------
 OpenMP Integral computing Module                
 Release: version 1.0, May 2013, Q-Chem Inc. Pittsburgh 
 -------------------------------------------------------
 -------------------------------------------------------
 OpenMP BLAS3 based DFT computing Module                
 Release: version 1.0, May 2013, Q-Chem Inc. Pittsburgh 
 -------------------------------------------------------
 A unrestricted SCF calculation will be
 performed using DIIS
 SCF converges when DIIS error is below 1.0e-06
 Alpha HF Exchange    Energy = -10.71165496895992
 Beta HF Exchange     Energy = -10.71165496895992
 DFT Correlation      Energy =  -3.10414763574295
 DFT Exchange         Energy = -84.97438394893709
 One-Electron (alpha) Energy = -2012.51440267355656
 One-Electron (beta)  Energy = -2012.51440267355656
 Total Coulomb        Energy = 1293.15839195188528
 ---------------------------------------
  Cycle       Energy         DIIS error
 ---------------------------------------
    1   -2695.4918173115      1.64e-01  
 Alpha HF Exchange    Energy = -10.89643022587046
 Beta HF Exchange     Energy = -10.70177017393791
 DFT Correlation      Energy =  -3.13662477339268
 DFT Exchange         Energy = -85.90074753350527
 One-Electron (alpha) Energy = -2034.46975692649744
 One-Electron (beta)  Energy = -2001.10034140048379
 Total Coulomb        Energy = 1308.10916095753396
    2   -2692.2160724699      9.51e-03  
 Alpha HF Exchange    Energy = -10.79904294500046
 Beta HF Exchange     Energy = -10.61476717244615
 DFT Correlation      Energy =  -3.10170948001048
 DFT Exchange         Energy = -85.14858812544084
 One-Electron (alpha) Energy = -2026.99854333220355
 One-Electron (beta)  Energy = -1994.17521857144447
 Total Coulomb        Energy = 1292.73972950036068
    3   -2692.2177025199      4.12e-03  
 Alpha HF Exchange    Energy = -10.87323717992415
 Beta HF Exchange     Energy = -10.68083440743792
 DFT Correlation      Energy =  -3.12791910174725
 DFT Exchange         Energy = -85.71610609668394
 One-Electron (alpha) Energy = -2032.62066581368026
 One-Electron (beta)  Energy = -1999.19990632060171
 Total Coulomb        Energy = 1304.06027080003582
    4   -2692.2779605138      2.63e-03  
 Alpha HF Exchange    Energy = -10.84958974937132
 Beta HF Exchange     Energy = -10.65852469577814
 DFT Correlation      Energy =  -3.11848831224484
 DFT Exchange         Energy = -85.52827005824440
 One-Electron (alpha) Energy = -2030.97006982100629
 One-Electron (beta)  Energy = -1997.63679031671222
 Total Coulomb        Energy = 1300.56124774986552
    5   -2692.3200475972      3.16e-04  
 Alpha HF Exchange    Energy = -10.84746453626360
 Beta HF Exchange     Energy = -10.65711602860059
 DFT Correlation      Energy =  -3.11822894000435
 DFT Exchange         Energy = -85.51477436339056
 One-Electron (alpha) Energy = -2030.77526398221153
 One-Electron (beta)  Energy = -1997.46946864839288
 Total Coulomb        Energy = 1300.18136716412687
    6   -2692.3205117285      5.46e-05  
 Alpha HF Exchange    Energy = -10.84736724958185
 Beta HF Exchange     Energy = -10.65685995192684
 DFT Correlation      Energy =  -3.11810019994185
 DFT Exchange         Energy = -85.51326389409820
 One-Electron (alpha) Energy = -2030.76128900767822
 One-Electron (beta)  Energy = -1997.44965747387050
 Total Coulomb        Energy = 1300.14556838211502
    7   -2692.3205317887      1.60e-05  
 Alpha HF Exchange    Energy = -10.84743945986260
 Beta HF Exchange     Energy = -10.65692512847654
 DFT Correlation      Energy =  -3.11808187250023
 DFT Exchange         Energy = -85.51374394390318
 One-Electron (alpha) Energy = -2030.77103366627034
 One-Electron (beta)  Energy = -1997.45563215432685
 Total Coulomb        Energy = 1300.16188501201100
    8   -2692.3205336071      6.51e-06  
 Alpha HF Exchange    Energy = -10.84748372441958
 Beta HF Exchange     Energy = -10.65692873901122
 DFT Correlation      Energy =  -3.11808978824403
 DFT Exchange         Energy = -85.51393790345557
 One-Electron (alpha) Energy = -2030.77305905722733
 One-Electron (beta)  Energy = -1997.45527810011981
 Total Coulomb        Energy = 1300.16380565335953
    9   -2692.3205340528      1.79e-06  
 Alpha HF Exchange    Energy = -10.84748356625328
 Beta HF Exchange     Energy = -10.65692213453201
 DFT Correlation      Energy =  -3.11808479985013
 DFT Exchange         Energy = -85.51390592484677
 One-Electron (alpha) Energy = -2030.77267762680049
 One-Electron (beta)  Energy = -1997.45444968218294
 Total Coulomb        Energy = 1300.16255195820827
   10   -2692.3205341700      1.01e-06  
 Alpha HF Exchange    Energy = -10.84748360538527
 Beta HF Exchange     Energy = -10.65692132165628
 DFT Correlation      Energy =  -3.11808416420718
 DFT Exchange         Energy = -85.51390244010601
 One-Electron (alpha) Energy = -2030.77270502231795
 One-Electron (beta)  Energy = -1997.45443071017417
 Total Coulomb        Energy = 1300.16255542877730
   11   -2692.3205342288      7.20e-07  Convergence criterion met
 ---------------------------------------
 SCF time:   CPU 26.02s  wall 2.00s 
<S^2> =          2.005161812
 Alpha HF Exchange    Energy = -10.84748360538527
 Beta HF Exchange     Energy = -10.65692132165628
 DFT Correlation      Energy =  -3.11808416420718
 DFT Exchange         Energy = -85.51390244010601
 One-Electron (alpha) Energy = -2030.77270502231795
 One-Electron (beta)  Energy = -1997.45443071017417
 Total Coulomb        Energy = 1300.16255542877730
 Nuclear repulsion Energy = 145.88043760627770
 SCF   energy in the final basis set =    -2692.3205342288
 Total energy in the final basis set =    -2692.3205342288
 
 --------------------------------------------------------------
 
                    Orbital Energies (a.u.)
 --------------------------------------------------------------
 
 Alpha MOs
 -- Occupied --
******* -62.557 -56.381 -56.374 -56.374 -10.185 -10.184 -10.176
 -8.744  -6.581  -6.559  -6.559  -2.672  -2.666  -2.666  -2.650
 -2.650  -0.797  -0.779  -0.673  -0.579  -0.463  -0.425  -0.395
 -0.377  -0.371  -0.347  -0.332  -0.323  -0.322  -0.199
 -- Virtual --
  0.103   0.139   0.144   0.158   0.167   0.179   0.181   0.220
  0.231   0.270   0.289   0.312   0.312   0.512   0.529   0.534
  0.536   0.545   0.545   0.546   0.581   0.581   0.588   0.598
  0.657   0.695   0.784   0.810   0.859   0.880   0.882   0.912
  0.937   0.960   1.004   1.216   1.308   1.422   1.477   1.537
  1.602   1.676   1.683   1.821   1.878   1.937   1.978   2.007
  2.053   2.070   2.115   2.123   2.233   2.258   2.295   2.369
  2.445   2.450   2.516   2.592   2.677   2.723   2.742   2.798
  2.843   2.884   2.916   3.184   3.266   3.377   3.389   3.469
  3.478   3.552   4.241   4.431   4.604   4.648   4.656   4.656
  4.682   4.682   6.205  90.122
 
 Beta MOs
 -- Occupied --
******* -62.556 -56.376 -56.373 -56.373 -10.185 -10.175 -10.171
 -8.740  -6.570  -6.557  -6.557  -2.664  -2.660  -2.660  -2.649
 -2.649  -0.768  -0.753  -0.654  -0.565  -0.459  -0.420  -0.390
 -0.365  -0.342  -0.330  -0.309  -0.308
 -- Virtual --
 -0.235  -0.041   0.107   0.146   0.151   0.160   0.176   0.181
  0.184   0.224   0.236   0.279   0.316   0.316   0.317   0.517
  0.537   0.545   0.565   0.589   0.589   0.591   0.591   0.596
  0.600   0.628   0.668   0.709   0.789   0.818   0.862   0.882
  0.885   0.919   0.943   0.972   1.007   1.226   1.318   1.452
  1.482   1.551   1.623   1.684   1.695   1.830   1.883   1.941
  2.002   2.047   2.053   2.072   2.116   2.131   2.235   2.270
  2.295   2.375   2.449   2.462   2.524   2.616   2.683   2.726
  2.746   2.801   2.846   2.886   2.919   3.186   3.269   3.378
  3.394   3.472   3.484   3.554   4.260   4.447   4.606   4.667
  4.671   4.671   4.684   4.684   6.221  90.128
 --------------------------------------------------------------
 
          Ground-State Mulliken Net Atomic Charges

     Atom                 Charge (a.u.)    Spin (a.u.)
  --------------------------------------------------------
      1 Br                   -0.000083       0.999974
      2 C                    -0.190249      -0.073558
      3 C                    -0.218967       1.079594
      4 C                    -0.307202       0.050008
      5 H                     0.101290       0.011609
      6 H                     0.101845       0.014167
      7 H                     0.101008      -0.047156
      8 H                     0.101267      -0.047236
      9 H                     0.101229       0.013719
     10 H                     0.104827      -0.000658
     11 H                     0.105036      -0.000464
  --------------------------------------------------------
  Sum of atomic charges =    -0.000000
  Sum of spin   charges =     2.000000

 -----------------------------------------------------------------
                    Cartesian Multipole Moments
 -----------------------------------------------------------------
    Charge (ESU x 10^10)
                -0.0000
    Dipole Moment (Debye)
         X      -0.2702      Y      -0.0284      Z       0.0012
       Tot       0.2717
    Quadrupole Moments (Debye-Ang)
        XX     -37.1427     XY      -0.0353     YY     -39.9470
        XZ      -0.0651     YZ      -0.0124     ZZ     -38.7618
    Octopole Moments (Debye-Ang^2)
       XXX    -192.1447    XXY      22.6534    XYY     -79.3226
       YYY      53.9866    XXZ      -0.6991    XYZ      -0.0084
       YYZ       0.0274    XZZ     -78.4649    YZZ      17.6052
       ZZZ       0.0608
    Hexadecapole Moments (Debye-Ang^3)
      XXXX   -3286.9738   XXXY     315.2916   XXYY    -667.4309
      XYYY     309.0006   YYYY    -199.9399   XXXZ      -5.6434
      XXYZ       0.0363   XYYZ       0.2559   YYYZ      -0.6834
      XXZZ    -638.2252   XYZZ     103.2763   YYZZ     -42.7087
      XZZZ       0.6221   YZZZ      -0.4855   ZZZZ     -64.3358
 -----------------------------------------------------------------
 Calculating analytic gradient of the SCF energy
 Gradient of SCF Energy
            1           2           3           4           5           6
    1  -0.0000227   0.0001089   0.0090817  -0.0001091   0.0000215   0.0000118
    2   0.0000008  -0.0006010  -0.0058565  -0.0000161   0.0000124  -0.0000104
    3  -0.0000004   0.0000064   0.0000369   0.0000074  -0.0000015  -0.0000261
            7           8           9          10          11
    1  -0.0045402  -0.0045974   0.0000097   0.0000162   0.0000195
    2   0.0031973   0.0032185   0.0000093   0.0000137   0.0000319
    3   0.0019243  -0.0019784   0.0000034   0.0000190   0.0000091
 Max gradient component =       9.082E-03
 RMS gradient           =       2.381E-03
 Gradient time:  CPU 8.50 s  wall 0.75 s
 Geometry Optimization Parameters
   NAtoms,    NIC,     NZ,  NCons,   NDum,   NFix, NCnnct, MaxDiis
       11      85       0       1       0       0       0       0

 Cartesian Hessian Update
 Hessian Updated using BFGS Update


** CONSTRAINED OPTIMIZATION IN DELOCALIZED INTERNAL COORDINATES **
   Searching for a Minimum

   Optimization Cycle:   3

                       Coordinates (Angstroms)
     ATOM                X               Y               Z
      1  Br        5.4668765279   -1.0015034154   -0.0039015528
      2  C        -1.1661538797    0.6228146419    0.0142623989
      3  C         0.1432409958   -0.0966968282    0.0113961890
      4  C        -2.3879818655   -0.3269611640   -0.0140539082
      5  H        -1.2431427524    1.2604480252    0.9045059673
      6  H        -1.2289976838    1.2911226826   -0.8549374373
      7  H         0.5432417529   -0.4536094160   -0.9247594657
      8  H         0.5571023136   -0.4412644250    0.9458280484
      9  H        -3.3238949619    0.2428373860   -0.0148369274
     10  H        -2.3741472791   -0.9576239813   -0.9087542612
     11  H        -2.3933451679   -0.9869635058    0.8593489490
   Point Group: c1    Number of degrees of freedom:    27


   Energy is  -2692.320534229

              Constraints and their Current Values
                                        Value     Constraint
   Distance(Angs):        1   3             5.400000     5.400000
 Hessian Updated using BFGS Update

 25 Hessian modes will be used to form the next step
  Hessian Eigenvalues:
     0.044999    0.045000    0.046196    0.047009    0.063725    0.072850
     0.078136    0.082970    0.083054    0.085276    0.104787    0.132714
     0.159998    0.160000    0.160008    0.219539    0.278415    0.330522
     0.331166    0.338898    0.339430    0.341587    0.342762    0.342787
     0.429703

 Minimum Search - Taking Simple RFO Step
 Searching for Lamda that Minimizes Along All modes
 Value Taken    Lamda =  -0.00037899
 Step Taken.  Stepsize is  0.071522

                             Maximum     Tolerance    Cnvgd?
         Gradient           0.004751      0.000300      NO
         Displacement       0.066480      0.001200      NO
         Energy change     -0.000438      0.000001      NO


 New Cartesian Coordinates Obtained by Inverse Iteration

 Displacement from previous Coordinates is:  0.047104
 ----------------------------------------------------------------
             Standard Nuclear Orientation (Angstroms)
    I     Atom           X                Y                Z
 ----------------------------------------------------------------
    1      Br      5.4644552883    -0.9956551928    -0.0039567529
    2      C      -1.1687986183     0.6242289072     0.0142596975
    3      C       0.1397796036    -0.0969918524     0.0114482517
    4      C      -2.3910237191    -0.3248463197    -0.0140795189
    5      H      -1.2449277703     1.2619123288     0.9044511819
    6      H      -1.2306562297     1.2925297202    -0.8549243207
    7      H       0.5556978807    -0.4629795699    -0.9235340963
    8      H       0.5695848693    -0.4505559165     0.9447699859
    9      H      -3.3266111552     0.2455156555    -0.0149260315
   10      H      -2.3777085906    -0.9556525709    -0.9087152287
   11      H      -2.3969935587    -0.9849051895     0.8593048321
 ----------------------------------------------------------------
 Nuclear Repulsion Energy =   145.8268844267 hartrees
 There are       31 alpha and       29 beta electrons

                       Distance Matrix (Angstroms)
             Br(  1)   C (  2)   C (  3)   C (  4)   H (  5)   H (  6)
   C (  2)  6.828207
   C (  3)  5.400000  1.494170
   C (  4)  7.884075  1.547702  2.541168
   H (  5)  7.137061  1.097669  2.135764  2.162184
   H (  6)  7.126321  1.098150  2.135291  2.160874  1.759700
   H (  7)  5.022476  2.243962  1.086797  3.086966  3.091769  2.505510
   H (  8)  5.015673  2.245660  1.086660  3.114546  2.495321  3.085144
   H (  9)  8.878259  2.190988  3.483371  1.095736  2.492333  2.488948
   H ( 10)  7.894284  2.193028  2.814560  1.094745  3.080318  2.524469
   H ( 11)  7.908711  2.193599  2.818239  1.094766  2.525368  3.079876
             H (  7)   H (  8)   H (  9)   H ( 10)
   H (  8)  1.868397
   H (  9)  4.049674  4.072576
   H ( 10)  2.974529  3.518106  1.772591
   H ( 11)  3.488453  3.015530  1.772683  1.768367
 
 Applying Cartesian multipole field
    Component          Value
    ---------          -----
     (2,0,0)        1.00000E-12
     (0,2,0)        2.00000E-11
     (0,0,2)       -3.00000E-10
 Nucleus-field energy     =     0.0000000019 hartrees
 Requested basis set is 6-31G(d,p)
 There are 41 shells and 115 basis functions
 A cutoff of  1.0D-14 yielded    689 shell pairs
 There are      4973 function pairs
 Smallest overlap matrix eigenvalue = 7.27E-04
 Guess from superposition of atomic densities
 Warning:  Energy on first SCF cycle will be non-variational
 SAD guess density has 59.972873 electrons

 -----------------------------------------------------------------------
  General SCF calculation program by
  Eric Jon Sundstrom, Paul Horn, Yuezhi Mao, Dmitri Zuev, Alec White,
  David Stuck, Shaama M.S., Shane Yost, Joonho Lee, David Small,
  Daniel Levine, Susi Lehtola, Hugh Burton, Evgeny Epifanovsky
 -----------------------------------------------------------------------
 Exchange:     0.2000 Hartree-Fock + 0.0800 Slater + 0.7200 B88
 Correlation:  0.1900 VWN1RPA + 0.8100 LYP
 Using SG-1 standard quadrature grid
 using 12 threads for integral computing
 -------------------------------------------------------
 OpenMP Integral computing Module                
 Release: version 1.0, May 2013, Q-Chem Inc. Pittsburgh 
 -------------------------------------------------------
 -------------------------------------------------------
 OpenMP BLAS3 based DFT computing Module                
 Release: version 1.0, May 2013, Q-Chem Inc. Pittsburgh 
 -------------------------------------------------------
 A unrestricted SCF calculation will be
 performed using DIIS
 SCF converges when DIIS error is below 1.0e-06
 Alpha HF Exchange    Energy = -10.71066187764507
 Beta HF Exchange     Energy = -10.71066187764507
 DFT Correlation      Energy =  -3.10391747910966
 DFT Exchange         Energy = -84.97222918188260
 One-Electron (alpha) Energy = -2012.46942876777644
 One-Electron (beta)  Energy = -2012.46942876777644
 Total Coulomb        Energy = 1293.12404881600582
 ---------------------------------------
  Cycle       Energy         DIIS error
 ---------------------------------------
    1   -2695.4853947073      1.64e-01  
 Alpha HF Exchange    Energy = -10.89555362895762
 Beta HF Exchange     Energy = -10.70103475070976
 DFT Correlation      Energy =  -3.13628200416427
 DFT Exchange         Energy = -85.89483235207564
 One-Electron (alpha) Energy = -2034.40915884875517
 One-Electron (beta)  Energy = -2001.04550810316914
 Total Coulomb        Energy = 1308.03865646367217
    2   -2692.2168287956      9.50e-03  
 Alpha HF Exchange    Energy = -10.79849516764654
 Beta HF Exchange     Energy = -10.61419720225710
 DFT Correlation      Energy =  -3.10142029893569
 DFT Exchange         Energy = -85.14461559494512
 One-Electron (alpha) Energy = -2026.94937197597437
 One-Electron (beta)  Energy = -1994.12681919384295
 Total Coulomb        Energy = 1292.69006750882568
    3   -2692.2179674962      4.12e-03  
 Alpha HF Exchange    Energy = -10.87263215853683
 Beta HF Exchange     Energy = -10.68023013483839
 DFT Correlation      Energy =  -3.12765665842971
 DFT Exchange         Energy = -85.71184626434925
 One-Electron (alpha) Energy = -2032.57233901112363
 One-Electron (beta)  Energy = -1999.15289221358944
 Total Coulomb        Energy = 1304.01282143995877
    4   -2692.2778905724      2.63e-03  
 Alpha HF Exchange    Energy = -10.84893953321033
 Beta HF Exchange     Energy = -10.65789800551492
 DFT Correlation      Energy =  -3.11818444674891
 DFT Exchange         Energy = -85.52369169763746
 One-Electron (alpha) Energy = -2030.91914071823089
 One-Electron (beta)  Energy = -1997.58725431258131
 Total Coulomb        Energy = 1300.50793265390644
    5   -2692.3202916315      3.12e-04  
 Alpha HF Exchange    Energy = -10.84681600535932
 Beta HF Exchange     Energy = -10.65646865047916
 DFT Correlation      Energy =  -3.11792733518314
 DFT Exchange         Energy = -85.51012994299651
 One-Electron (alpha) Energy = -2030.72290558547525
 One-Electron (beta)  Energy = -1997.41809858975876
 Total Coulomb        Energy = 1300.12472353394446
    6   -2692.3207381468      5.47e-05  
 Alpha HF Exchange    Energy = -10.84672711474646
 Beta HF Exchange     Energy = -10.65621704227705
 DFT Correlation      Energy =  -3.11779891071542
 DFT Exchange         Energy = -85.50866809337980
 One-Electron (alpha) Energy = -2030.70969665979283
 One-Electron (beta)  Energy = -1997.39877788412741
 Total Coulomb        Energy = 1300.09024308214498
    7   -2692.3207581944      1.61e-05  
 Alpha HF Exchange    Energy = -10.84679805031580
 Beta HF Exchange     Energy = -10.65628095058078
 DFT Correlation      Energy =  -3.11777978425576
 DFT Exchange         Energy = -85.50913761017358
 One-Electron (alpha) Energy = -2030.71936807498696
 One-Electron (beta)  Energy = -1997.40461448284168
 Total Coulomb        Energy = 1300.10633446041425
    8   -2692.3207600642      6.61e-06  
 Alpha HF Exchange    Energy = -10.84684432604535
 Beta HF Exchange     Energy = -10.65628471950509
 DFT Correlation      Energy =  -3.11778782849148
 DFT Exchange         Energy = -85.50934004893897
 One-Electron (alpha) Energy = -2030.72152843689082
 One-Electron (beta)  Energy = -1997.40428547923375
 Total Coulomb        Energy = 1300.10842588382707
    9   -2692.3207605268      1.81e-06  
 Alpha HF Exchange    Energy = -10.84684414050725
 Beta HF Exchange     Energy = -10.65627767506074
 DFT Correlation      Energy =  -3.11778265511423
 DFT Exchange         Energy = -85.50930612158412
 One-Electron (alpha) Energy = -2030.72113532348158
 One-Electron (beta)  Energy = -1997.40341296826682
 Total Coulomb        Energy = 1300.10711381120655
   10   -2692.3207606443      1.01e-06  
 Alpha HF Exchange    Energy = -10.84684423467443
 Beta HF Exchange     Energy = -10.65627681946737
 DFT Correlation      Energy =  -3.11778202713047
 DFT Exchange         Energy = -85.50930271190913
 One-Electron (alpha) Energy = -2030.72116632206598
 One-Electron (beta)  Energy = -1997.40339145763073
 Total Coulomb        Energy = 1300.10711844211801
   11   -2692.3207607022      7.16e-07  Convergence criterion met
 ---------------------------------------
 SCF time:   CPU 26.24s  wall 2.00s 
<S^2> =          2.005221887
 Alpha HF Exchange    Energy = -10.84684423467443
 Beta HF Exchange     Energy = -10.65627681946737
 DFT Correlation      Energy =  -3.11778202713047
 DFT Exchange         Energy = -85.50930271190913
 One-Electron (alpha) Energy = -2030.72116632206598
 One-Electron (beta)  Energy = -1997.40339145763073
 Total Coulomb        Energy = 1300.10711844211801
 Nuclear repulsion Energy = 145.82688442852762
 SCF   energy in the final basis set =    -2692.3207607022
 Total energy in the final basis set =    -2692.3207607022
 
 --------------------------------------------------------------
 
                    Orbital Energies (a.u.)
 --------------------------------------------------------------
 
 Alpha MOs
 -- Occupied --
******* -62.557 -56.381 -56.374 -56.374 -10.187 -10.185 -10.177
 -8.744  -6.581  -6.559  -6.559  -2.672  -2.666  -2.666  -2.650
 -2.650  -0.797  -0.779  -0.672  -0.579  -0.462  -0.426  -0.393
 -0.377  -0.371  -0.348  -0.332  -0.323  -0.322  -0.199
 -- Virtual --
  0.104   0.137   0.143   0.157   0.167   0.178   0.180   0.219
  0.231   0.271   0.289   0.312   0.312   0.513   0.531   0.534
  0.535   0.545   0.545   0.547   0.581   0.581   0.589   0.597
  0.656   0.694   0.785   0.811   0.857   0.878   0.882   0.910
  0.936   0.959   1.001   1.214   1.307   1.425   1.477   1.531
  1.601   1.676   1.682   1.820   1.873   1.944   1.974   2.001
  2.052   2.070   2.119   2.123   2.228   2.258   2.291   2.368
  2.438   2.450   2.516   2.577   2.676   2.712   2.742   2.799
  2.848   2.882   2.916   3.184   3.258   3.363   3.378   3.465
  3.472   3.551   4.239   4.430   4.605   4.648   4.656   4.656
  4.682   4.682   6.205  90.122
 
 Beta MOs
 -- Occupied --
******* -62.556 -56.376 -56.373 -56.373 -10.186 -10.175 -10.173
 -8.740  -6.570  -6.557  -6.557  -2.664  -2.660  -2.660  -2.649
 -2.649  -0.768  -0.753  -0.654  -0.565  -0.457  -0.420  -0.388
 -0.366  -0.342  -0.330  -0.309  -0.308
 -- Virtual --
 -0.235  -0.040   0.108   0.145   0.150   0.159   0.176   0.181
  0.183   0.224   0.236   0.280   0.316   0.316   0.317   0.517
  0.536   0.547   0.565   0.589   0.589   0.591   0.591   0.596
  0.599   0.628   0.668   0.708   0.789   0.818   0.861   0.879
  0.885   0.917   0.942   0.970   1.004   1.225   1.317   1.455
  1.482   1.546   1.622   1.683   1.695   1.830   1.878   1.947
  2.000   2.040   2.053   2.071   2.119   2.130   2.230   2.269
  2.292   2.374   2.443   2.461   2.525   2.602   2.682   2.714
  2.745   2.801   2.850   2.884   2.920   3.186   3.261   3.368
  3.380   3.468   3.478   3.554   4.258   4.446   4.607   4.667
  4.671   4.671   4.684   4.684   6.221  90.128
 --------------------------------------------------------------
 
          Ground-State Mulliken Net Atomic Charges

     Atom                 Charge (a.u.)    Spin (a.u.)
  --------------------------------------------------------
      1 Br                   -0.000082       0.999974
      2 C                    -0.189257      -0.073702
      3 C                    -0.219909       1.080467
      4 C                    -0.307409       0.049874
      5 H                     0.102075       0.011588
      6 H                     0.102608       0.014141
      7 H                     0.100045      -0.047438
      8 H                     0.100288      -0.047524
      9 H                     0.101153       0.013759
     10 H                     0.105146      -0.000666
     11 H                     0.105344      -0.000472
  --------------------------------------------------------
  Sum of atomic charges =     0.000000
  Sum of spin   charges =     2.000000

 -----------------------------------------------------------------
                    Cartesian Multipole Moments
 -----------------------------------------------------------------
    Charge (ESU x 10^10)
                 0.0000
    Dipole Moment (Debye)
         X      -0.2749      Y      -0.0230      Z       0.0012
       Tot       0.2758
    Quadrupole Moments (Debye-Ang)
        XX     -37.1261     XY      -0.0184     YY     -39.9129
        XZ      -0.0667     YZ      -0.0136     ZZ     -38.8069
    Octopole Moments (Debye-Ang^2)
       XXX    -192.2968    XXY      23.0418    XYY     -79.2290
       YYY      53.6056    XXZ      -0.7089    XYZ      -0.0168
       YYZ       0.0307    XZZ     -78.3984    YZZ      17.4996
       ZZZ       0.0618
    Hexadecapole Moments (Debye-Ang^3)
      XXXX   -3289.0426   XXXY     318.0866   XXYY    -667.1189
      XYYY     307.0535   YYYY    -198.5069   XXXZ      -5.7189
      XXYZ      -0.0028   XYYZ       0.2741   YYYZ      -0.6888
      XXZZ    -637.8625   XYZZ     102.6864   YYZZ     -42.4853
      XZZZ       0.6336   YZZZ      -0.4873   ZZZZ     -64.4694
 -----------------------------------------------------------------
 Calculating analytic gradient of the SCF energy
 Gradient of SCF Energy
            1           2           3           4           5           6
    1  -0.0000148  -0.0004163   0.0024694   0.0000325  -0.0000807  -0.0000854
    2   0.0000032   0.0001698  -0.0010564   0.0000218   0.0000495   0.0000232
    3  -0.0000004   0.0000195  -0.0000454   0.0000104  -0.0000249  -0.0000054
            7           8           9          10          11
    1  -0.0009539  -0.0009239   0.0000079  -0.0000197  -0.0000152
    2   0.0004046   0.0004404  -0.0000034  -0.0000354  -0.0000173
    3  -0.0016289   0.0016467   0.0000027   0.0000046   0.0000210
 Max gradient component =       2.469E-03
 RMS gradient           =       6.726E-04
 Gradient time:  CPU 8.37 s  wall 0.73 s
 Geometry Optimization Parameters
   NAtoms,    NIC,     NZ,  NCons,   NDum,   NFix, NCnnct, MaxDiis
       11      85       0       1       0       0       0       0

 Cartesian Hessian Update
 Hessian Updated using BFGS Update


** CONSTRAINED OPTIMIZATION IN DELOCALIZED INTERNAL COORDINATES **
   Searching for a Minimum

   Optimization Cycle:   4

                       Coordinates (Angstroms)
     ATOM                X               Y               Z
      1  Br        5.4644552883   -0.9956551928   -0.0039567529
      2  C        -1.1687986183    0.6242289072    0.0142596975
      3  C         0.1397796036   -0.0969918524    0.0114482517
      4  C        -2.3910237191   -0.3248463197   -0.0140795189
      5  H        -1.2449277703    1.2619123288    0.9044511819
      6  H        -1.2306562297    1.2925297202   -0.8549243207
      7  H         0.5556978807   -0.4629795699   -0.9235340963
      8  H         0.5695848693   -0.4505559165    0.9447699859
      9  H        -3.3266111552    0.2455156555   -0.0149260315
     10  H        -2.3777085906   -0.9556525709   -0.9087152287
     11  H        -2.3969935587   -0.9849051895    0.8593048321
   Point Group: c1    Number of degrees of freedom:    27


   Energy is  -2692.320760702

              Constraints and their Current Values
                                        Value     Constraint
   Distance(Angs):        1   3             5.400000     5.400000
 Hessian Updated using BFGS Update

 26 Hessian modes will be used to form the next step
  Hessian Eigenvalues:
     0.042202    0.045000    0.045007    0.046235    0.047013    0.067818
     0.072850    0.078136    0.082970    0.083054    0.085293    0.104795
     0.132714    0.160000    0.160007    0.160017    0.219655    0.278416
     0.330510    0.330712    0.338914    0.339444    0.341587    0.342762
     0.342787    0.515048

 Minimum Search - Taking Simple RFO Step
 Searching for Lamda that Minimizes Along All modes
 Value Taken    Lamda =  -0.00005559
 Step Taken.  Stepsize is  0.034439

                             Maximum     Tolerance    Cnvgd?
         Gradient           0.001376      0.000300      NO
         Displacement       0.031392      0.001200      NO
         Energy change     -0.000226      0.000001      NO


 New Cartesian Coordinates Obtained by Inverse Iteration

 Displacement from previous Coordinates is:  0.023230
 ----------------------------------------------------------------
             Standard Nuclear Orientation (Angstroms)
    I     Atom           X                Y                Z
 ----------------------------------------------------------------
    1      Br      5.4631837738    -0.9919804415    -0.0039814840
    2      C      -1.1694925952     0.6239604825     0.0142475737
    3      C       0.1378001815    -0.0975228250     0.0114921339
    4      C      -2.3926834887    -0.3237826002    -0.0140980525
    5      H      -1.2444620318     1.2616218507     0.9045099623
    6      H      -1.2301404470     1.2922190648    -0.8550126438
    7      H       0.5607656461    -0.4668208480    -0.9196547975
    8      H       0.5746112932    -0.4543375309     0.9409823670
    9      H      -3.3277370960     0.2474903724    -0.0149646474
   10      H      -2.3798535114    -0.9545195510    -0.9087465040
   11      H      -2.3991937245    -0.9837279739     0.8593240923
 ----------------------------------------------------------------
 Nuclear Repulsion Energy =   145.8423104393 hartrees
 There are       31 alpha and       29 beta electrons

                       Distance Matrix (Angstroms)
             Br(  1)   C (  2)   C (  3)   C (  4)   H (  5)   H (  6)
   C (  2)  6.826712
   C (  3)  5.400000  1.493171
   C (  4)  7.884240  1.547649  2.540708
   H (  5)  7.134185  1.097634  2.134339  2.162351
   H (  6)  7.123371  1.098117  2.133887  2.161043  1.759847
   H (  7)  5.014774  2.248504  1.087343  3.092467  3.094178  2.511124
   H (  8)  5.008009  2.250214  1.087232  3.119946  2.500975  3.087586
   H (  9)  8.877877  2.191028  3.482769  1.095755  2.492776  2.489388
   H ( 10)  7.895140  2.192827  2.814225  1.094710  3.080308  2.524393
   H ( 11)  7.909636  2.193395  2.817892  1.094731  2.525281  3.079865
             H (  7)   H (  8)   H (  9)   H ( 10)
   H (  8)  1.860731
   H (  9)  4.055756  4.078568
   H ( 10)  2.980807  3.521440  1.772613
   H ( 11)  3.491893  3.021662  1.772702  1.768418
 
 Applying Cartesian multipole field
    Component          Value
    ---------          -----
     (2,0,0)        1.00000E-12
     (0,2,0)        2.00000E-11
     (0,0,2)       -3.00000E-10
 Nucleus-field energy     =     0.0000000019 hartrees
 Requested basis set is 6-31G(d,p)
 There are 41 shells and 115 basis functions
 A cutoff of  1.0D-14 yielded    689 shell pairs
 There are      4973 function pairs
 Smallest overlap matrix eigenvalue = 7.27E-04
 Guess from superposition of atomic densities
 Warning:  Energy on first SCF cycle will be non-variational
 SAD guess density has 59.972873 electrons

 -----------------------------------------------------------------------
  General SCF calculation program by
  Eric Jon Sundstrom, Paul Horn, Yuezhi Mao, Dmitri Zuev, Alec White,
  David Stuck, Shaama M.S., Shane Yost, Joonho Lee, David Small,
  Daniel Levine, Susi Lehtola, Hugh Burton, Evgeny Epifanovsky
 -----------------------------------------------------------------------
 Exchange:     0.2000 Hartree-Fock + 0.0800 Slater + 0.7200 B88
 Correlation:  0.1900 VWN1RPA + 0.8100 LYP
 Using SG-1 standard quadrature grid
 using 12 threads for integral computing
 -------------------------------------------------------
 OpenMP Integral computing Module                
 Release: version 1.0, May 2013, Q-Chem Inc. Pittsburgh 
 -------------------------------------------------------
 -------------------------------------------------------
 OpenMP BLAS3 based DFT computing Module                
 Release: version 1.0, May 2013, Q-Chem Inc. Pittsburgh 
 -------------------------------------------------------
 A unrestricted SCF calculation will be
 performed using DIIS
 SCF converges when DIIS error is below 1.0e-06
 Alpha HF Exchange    Energy = -10.71069587988144
 Beta HF Exchange     Energy = -10.71069587988144
 DFT Correlation      Energy =  -3.10391723336833
 DFT Exchange         Energy = -84.97230256658716
 One-Electron (alpha) Energy = -2012.48489391619546
 One-Electron (beta)  Energy = -2012.48489391619546
 Total Coulomb        Energy = 1293.13911214315931
 ---------------------------------------
  Cycle       Energy         DIIS error
 ---------------------------------------
    1   -2695.4859768078      1.64e-01  
 Alpha HF Exchange    Energy = -10.89553684213439
 Beta HF Exchange     Energy = -10.70101463751475
 DFT Correlation      Energy =  -3.13628078458584
 DFT Exchange         Energy = -85.89470650563477
 One-Electron (alpha) Energy = -2034.42375284639911
 One-Electron (beta)  Energy = -2001.05887989028565
 Total Coulomb        Energy = 1308.05093587872102
    2   -2692.2169251867      9.50e-03  
 Alpha HF Exchange    Energy = -10.79849408606806
 Beta HF Exchange     Energy = -10.61420587808944
 DFT Correlation      Energy =  -3.10142181076817
 DFT Exchange         Energy = -85.14465612028583
 One-Electron (alpha) Energy = -2026.96481349128408
 One-Electron (beta)  Energy = -1994.14142654749435
 Total Coulomb        Energy = 1292.70467988656219
    3   -2692.2180276063      4.12e-03  
 Alpha HF Exchange    Energy = -10.87263964850247
 Beta HF Exchange     Energy = -10.68022303396654
 DFT Correlation      Energy =  -3.12766697948890
 DFT Exchange         Energy = -85.71187580165662
 One-Electron (alpha) Energy = -2032.58845705551448
 One-Electron (beta)  Energy = -1999.16753446893608
 Total Coulomb        Energy = 1304.02818620235735
    4   -2692.2779003445      2.63e-03  
 Alpha HF Exchange    Energy = -10.84892753601282
 Beta HF Exchange     Energy = -10.65789060015169
 DFT Correlation      Energy =  -3.11818453117774
 DFT Exchange         Energy = -85.52363089064720
 One-Electron (alpha) Energy = -2030.93416643774594
 One-Electron (beta)  Energy = -1997.60126926093130
 Total Coulomb        Energy = 1300.52142771630611
    5   -2692.3203310992      3.12e-04  
 Alpha HF Exchange    Energy = -10.84680970384330
 Beta HF Exchange     Energy = -10.65646072801105
 DFT Correlation      Energy =  -3.11793011046964
 DFT Exchange         Energy = -85.51009336467283
 One-Electron (alpha) Energy = -2030.73804909918090
 One-Electron (beta)  Energy = -1997.43211464008436
 Total Coulomb        Energy = 1300.13837379317670
    6   -2692.3207734119      5.47e-05  
 Alpha HF Exchange    Energy = -10.84672156698803
 Beta HF Exchange     Energy = -10.65620994479311
 DFT Correlation      Energy =  -3.11780143960284
 DFT Exchange         Energy = -85.50863670896760
 One-Electron (alpha) Energy = -2030.72498162399097
 One-Electron (beta)  Energy = -1997.41291147152197
 Total Coulomb        Energy = 1300.10415893217419
    7   -2692.3207933825      1.61e-05  
 Alpha HF Exchange    Energy = -10.84679241429100
 Beta HF Exchange     Energy = -10.65627374674650
 DFT Correlation      Energy =  -3.11778238029891
 DFT Exchange         Energy = -85.50910568080576
 One-Electron (alpha) Energy = -2030.73463369526576
 One-Electron (beta)  Energy = -1997.41872457419618
 Total Coulomb        Energy = 1300.12020680336877
    8   -2692.3207952471      6.62e-06  
 Alpha HF Exchange    Energy = -10.84683879970711
 Beta HF Exchange     Energy = -10.65627743652981
 DFT Correlation      Energy =  -3.11779040887966
[...]
 Value Taken    Lamda =  -0.00000107
 Step Taken.  Stepsize is  0.003345

                             Maximum     Tolerance    Cnvgd?
         Gradient           0.000347      0.000300      NO
         Displacement       0.001906      0.001200      NO
         Energy change     -0.000007      0.000001      NO


 New Cartesian Coordinates Obtained by Inverse Iteration

 Displacement from previous Coordinates is:  0.003521
 ----------------------------------------------------------------
             Standard Nuclear Orientation (Angstroms)
    I     Atom           X                Y                Z
 ----------------------------------------------------------------
    1      Br      5.4628496059    -0.9889352499    -0.0040659912
    2      C      -1.1692905866     0.6228501525     0.0142511914
    3      C       0.1367290031    -0.0988797378     0.0115793237
    4      C      -2.3939418936    -0.3230975399    -0.0141356794
    5      H      -1.2433382452     1.2606085681     0.9045313138
    6      H      -1.2289208196     1.2911908658    -0.8550317551
    7      H       0.5630744126    -0.4684055399    -0.9161946036
    8      H       0.5769079453    -0.4557396671     0.9376764724
    9      H      -3.3280208988     0.2497247423    -0.0150326554
   10      H      -2.3819027312    -0.9537769222    -0.9088015318
   11      H      -2.4013477920    -0.9829396719     0.8593219152
 ----------------------------------------------------------------
 Nuclear Repulsion Energy =   145.8670514340 hartrees
 There are       31 alpha and       29 beta electrons

                       Distance Matrix (Angstroms)
             Br(  1)   C (  2)   C (  3)   C (  4)   H (  5)   H (  6)
   C (  2)  6.825209
   C (  3)  5.400000  1.492176
   C (  4)  7.884961  1.547706  2.540714
   H (  5)  7.131546  1.097642  2.133110  2.162397
   H (  6)  7.120598  1.098129  2.132677  2.161089  1.759888
   H (  7)  5.011060  2.248923  1.085856  3.094959  3.093163  2.512204
   H (  8)  5.004358  2.250618  1.085708  3.122417  2.502048  3.086517
   H (  9)  8.877714  2.190935  3.482345  1.095733  2.492666  2.489271
   H ( 10)  7.896830  2.192763  2.814508  1.094682  3.080261  2.524310
   H ( 11)  7.911452  2.193324  2.818167  1.094703  2.525181  3.079815
             H (  7)   H (  8)   H (  9)   H ( 10)
   H (  8)  1.853966
   H (  9)  4.058131  4.080907
   H ( 10)  2.984716  3.523079  1.772676
   H ( 11)  3.493566  3.025572  1.772761  1.768471
 
 Applying Cartesian multipole field
    Component          Value
    ---------          -----
     (2,0,0)        1.00000E-12
     (0,2,0)        2.00000E-11
     (0,0,2)       -3.00000E-10
 Nucleus-field energy     =     0.0000000019 hartrees
 Requested basis set is 6-31G(d,p)
 There are 41 shells and 115 basis functions
 A cutoff of  1.0D-14 yielded    689 shell pairs
 There are      4973 function pairs
 Smallest overlap matrix eigenvalue = 7.27E-04
 Guess from superposition of atomic densities
 Warning:  Energy on first SCF cycle will be non-variational
 SAD guess density has 59.972873 electrons

 -----------------------------------------------------------------------
  General SCF calculation program by
  Eric Jon Sundstrom, Paul Horn, Yuezhi Mao, Dmitri Zuev, Alec White,
  David Stuck, Shaama M.S., Shane Yost, Joonho Lee, David Small,
  Daniel Levine, Susi Lehtola, Hugh Burton, Evgeny Epifanovsky
 -----------------------------------------------------------------------
 Exchange:     0.2000 Hartree-Fock + 0.0800 Slater + 0.7200 B88
 Correlation:  0.1900 VWN1RPA + 0.8100 LYP
 Using SG-1 standard quadrature grid
 using 12 threads for integral computing
 -------------------------------------------------------
 OpenMP Integral computing Module                
 Release: version 1.0, May 2013, Q-Chem Inc. Pittsburgh 
 -------------------------------------------------------
 -------------------------------------------------------
 OpenMP BLAS3 based DFT computing Module                
 Release: version 1.0, May 2013, Q-Chem Inc. Pittsburgh 
 -------------------------------------------------------
 A unrestricted SCF calculation will be
 performed using DIIS
 SCF converges when DIIS error is below 1.0e-06
 Alpha HF Exchange    Energy = -10.71096377770893
 Beta HF Exchange     Energy = -10.71096377770893
 DFT Correlation      Energy =  -3.10397039700802
 DFT Exchange         Energy = -84.97288994506329
 One-Electron (alpha) Energy = -2012.50758422778426
 One-Electron (beta)  Energy = -2012.50758422778426
 Total Coulomb        Energy = 1293.15885779843984
 ---------------------------------------
  Cycle       Energy         DIIS error
 ---------------------------------------
    1   -2695.4880471188      1.64e-01  
 Alpha HF Exchange    Energy = -10.89573357107091
 Beta HF Exchange     Energy = -10.70117571863352
 DFT Correlation      Energy =  -3.13636294018697
 DFT Exchange         Energy = -85.89602878324226
 One-Electron (alpha) Energy = -2034.44934748951800
 One-Electron (beta)  Energy = -2001.08207603993537
 Total Coulomb        Energy = 1308.07680933113602
    2   -2692.2168637756      9.50e-03  
 Alpha HF Exchange    Energy = -10.79862456008588
 Beta HF Exchange     Energy = -10.61435551062070
 DFT Correlation      Energy =  -3.10149382730762
 DFT Exchange         Energy = -85.14566423969592
 One-Electron (alpha) Energy = -2026.98854385176378
 One-Electron (beta)  Energy = -1994.16442112201662
 Total Coulomb        Energy = 1292.72799318102238
    3   -2692.2180584946      4.12e-03  
 Alpha HF Exchange    Energy = -10.87279116723276
 Beta HF Exchange     Energy = -10.68036363628061
 DFT Correlation      Energy =  -3.12774031456023
 DFT Exchange         Energy = -85.71293047760712
 One-Electron (alpha) Energy = -2032.61246549623843
 One-Electron (beta)  Energy = -1999.19002690173807
 Total Coulomb        Energy = 1304.05130450790989
    4   -2692.2779620499      2.63e-03  
 Alpha HF Exchange    Energy = -10.84907200590912
 Beta HF Exchange     Energy = -10.65803730808102
 DFT Correlation      Energy =  -3.11825861081138
 DFT Exchange         Energy = -85.52468274907599
 One-Electron (alpha) Energy = -2030.95780754191833
 One-Electron (beta)  Energy = -1997.62383564553261
 Total Coulomb        Energy = 1300.54430341258171
    5   -2692.3203390129      3.11e-04  
 Alpha HF Exchange    Energy = -10.84695926654237
 Beta HF Exchange     Energy = -10.65661216872167
 DFT Correlation      Energy =  -3.11800620618286
 DFT Exchange         Energy = -85.51118540474744
 One-Electron (alpha) Energy = -2030.76217437479568
 One-Electron (beta)  Energy = -1997.45515294262350
 Total Coulomb        Energy = 1300.16225740087521
    6   -2692.3207815269      5.46e-05  
 Alpha HF Exchange    Energy = -10.84686977722221
 Beta HF Exchange     Energy = -10.65636104378355
 DFT Correlation      Energy =  -3.11787724805692
 DFT Exchange         Energy = -85.50972162965598
 One-Electron (alpha) Energy = -2030.74905032165816
 One-Electron (beta)  Energy = -1997.43593947522186
 Total Coulomb        Energy = 1300.12796663271638
    7   -2692.3208014270      1.61e-05  
 Alpha HF Exchange    Energy = -10.84694085492068
 Beta HF Exchange     Energy = -10.65642506323028
 DFT Correlation      Energy =  -3.11785844783482
 DFT Exchange         Energy = -85.51019269965855
 One-Electron (alpha) Energy = -2030.75870225212293
 One-Electron (beta)  Energy = -1997.44176481381328
 Total Coulomb        Energy = 1300.14402942256856
    8   -2692.3208032732      6.61e-06  
 Alpha HF Exchange    Energy = -10.84698683621009
 Beta HF Exchange     Energy = -10.65642863508038
 DFT Correlation      Energy =  -3.11786643082063
 DFT Exchange         Energy = -85.51039316400995
 One-Electron (alpha) Energy = -2030.76083859344203
 One-Electron (beta)  Energy = -1997.44142558933299
 Total Coulomb        Energy = 1300.14608408309186
    9   -2692.3208037300      1.80e-06  
 Alpha HF Exchange    Energy = -10.84698662671925
 Beta HF Exchange     Energy = -10.65642159553565
 DFT Correlation      Energy =  -3.11786129611246
 DFT Exchange         Energy = -85.51035920459111
 One-Electron (alpha) Energy = -2030.76044188344235
 One-Electron (beta)  Energy = -1997.44055308787097
 Total Coulomb        Energy = 1300.14476841682449
   10   -2692.3208038416      1.00e-06  
 Alpha HF Exchange    Energy = -10.84698674394728
 Beta HF Exchange     Energy = -10.65642076516502
 DFT Correlation      Energy =  -3.11786066814470
 DFT Exchange         Energy = -85.51035597297465
 One-Electron (alpha) Energy = -2030.76047636492285
 One-Electron (beta)  Energy = -1997.44053452845969
 Total Coulomb        Energy = 1300.14477971189422
   11   -2692.3208038959      6.94e-07  Convergence criterion met
 ---------------------------------------
 SCF time:   CPU 26.23s  wall 3.00s 
<S^2> =          2.005216028
 Alpha HF Exchange    Energy = -10.84698674394728
 Beta HF Exchange     Energy = -10.65642076516502
 DFT Correlation      Energy =  -3.11786066814470
 DFT Exchange         Energy = -85.51035597297465
 One-Electron (alpha) Energy = -2030.76047636492285
 One-Electron (beta)  Energy = -1997.44053452845969
 Total Coulomb        Energy = 1300.14477971189422
 Nuclear repulsion Energy = 145.86705143583686
 SCF   energy in the final basis set =    -2692.3208038959
 Total energy in the final basis set =    -2692.3208038959
 
 --------------------------------------------------------------
 
                    Orbital Energies (a.u.)
 --------------------------------------------------------------
 
 Alpha MOs
 -- Occupied --
******* -62.557 -56.381 -56.374 -56.374 -10.186 -10.185 -10.177
 -8.744  -6.581  -6.559  -6.559  -2.672  -2.666  -2.666  -2.650
 -2.650  -0.797  -0.779  -0.672  -0.579  -0.461  -0.427  -0.392
 -0.378  -0.371  -0.348  -0.332  -0.323  -0.322  -0.199
 -- Virtual --
  0.104   0.138   0.143   0.157   0.168   0.178   0.179   0.220
  0.231   0.272   0.289   0.312   0.312   0.512   0.532   0.534
  0.534   0.545   0.545   0.547   0.581   0.581   0.589   0.596
  0.656   0.694   0.785   0.812   0.857   0.877   0.882   0.910
  0.937   0.959   0.998   1.213   1.307   1.428   1.477   1.528
  1.600   1.676   1.682   1.821   1.871   1.955   1.974   2.000
  2.052   2.070   2.121   2.124   2.225   2.258   2.290   2.370
  2.437   2.451   2.520   2.574   2.676   2.710   2.742   2.803
  2.857   2.882   2.921   3.185   3.257   3.357   3.378   3.465
  3.479   3.554   4.238   4.430   4.605   4.648   4.656   4.656
  4.682   4.682   6.205  90.122
 
 Beta MOs
 -- Occupied --
******* -62.556 -56.376 -56.373 -56.373 -10.186 -10.175 -10.172
 -8.740  -6.570  -6.557  -6.557  -2.664  -2.660  -2.660  -2.649
 -2.649  -0.768  -0.753  -0.654  -0.565  -0.457  -0.421  -0.387
 -0.366  -0.343  -0.330  -0.309  -0.308
 -- Virtual --
 -0.235  -0.040   0.108   0.145   0.150   0.159   0.176   0.180
  0.183   0.224   0.235   0.281   0.316   0.316   0.317   0.517
  0.535   0.548   0.566   0.589   0.589   0.590   0.591   0.596
  0.598   0.629   0.668   0.708   0.790   0.819   0.861   0.879
  0.885   0.917   0.942   0.971   1.001   1.223   1.317   1.457
  1.482   1.543   1.621   1.682   1.695   1.830   1.876   1.958
  1.999   2.040   2.053   2.071   2.123   2.130   2.227   2.270
  2.291   2.376   2.442   2.462   2.529   2.598   2.682   2.712
  2.746   2.806   2.859   2.884   2.924   3.186   3.260   3.361
  3.380   3.467   3.485   3.557   4.257   4.446   4.608   4.667
  4.671   4.671   4.684   4.684   6.221  90.128
 --------------------------------------------------------------
 
          Ground-State Mulliken Net Atomic Charges

     Atom                 Charge (a.u.)    Spin (a.u.)
  --------------------------------------------------------
      1 Br                   -0.000079       0.999974
      2 C                    -0.188944      -0.073872
      3 C                    -0.220496       1.080104
      4 C                    -0.307511       0.050151
      5 H                     0.102427       0.011688
      6 H                     0.102956       0.014277
      7 H                     0.099703      -0.047403
      8 H                     0.099951      -0.047490
      9 H                     0.101137       0.013707
     10 H                     0.105333      -0.000667
     11 H                     0.105523      -0.000470
  --------------------------------------------------------
  Sum of atomic charges =     0.000000
  Sum of spin   charges =     2.000000

 -----------------------------------------------------------------
                    Cartesian Multipole Moments
 -----------------------------------------------------------------
    Charge (ESU x 10^10)
                 0.0000
    Dipole Moment (Debye)
         X      -0.2718      Y      -0.0200      Z       0.0011
       Tot       0.2725
    Quadrupole Moments (Debye-Ang)
        XX     -37.1094     XY       0.0105     YY     -39.8733
        XZ      -0.0676     YZ      -0.0150     ZZ     -38.8377
    Octopole Moments (Debye-Ang^2)
       XXX    -192.4727    XXY      23.4041    XYY     -79.1232
       YYY      53.2034    XXZ      -0.7151    XYZ      -0.0246
       YYZ       0.0347    XZZ     -78.3571    YZZ      17.3980
       ZZZ       0.0659
    Hexadecapole Moments (Debye-Ang^3)
      XXXX   -3291.7537   XXXY     320.3583   XXYY    -666.7935
      XYYY     304.7507   YYYY    -196.7027   XXXZ      -5.7577
      XXYZ      -0.0457   XYYZ       0.2972   YYYZ      -0.6962
      XXZZ    -637.6014   XYZZ     102.0034   YYZZ     -42.1834
      XZZZ       0.6613   YZZZ      -0.4915   ZZZZ     -64.4328
 -----------------------------------------------------------------
 Calculating analytic gradient of the SCF energy
 Gradient of SCF Energy
            1           2           3           4           5           6
    1  -0.0000093  -0.0000592   0.0001196   0.0000110   0.0000109   0.0000030
    2   0.0000064  -0.0000423   0.0003367  -0.0000005   0.0000065  -0.0000195
    3  -0.0000006   0.0000100  -0.0000246   0.0000106  -0.0000122  -0.0000184
            7           8           9          10          11
    1  -0.0000370  -0.0000351  -0.0000029  -0.0000027   0.0000017
    2  -0.0001510  -0.0001371  -0.0000011  -0.0000084   0.0000103
    3   0.0000109  -0.0000063   0.0000031   0.0000131   0.0000144
 Max gradient component =       3.367E-04
 RMS gradient           =       7.386E-05
 Gradient time:  CPU 8.32 s  wall 0.72 s
 Geometry Optimization Parameters
   NAtoms,    NIC,     NZ,  NCons,   NDum,   NFix, NCnnct, MaxDiis
       11      85       0       1       0       0       0       0

 Cartesian Hessian Update
 Hessian Updated using BFGS Update


** CONSTRAINED OPTIMIZATION IN DELOCALIZED INTERNAL COORDINATES **
   Searching for a Minimum

   Optimization Cycle:   7

                       Coordinates (Angstroms)
     ATOM                X               Y               Z
      1  Br        5.4628496059   -0.9889352499   -0.0040659912
      2  C        -1.1692905866    0.6228501525    0.0142511914
      3  C         0.1367290031   -0.0988797378    0.0115793237
      4  C        -2.3939418936   -0.3230975399   -0.0141356794
      5  H        -1.2433382452    1.2606085681    0.9045313138
      6  H        -1.2289208196    1.2911908658   -0.8550317551
      7  H         0.5630744126   -0.4684055399   -0.9161946036
      8  H         0.5769079453   -0.4557396671    0.9376764724
      9  H        -3.3280208988    0.2497247423   -0.0150326554
     10  H        -2.3819027312   -0.9537769222   -0.9088015318
     11  H        -2.4013477920   -0.9829396719    0.8593219152
   Point Group: c1    Number of degrees of freedom:    27


   Energy is  -2692.320803896

              Constraints and their Current Values
                                        Value     Constraint
   Distance(Angs):        1   3             5.400000     5.400000
 Hessian Updated using BFGS Update

 26 Hessian modes will be used to form the next step
  Hessian Eigenvalues:
     0.023180    0.038286    0.045000    0.045014    0.047012    0.067818
     0.072846    0.077731    0.080915    0.082971    0.083054    0.104702
     0.132714    0.159947    0.160000    0.160011    0.218725    0.278329
     0.330512    0.330618    0.338861    0.339418    0.341583    0.342762
     0.342787    0.469375

 Minimum Search - Taking Simple RFO Step
 Searching for Lamda that Minimizes Along All modes
 Value Taken    Lamda =   0.00000000
 Step Taken.  Stepsize is  0.004731

                             Maximum     Tolerance    Cnvgd?
         Gradient           0.000088      0.000300     YES
         Displacement       0.003352      0.001200      NO
         Energy change     -0.000001      0.000001     YES


                       Distance Matrix (Angstroms)
             Br(  1)   C (  2)   C (  3)   C (  4)   H (  5)   H (  6)
   C (  2)  6.825209
   C (  3)  5.400000  1.492176
   C (  4)  7.884961  1.547706  2.540714
   H (  5)  7.131546  1.097642  2.133110  2.162397
   H (  6)  7.120598  1.098129  2.132677  2.161089  1.759888
   H (  7)  5.011060  2.248923  1.085856  3.094959  3.093163  2.512204
   H (  8)  5.004358  2.250618  1.085708  3.122417  2.502048  3.086517
   H (  9)  8.877714  2.190935  3.482345  1.095733  2.492666  2.489271
   H ( 10)  7.896830  2.192763  2.814508  1.094682  3.080261  2.524310
   H ( 11)  7.911452  2.193324  2.818167  1.094703  2.525181  3.079815
             H (  7)   H (  8)   H (  9)   H ( 10)
   H (  8)  1.853966
   H (  9)  4.058131  4.080907
   H ( 10)  2.984716  3.523079  1.772676
   H ( 11)  3.493566  3.025572  1.772761  1.768471
 
 Final energy is   -2692.32080389588     


 ******************************
 **  OPTIMIZATION CONVERGED  **
 ******************************

                       Coordinates (Angstroms)
     ATOM                X               Y               Z
      1  Br        5.4628496059   -0.9889352499   -0.0040659912
      2  C        -1.1692905866    0.6228501525    0.0142511914
      3  C         0.1367290031   -0.0988797378    0.0115793237
      4  C        -2.3939418936   -0.3230975399   -0.0141356794
      5  H        -1.2433382452    1.2606085681    0.9045313138
      6  H        -1.2289208196    1.2911908658   -0.8550317551
      7  H         0.5630744126   -0.4684055399   -0.9161946036
      8  H         0.5769079453   -0.4557396671    0.9376764724
      9  H        -3.3280208988    0.2497247423   -0.0150326554
     10  H        -2.3819027312   -0.9537769222   -0.9088015318
     11  H        -2.4013477920   -0.9829396719    0.8593219152

Z-matrix Print:
$molecule
0 3
Br
H  1 5.004358
C  2 1.085708 1 105.684376
H  3 1.085856 2 117.243076 1 34.651379 0
C  3 1.492176 2 120.817310 1 -158.239693 0
H  5 1.097642 3 109.969837 2 36.543415 0
H  5 1.098129 3 109.906343 2 153.532990 0
C  5 1.547706 3 113.384623 2 -85.067484 0
H  8 1.094682 5 111.002875 3 -59.724380 0
H  8 1.094703 5 111.046228 3 60.122705 0
H  8 1.095733 5 110.795329 3 -179.782684 0
$end

PES scan, value:    5.4000 energy: -2692.3208038959
------- Summary of potential scan: ------ 
    5.4000     -2692.3208038959
----------------------------------------- 
Archival summary:
1\1\hpc0242\JobtypUnspecified\ProcedureUnspecified\6-31G**\r137(3)\knomura\WedMar1317:17:232019WedMar1317:17:232019\0\\#,JobtypUnspecified,ProcedureUnspecified,6-31G**,\\0,3\Br\H,1,5.00436\C,2,1.08571,1,105.684\H,3,1.08586,2,117.243,1,34.6514,0\C,3,1.49218,2,120.817,1,-158.24,0\H,5,1.09764,3,109.97,2,36.5434,0\H,5,1.09813,3,109.906,2,153.533,0\C,5,1.54771,3,113.385,2,-85.0675,0\H,8,1.09468,5,111.003,3,-59.7244,0\H,8,1.0947,5,111.046,3,60.1227,0\H,8,1.09573,5,110.795,3,-179.783,0\\\@

 Total job time:  25.92s(wall), 272.27s(cpu) 
 Wed Mar 13 17:17:23 2019

        *************************************************************
        *                                                           *
        *  Thank you very much for using Q-Chem.  Have a nice day.  *
        *                                                           *
        *************************************************************


