
Running Job 1 of 1 halogens/Bromine/02/Br_3.xyz.data/inputs/bond_triplet_2.4.in
qchem halogens/Bromine/02/Br_3.xyz.data/inputs/bond_triplet_2.4.in_29020.0 /staging/scratch/2868759/qchem29020/ 1
/usr/usc/qchem/5.1.1/exe/qcprog.exe_s halogens/Bromine/02/Br_3.xyz.data/inputs/bond_triplet_2.4.in_29020.0 /staging/scratch/2868759/qchem29020/
Check license passed

                  Welcome to Q-Chem
     A Quantum Leap Into The Future Of Chemistry


 Q-Chem 5.1, Q-Chem, Inc., Pleasanton, CA (2018)

 Yihan Shao,  Zhengting Gan,  E. Epifanovsky,  A. T. B. Gilbert,  M. Wormit,  
 J. Kussmann,  A. W. Lange,  A. Behn,  Jia Deng,  Xintian Feng,  D. Ghosh,  
 M. Goldey,  P. R. Horn,  L. D. Jacobson,  I. Kaliman,  T. Kus,  A. Landau,  
 Jie Liu,  E. I. Proynov,  R. M. Richard,  R. P. Steele,  E. J. Sundstrom,  
 H. L. Woodcock III,  P. M. Zimmerman,  D. Zuev,  B. Albrecht,  E. Alguire,  
 S. A. Baeppler,  D. Barton,  Z. Benda,  Y. A. Bernard,  E. J. Berquist,  
 K. B. Bravaya,  H. Burton,  D. Casanova,  Chun-Min Chang,  Yunqing Chen,  
 A. Chien,  K. D. Closser,  M. P. Coons,  S. Coriani,  S. Dasgupta,  
 A. L. Dempwolff,  M. Diedenhofen,  Hainam Do,  R. G. Edgar,  Po-Tung Fang,  
 S. Faraji,  S. Fatehi,  Qingguo Feng,  K. D. Fenk,  J. Fosso-Tande,  
 Qinghui Ge,  A. Ghysels,  G. Gidofalvi,  J. Gomes,  J. Gonthier,  A. Gunina,  
 D. Hait,  M. W. D. Hanson-Heine,  P. H. P. Harbach,  A. W. Hauser,  
 J. E. Herr,  E. G. Hohenstein,  Z. C. Holden,  Kerwin Hui,  B. C. Huynh,  
 T.-C. Jagau,  Hyunjun Ji,  B. Kaduk,  K. Khistyaev,  Jaehoon Kim,  
 P. Klunzinger,  K. Koh,  D. Kosenkov,  L. Koulias,  T. Kowalczyk,  
 C. M. Krauter,  A. Kunitsa,  Ka Un Lao,  A. Laurent,  K. V. Lawler,  
 Joonho Lee,  D. Lefrancois,  S. Lehtola,  D. S. Levine,  Yi-Pei Li,  
 You-Sheng Lin,  Fenglai Liu,  E. Livshits,  A. Luenser,  P. Manohar,  
 E. Mansoor,  S. F. Manzer,  Shan-Ping Mao,  Yuezhi Mao,  N. Mardirossian,  
 A. V. Marenich,  T. Markovich,  L. A. Martinez-Martinez,  S. A. Maurer,  
 N. J. Mayhall,  S. C. McKenzie,  J.-M. Mewes,  A. F. Morrison,  
 J. W. Mullinax,  K. Nanda,  T. S. Nguyen-Beck,  R. Olivares-Amaya,  
 J. A. Parkhill,  T. M. Perrine,  F. Plasser,  P. Pokhilko,  S. Prager,  
 A. Prociuk,  E. Ramos,  D. R. Rehn,  F. Rob,  M. Schneider,  N. Sergueev,  
 S. M. Sharada,  S. Sharma,  D. W. Small,  T. Stauch,  T. Stein,  
 Yu-Chuan Su,  A. J. W. Thom,  A. Tkatchenko,  T. Tsuchimochi,  N. M. Tubman,  
 L. Vogt,  M. L. Vidal,  O. Vydrov,  M. A. Watson,  J. Wenzel,  
 M. de Wergifosse,  T. A. Wesolowski,  A. White,  J. Witte,  A. Yamada,  
 Jun Yang,  K. Yao,  S. Yeganeh,  S. R. Yost,  Zhi-Qiang You,  A. Zech,  
 Igor Ying Zhang,  Xing Zhang,  Yan Zhao,  Ying Zhu,  B. R. Brooks,  
 G. K. L. Chan,  C. J. Cramer,  M. S. Gordon,  W. J. Hehre,  A. Klamt,  
 M. W. Schmidt,  C. D. Sherrill,  D. G. Truhlar,  A. Aspuru-Guzik,  R. Baer,  
 A. T. Bell,  N. A. Besley,  Jeng-Da Chai,  A. E. DePrince, III,  
 R. A. DiStasio Jr.,  A. Dreuw,  B. D. Dunietz,  T. R. Furlani,  
 Chao-Ping Hsu,  Yousung Jung,  Jing Kong,  D. S. Lambrecht,  WanZhen Liang,  
 C. Ochsenfeld,  V. A. Rassolov,  L. V. Slipchenko,  J. E. Subotnik,  
 T. Van Voorhis,  J. M. Herbert,  A. I. Krylov,  P. M. W. Gill,  M. Head-Gordon

 Contributors to earlier versions of Q-Chem not listed above: 
 R. D. Adamson,  B. Austin,  J. Baker,  G. J. O. Beran,  K. Brandhorst,  
 S. T. Brown,  E. F. C. Byrd,  A. K. Chakraborty,  C.-L. Cheng,  
 Siu Hung Chien,  D. M. Chipman,  D. L. Crittenden,  H. Dachsel,  
 R. J. Doerksen,  A. D. Dutoi,  L. Fusti-Molnar,  W. A. Goddard III,  
 A. Golubeva-Zadorozhnaya,  S. R. Gwaltney,  G. Hawkins,  A. Heyden,  
 S. Hirata,  G. Kedziora,  F. J. Keil,  C. Kelley,  Jihan Kim,  R. A. King,  
 R. Z. Khaliullin,  P. P. Korambath,  W. Kurlancheek,  A. M. Lee,  M. S. Lee,  
 S. V. Levchenko,  Ching Yeh Lin,  D. Liotard,  R. C. Lochan,  I. Lotan,  
 P. E. Maslen,  N. Nair,  D. P. O'Neill,  D. Neuhauser,  E. Neuscamman,  
 C. M. Oana,  R. Olson,  B. Peters,  R. Peverati,  P. A. Pieniazek,  
 Y. M. Rhee,  J. Ritchie,  M. A. Rohrdanz,  E. Rosta,  N. J. Russ,  
 H. F. Schaefer III,  N. E. Schultz,  N. Shenvi,  A. C. Simmonett,  A. Sodt,  
 D. Stuck,  K. S. Thanthiriwatte,  V. Vanovschi,  Tao Wang,  A. Warshel,  
 C. F. Williams,  Q. Wu,  X. Xu,  W. Zhang

 Please cite Q-Chem as follows:
 Y. Shao et al., Mol. Phys. 113, 184-215 (2015)
 DOI: 10.1080/00268976.2014.952696

 Q-Chem 5.1.1 for Intel X86 EM64T Linux

 Parts of Q-Chem use Armadillo 8.300.2 (Tropical Shenanigans).
 http://arma.sourceforge.net/

 Q-Chem begins on Wed Mar 13 17:41:31 2019  

Host: 
0

     Scratch files written to /staging/scratch/2868759/qchem29020//
 Aug318 |scratch|qcdevops|jenkins|workspace|build_RNUM 6013   
Processing $rem in /usr/usc/qchem/5.1.1/config/preferences.
 MEM_TOTAL  2000 
Input Ideriv = 2
Curr. Ideriv = -1
Max.  Ideriv = 2

Checking the input file for inconsistencies... 	...done.

--------------------------------------------------------------
User input:
--------------------------------------------------------------

$comment
potential surface scanner
$end

$rem
JOBTYPE  PES_SCAN
UNRESTRICTED TRUE
SYM_IGNORE  TRUE
GEOM_OPT_MAX_CYCLES 400
SCF_MAX_CYCLES 400
METHOD   B3LYP
BASIS   6-31G**
PDB_PRINT 2
SCF_CONVERGENCE 6
THRESH 14
SCF_PRINT 1
$end
$molecule
0 3
Br 2.672069 0.322938 0.006380
C -0.686037 0.451504 0.009082
C 0.358770 -0.625032 0.005741
C -2.132449 -0.087773 -0.007235
H -0.558946 1.089835 0.894239
H -0.545904 1.108582 -0.860226
H 0.499628 -1.202878 -0.910000
H 0.488127 -1.221779 0.910394
H -2.861971 0.730824 -0.002797
H -2.314169 -0.696535 -0.899307
H -2.326333 -0.717080 0.867835
$end
$scan
stre 1 3 2.400000 2.401000 0.100000
$end
--------------------------------------------------------------
 ----------------------------------------------------------------
             Standard Nuclear Orientation (Angstroms)
    I     Atom           X                Y                Z
 ----------------------------------------------------------------
    1      Br      2.6720690000     0.3229380000     0.0063800000
    2      C      -0.6860370000     0.4515040000     0.0090820000
    3      C       0.3587700000    -0.6250320000     0.0057410000
    4      C      -2.1324490000    -0.0877730000    -0.0072350000
    5      H      -0.5589460000     1.0898350000     0.8942390000
    6      H      -0.5459040000     1.1085820000    -0.8602260000
    7      H       0.4996280000    -1.2028780000    -0.9100000000
    8      H       0.4881270000    -1.2217790000     0.9103940000
    9      H      -2.8619710000     0.7308240000    -0.0027970000
   10      H      -2.3141690000    -0.6965350000    -0.8993070000
   11      H      -2.3263330000    -0.7170800000     0.8678350000
 ----------------------------------------------------------------
 Nuclear Repulsion Energy =   210.5736061916 hartrees
 There are       31 alpha and       29 beta electrons
 Requested basis set is 6-31G(d,p)
 There are 41 shells and 115 basis functions

 Total QAlloc Memory Limit   2000 MB
 Mega-Array Size       188 MB
 MEM_STATIC part       192 MB
A total of 1 constraints
  
            1
    1   1.0100000
    2   1.0100000
    3   3.0100000
    4   2.4000000
    5   2.4010000
    6   0.1000000
    7   0.0000000
    8   0.0000000
    9   0.0000000
   10   0.0000000

                       Distance Matrix (Angstroms)
             Br(  1)   C (  2)   C (  3)   C (  4)   H (  5)   H (  6)
   C (  2)  3.360567
   C (  3)  2.500000  1.500188
   C (  4)  4.822060  1.543760  2.548527
   H (  5)  3.437424  1.098691  2.138317  2.162251
   H (  6)  3.423973  1.098674  2.138633  2.162402  1.754614
   H (  7)  2.808446  2.233270  1.091938  2.997711  3.103609  2.537412
   H (  8)  2.823649  2.234032  1.091438  2.999238  2.537751  3.104013
   H (  9)  5.549059  2.193821  3.494509  1.096505  2.497496  2.498410
   H ( 10)  5.169348  2.189515  2.822911  1.095174  3.080379  2.527199
   H ( 11)  5.177622  2.189433  2.821605  1.095156  2.527706  3.080449
             H (  7)   H (  8)   H (  9)   H ( 10)
   H (  8)  1.820528
   H (  9)  3.982784  3.983683
   H ( 10)  2.859012  3.376946  1.772335
   H ( 11)  3.373834  2.859671  1.772381  1.767303
 
 A cutoff of  1.0D-14 yielded    798 shell pairs
 There are      6232 function pairs
 
 -------------------------------------------------------
 OpenMP Integral Computing Module                       
 Release: version 1.0, May 2013, Q-Chem Inc. Pittsburgh 
 -------------------------------------------------------
 Integral Job Info:
 Integral job number is                      11
 Integral operator is                         1
 short-range coefficients                     0
 long-range coefficients              100000000
 Omega coefficients                           0
 if combine SR and LR in K                    0
 Integral screening is                        0
 Integral computing path is                   2
 max size of driver memory is            800000
 size of driver memory is                593474
 size of scratch memory is             15267112
 max col of scratch BK array               1296
 max len of scratch array in speh3          155
 max len of scratch index in speh4           18
 max int batch size is                      520
 min int batch size is                       52
 fixed nKL is                                52
 max L of basis functions is                  2
 order of int derivative is                   0
 number of shells is                         41
 number of basis is                         115
 number of cartesian basis is               115
 number of contracted shell pairs           798
 number of primitive shell pairs           3096
 maxK2 (contraction) of shell pair           36
 max number of K2 of shell pair               1
 max number of CS2 of shell pair             59
 max number of PS2 of shell pair            246
 mem total for path MDJ                  517836
 -------------------------------------------------------
 Smallest overlap matrix eigenvalue = 7.25E-04

 Scale SEOQF with 1.000000e-01/1.000000e+00/1.000000e+00

 Standard Electronic Orientation quadrupole field applied
 Nucleus-field energy     =     0.0000000158 hartrees
 Guess from superposition of atomic densities
 Warning:  Energy on first SCF cycle will be non-variational
 SAD guess density has 59.972873 electrons

 -----------------------------------------------------------------------
  General SCF calculation program by
  Eric Jon Sundstrom, Paul Horn, Yuezhi Mao, Dmitri Zuev, Alec White,
  David Stuck, Shaama M.S., Shane Yost, Joonho Lee, David Small,
  Daniel Levine, Susi Lehtola, Hugh Burton, Evgeny Epifanovsky
 -----------------------------------------------------------------------
 Exchange:     0.2000 Hartree-Fock + 0.0800 Slater + 0.7200 B88
 Correlation:  0.1900 VWN1RPA + 0.8100 LYP
 Using SG-1 standard quadrature grid
 using 12 threads for integral computing
 -------------------------------------------------------
 OpenMP Integral computing Module                
 Release: version 1.0, May 2013, Q-Chem Inc. Pittsburgh 
 -------------------------------------------------------
 -------------------------------------------------------
 OpenMP BLAS3 based DFT computing Module                
 Release: version 1.0, May 2013, Q-Chem Inc. Pittsburgh 
 -------------------------------------------------------
 A unrestricted SCF calculation will be
 performed using DIIS
 SCF converges when DIIS error is below 1.0e-06
 Alpha HF Exchange    Energy = -10.72010199908343
 Beta HF Exchange     Energy = -10.72010199908343
 DFT Correlation      Energy =  -3.11402490171129
 DFT Exchange         Energy = -84.98724423873585
 One-Electron (alpha) Energy = -2077.19355251654497
 One-Electron (beta)  Energy = -2077.19355251654497
 Total Coulomb        Energy = 1357.68298116549818
 ---------------------------------------
  Cycle       Energy         DIIS error
 ---------------------------------------
    1   -2695.6719907988      1.64e-01  
 Alpha HF Exchange    Energy = -10.90291398760894
 Beta HF Exchange     Energy = -10.69189508534820
 DFT Correlation      Energy =  -3.14740333811355
 DFT Exchange         Energy = -85.90686634514607
 One-Electron (alpha) Energy = -2102.93980617851776
 One-Electron (beta)  Energy = -2062.13879098603957
 Total Coulomb        Energy = 1372.97820256850673
    2   -2692.1758671449      9.59e-03  
 Alpha HF Exchange    Energy = -10.80455605157457
 Beta HF Exchange     Energy = -10.60720548900233
 DFT Correlation      Energy =  -3.11203585134500
 DFT Exchange         Energy = -85.15631877362344
 One-Electron (alpha) Energy = -2095.23789578806918
 One-Electron (beta)  Energy = -2056.09359694540262
 Total Coulomb        Energy = 1358.28097359914636
    3   -2692.1570290925      4.53e-03  
 Alpha HF Exchange    Energy = -10.87799445520281
 Beta HF Exchange     Energy = -10.67018680595950
 DFT Correlation      Energy =  -3.13887292245616
 DFT Exchange         Energy = -85.70735078439304
 One-Electron (alpha) Energy = -2100.64960954005983
 One-Electron (beta)  Energy = -2059.72623460410387
 Total Coulomb        Energy = 1367.96252243383969
    4   -2692.2341204710      2.95e-03  
 Alpha HF Exchange    Energy = -10.85734382052252
 Beta HF Exchange     Energy = -10.65384809503527
 DFT Correlation      Energy =  -3.12909659667370
 DFT Exchange         Energy = -85.55037229780538
 One-Electron (alpha) Energy = -2099.47967182321645
 One-Electron (beta)  Energy = -2059.14274805291052
 Total Coulomb        Energy = 1365.94465286992590
    5   -2692.2948216089      4.62e-04  
 Alpha HF Exchange    Energy = -10.85393008290502
 Beta HF Exchange     Energy = -10.65083928557083
 DFT Correlation      Energy =  -3.12864359570110
 DFT Exchange         Energy = -85.52493436918883
 One-Electron (alpha) Energy = -2099.08993782060406
 One-Electron (beta)  Energy = -2058.70660793837760
 Total Coulomb        Energy = 1365.08566611078732
    6   -2692.2956207742      7.54e-05  
 Alpha HF Exchange    Energy = -10.85382833935077
 Beta HF Exchange     Energy = -10.65107217396520
 DFT Correlation      Energy =  -3.12840017250909
 DFT Exchange         Energy = -85.52460035021198
 One-Electron (alpha) Energy = -2099.08989375555939
 One-Electron (beta)  Energy = -2058.70758518009188
 Total Coulomb        Energy = 1365.08610040557483
    7   -2692.2956733587      2.86e-05  
 Alpha HF Exchange    Energy = -10.85400602619405
 Beta HF Exchange     Energy = -10.65122939586727
 DFT Correlation      Energy =  -3.12838447574408
 DFT Exchange         Energy = -85.52567239305334
 One-Electron (alpha) Energy = -2099.10956733802050
 One-Electron (beta)  Energy = -2058.71672560556954
 Total Coulomb        Energy = 1365.11629746747508
    8   -2692.2956815596      1.45e-05  
 Alpha HF Exchange    Energy = -10.85404164950407
 Beta HF Exchange     Energy = -10.65131652130944
 DFT Correlation      Energy =  -3.12837851385193
 DFT Exchange         Energy = -85.52603711232166
 One-Electron (alpha) Energy = -2099.11193814515082
 One-Electron (beta)  Energy = -2058.71585247814892
 Total Coulomb        Energy = 1365.11827433917529
    9   -2692.2956838737      2.87e-06  
 Alpha HF Exchange    Energy = -10.85403231184138
 Beta HF Exchange     Energy = -10.65131607927599
 DFT Correlation      Energy =  -3.12836674207791
 DFT Exchange         Energy = -85.52595365956201
 One-Electron (alpha) Energy = -2099.11096514649762
 One-Electron (beta)  Energy = -2058.71282257850771
 Total Coulomb        Energy = 1365.11416624032040
   10   -2692.2956840701      1.01e-06  
 Alpha HF Exchange    Energy = -10.85403392730834
 Beta HF Exchange     Energy = -10.65131762619230
 DFT Correlation      Energy =  -3.12836597028272
 DFT Exchange         Energy = -85.52596347122997
 One-Electron (alpha) Energy = -2099.11142646304870
 One-Electron (beta)  Energy = -2058.71301310214176
 Total Coulomb        Energy = 1365.11483022980474
   11   -2692.2956841230      7.09e-07  Convergence criterion met
 ---------------------------------------
 SCF time:   CPU 31.16s  wall 2.00s 
<S^2> =          2.004875756
 Alpha HF Exchange    Energy = -10.85403392730834
 Beta HF Exchange     Energy = -10.65131762619230
 DFT Correlation      Energy =  -3.12836597028272
 DFT Exchange         Energy = -85.52596347122997
 One-Electron (alpha) Energy = -2099.11142646304870
 One-Electron (beta)  Energy = -2058.71301310214176
 Total Coulomb        Energy = 1365.11483022980474
 Nuclear repulsion Energy = 210.57360620737802
 SCF   energy in the final basis set =    -2692.2956841230
 Total energy in the final basis set =    -2692.2956841230
 
 --------------------------------------------------------------
 
                    Orbital Energies (a.u.)
 --------------------------------------------------------------
 
 Alpha MOs
 -- Occupied --
******* -62.553 -56.377 -56.370 -56.369 -10.180 -10.174 -10.172
 -8.741  -6.576  -6.556  -6.555  -2.668  -2.663  -2.662  -2.647
 -2.647  -0.804  -0.771  -0.667  -0.577  -0.456  -0.422  -0.390
 -0.383  -0.363  -0.347  -0.329  -0.326  -0.318  -0.159
 -- Virtual --
  0.102   0.134   0.145   0.154   0.180   0.185   0.206   0.206
  0.229   0.272   0.298   0.327   0.343   0.486   0.488   0.515
  0.538   0.545   0.550   0.570   0.583   0.605   0.632   0.711
  0.753   0.800   0.816   0.860   0.874   0.888   0.917   0.927
  0.951   0.988   1.078   1.284   1.326   1.383   1.514   1.592
  1.618   1.687   1.727   1.839   1.868   1.928   2.017   2.046
  2.057   2.077   2.127   2.137   2.231   2.255   2.280   2.378
  2.428   2.494   2.554   2.556   2.696   2.734   2.749   2.826
  2.848   2.888   2.921   3.185   3.254   3.331   3.362   3.468
  3.503   3.543   4.265   4.455   4.615   4.661   4.662   4.690
  4.718   4.851   6.232  90.202
 
 Beta MOs
 -- Occupied --
******* -62.551 -56.371 -56.368 -56.368 -10.181 -10.171 -10.159
 -8.736  -6.565  -6.553  -6.553  -2.659  -2.656  -2.655  -2.645
 -2.645  -0.769  -0.749  -0.649  -0.565  -0.451  -0.414  -0.379
 -0.370  -0.338  -0.324  -0.305  -0.302
 -- Virtual --
 -0.231  -0.016   0.106   0.143   0.148   0.157   0.183   0.186
  0.213   0.218   0.234   0.280   0.327   0.333   0.355   0.493
  0.518   0.535   0.554   0.566   0.594   0.595   0.612   0.618
  0.642   0.727   0.759   0.810   0.828   0.863   0.877   0.891
  0.923   0.940   0.955   0.994   1.094   1.297   1.335   1.404
  1.521   1.611   1.635   1.687   1.747   1.849   1.876   1.959
  2.022   2.057   2.071   2.078   2.129   2.153   2.233   2.260
  2.282   2.386   2.431   2.498   2.571   2.572   2.700   2.740
  2.753   2.829   2.854   2.890   2.925   3.187   3.260   3.336
  3.365   3.471   3.512   3.544   4.279   4.472   4.619   4.676
  4.678   4.706   4.723   4.860   6.249  90.209
 --------------------------------------------------------------
 
          Ground-State Mulliken Net Atomic Charges

     Atom                 Charge (a.u.)    Spin (a.u.)
  --------------------------------------------------------
      1 Br                    0.061912       1.085162
      2 C                    -0.166450      -0.058409
      3 C                    -0.280688       0.953436
      4 C                    -0.306758       0.037034
      5 H                     0.095236       0.011224
      6 H                     0.095349       0.011145
      7 H                     0.100468      -0.026682
      8 H                     0.100981      -0.027704
      9 H                     0.096359       0.015942
     10 H                     0.101753      -0.000572
     11 H                     0.101839      -0.000576
  --------------------------------------------------------
  Sum of atomic charges =     0.000000
  Sum of spin   charges =     2.000000

 -----------------------------------------------------------------
                    Cartesian Multipole Moments
 -----------------------------------------------------------------
    Charge (ESU x 10^10)
                 0.0000
    Dipole Moment (Debye)
         X      -0.1498      Y      -0.0527      Z       0.0023
       Tot       0.1589
    Quadrupole Moments (Debye-Ang)
        XX     -41.2297     XY      -0.6631     YY     -39.6711
        XZ       0.0022     YZ       0.0844     ZZ     -36.3384
    Octopole Moments (Debye-Ang^2)
       XXX     -98.7882    XXY      -4.3943    XYY     -31.9022
       YYY     -11.7452    XXZ      -0.0876    XYZ       0.2589
       YYZ      -0.0698    XZZ     -24.6520    YZZ      -3.8505
       ZZZ      -0.4175
    Hexadecapole Moments (Debye-Ang^3)
      XXXX   -1129.6888   XXXY     -45.9752   XXYY    -202.4248
      XYYY     -42.5419   YYYY    -108.8439   XXXZ      -1.0378
      XXYZ       0.6646   XYYZ      -0.2572   YYYZ      -0.0993
      XXZZ    -175.2350   XYZZ     -10.8806   YYZZ     -25.6485
      XZZZ      -1.0312   YZZZ       0.0076   ZZZZ     -58.5601
 -----------------------------------------------------------------
 Calculating analytic gradient of the SCF energy
 Gradient of SCF Energy
            1           2           3           4           5           6
    1  -0.0327795  -0.0000642   0.0328011   0.0000246  -0.0000081  -0.0000032
    2  -0.0134102  -0.0001286   0.0135568  -0.0000209   0.0000421   0.0000402
    3   0.0000282   0.0000175  -0.0000702  -0.0000048  -0.0000169   0.0000171
            7           8           9          10          11
    1  -0.0000221   0.0000508  -0.0000045   0.0000030   0.0000021
    2  -0.0000240   0.0000060  -0.0000262  -0.0000156  -0.0000197
    3   0.0000268   0.0000094  -0.0000006  -0.0000034  -0.0000031
 Max gradient component =       3.280E-02
 RMS gradient           =       8.728E-03
 Gradient time:  CPU 10.36 s  wall 0.90 s
 Geometry Optimization Parameters
   NAtoms,    NIC,     NZ,  NCons,   NDum,   NFix, NCnnct, MaxDiis
       11      68       0       1       0       0       0       0


** CONSTRAINED OPTIMIZATION IN DELOCALIZED INTERNAL COORDINATES **
   Searching for a Minimum

   Optimization Cycle:   1

                       Coordinates (Angstroms)
     ATOM                X               Y               Z
      1  Br        2.6720690000    0.3229380000    0.0063800000
      2  C        -0.6860370000    0.4515040000    0.0090820000
      3  C         0.3587700000   -0.6250320000    0.0057410000
      4  C        -2.1324490000   -0.0877730000   -0.0072350000
      5  H        -0.5589460000    1.0898350000    0.8942390000
      6  H        -0.5459040000    1.1085820000   -0.8602260000
      7  H         0.4996280000   -1.2028780000   -0.9100000000
      8  H         0.4881270000   -1.2217790000    0.9103940000
      9  H        -2.8619710000    0.7308240000   -0.0027970000
     10  H        -2.3141690000   -0.6965350000   -0.8993070000
     11  H        -2.3263330000   -0.7170800000    0.8678350000
   Point Group: c1    Number of degrees of freedom:    27


   Energy is  -2692.295684123

              Constraints and their Current Values
                                        Value     Constraint
   Distance(Angs):        1   3             2.500000     2.400000

 Attempting to Generate Delocalized Internal Coordinates

   Using Lagrange Multiplier Algorithm


 28 Hessian modes will be used to form the next step
  Hessian Eigenvalues:
    -0.973947    0.045000    0.045000    0.067454    0.071020    0.077996
     0.082652    0.083006    0.083007    0.105053    0.133106    0.160000
     0.160000    0.160000    0.160000    0.160000    0.219375    0.220001
     0.281885    0.323577    0.338273    0.338292    0.340716    0.342215
     0.342236    0.345896    0.346470    1.026750

 Minimum Search - Taking P-RFO Step
 Searching for Lamda that Maximizes Along the Constraint modes Only
 Value Taken    Lamda =   0.02564068
 Searching for Lamda that Minimizes Along All other modes
 Value Taken    Lamda =  -0.01092422
 Step Taken.  Stepsize is  0.185252

                             Maximum     Tolerance    Cnvgd?
         Gradient            0.188973       0.000300      NO
         Displacement        0.185249       0.001200      NO
         Energy change     *********       0.000001      NO


 New Cartesian Coordinates Obtained by Inverse Iteration

 Displacement from previous Coordinates is:  0.174538
 ----------------------------------------------------------------
             Standard Nuclear Orientation (Angstroms)
    I     Atom           X                Y                Z
 ----------------------------------------------------------------
    1      Br      2.5884450580     0.2977399748     0.0059619128
    2      C      -0.6790770515     0.4548661663     0.0091526855
    3      C       0.3683605168    -0.6191501299     0.0058755546
    4      C      -2.1241752389    -0.0880214119    -0.0072390700
    5      H      -0.5536334998     1.0933868709     0.8943879212
    6      H      -0.5405418466     1.1121763899    -0.8602143295
    7      H       0.5108480340    -1.1964265934    -0.9099825473
    8      H       0.4991050675    -1.2155855493     0.9105061420
    9      H      -2.8557976299     0.7287048187    -0.0028618437
   10      H      -2.3042641103    -0.6972709881    -0.8993107250
   11      H      -2.3164842992    -0.7178135479     0.8678302993
 ----------------------------------------------------------------
 Nuclear Repulsion Energy =   214.6154775047 hartrees
 There are       31 alpha and       29 beta electrons

                       Distance Matrix (Angstroms)
             Br(  1)   C (  2)   C (  3)   C (  4)   H (  5)   H (  6)
   C (  2)  3.271299
   C (  3)  2.401971  1.500216
   C (  4)  4.728401  1.543795  2.548530
   H (  5)  3.360805  1.098675  2.138296  2.162235
   H (  6)  3.347257  1.098657  2.138623  2.162391  1.754752
   H (  7)  2.718069  2.233271  1.091946  2.997808  3.103566  2.537232
   H (  8)  2.733806  2.234046  1.091415  2.999209  2.537690  3.103996
   H (  9)  5.461281  2.193911  3.494565  1.096509  2.497601  2.498502
   H ( 10)  5.074265  2.189511  2.822833  1.095175  3.080344  2.527122
   H ( 11)  5.082568  2.189431  2.821541  1.095156  2.527607  3.080418
             H (  7)   H (  8)   H (  9)   H ( 10)
   H (  8)  1.820627
   H (  9)  3.982876  3.983702
   H ( 10)  2.859043  3.376828  1.772348
   H ( 11)  3.373944  2.859570  1.772394  1.767303
 
 Applying Cartesian multipole field
    Component          Value
    ---------          -----
     (2,0,0)        1.00000E-11
     (0,2,0)        2.00000E-10
     (0,0,2)       -3.00000E-10
 Nucleus-field energy     =     0.0000000148 hartrees
 Requested basis set is 6-31G(d,p)
 There are 41 shells and 115 basis functions
 A cutoff of  1.0D-14 yielded    799 shell pairs
 There are      6238 function pairs
 Smallest overlap matrix eigenvalue = 7.25E-04
 Guess from superposition of atomic densities
 Warning:  Energy on first SCF cycle will be non-variational
 SAD guess density has 59.972873 electrons

 -----------------------------------------------------------------------
  General SCF calculation program by
  Eric Jon Sundstrom, Paul Horn, Yuezhi Mao, Dmitri Zuev, Alec White,
  David Stuck, Shaama M.S., Shane Yost, Joonho Lee, David Small,
  Daniel Levine, Susi Lehtola, Hugh Burton, Evgeny Epifanovsky
 -----------------------------------------------------------------------
 Exchange:     0.2000 Hartree-Fock + 0.0800 Slater + 0.7200 B88
 Correlation:  0.1900 VWN1RPA + 0.8100 LYP
 Using SG-1 standard quadrature grid
 using 12 threads for integral computing
 -------------------------------------------------------
 OpenMP Integral computing Module                
 Release: version 1.0, May 2013, Q-Chem Inc. Pittsburgh 
 -------------------------------------------------------
 -------------------------------------------------------
 OpenMP BLAS3 based DFT computing Module                
 Release: version 1.0, May 2013, Q-Chem Inc. Pittsburgh 
 -------------------------------------------------------
 A unrestricted SCF calculation will be
 performed using DIIS
 SCF converges when DIIS error is below 1.0e-06
 Alpha HF Exchange    Energy = -10.72312418494746
 Beta HF Exchange     Energy = -10.72312418494746
 DFT Correlation      Energy =  -3.11553835616619
 DFT Exchange         Energy = -84.99273805687238
 One-Electron (alpha) Energy = -2081.23076114073092
 One-Electron (beta)  Energy = -2081.23076114073092
 Total Coulomb        Energy = 1361.69638254203460
 ---------------------------------------
  Cycle       Energy         DIIS error
 ---------------------------------------
    1   -2695.7041870029      1.64e-01  
 Alpha HF Exchange    Energy = -10.90432177178108
 Beta HF Exchange     Energy = -10.69151778455574
 DFT Correlation      Energy =  -3.14921335964444
 DFT Exchange         Energy = -85.91356527801437
 One-Electron (alpha) Energy = -2107.23961482541608
 One-Electron (beta)  Energy = -2065.94505194974272
 Total Coulomb        Energy = 1377.06181506874600
    2   -2692.1659923810      9.61e-03  
 Alpha HF Exchange    Energy = -10.80479837413259
 Beta HF Exchange     Energy = -10.60583104533043
 DFT Correlation      Energy =  -3.11364904644995
 DFT Exchange         Energy = -85.15632648608805
 One-Electron (alpha) Energy = -2099.39023760046985
 One-Electron (beta)  Energy = -2060.05610600435602
 Total Coulomb        Energy = 1362.37124079934983
    3   -2692.1402302380      4.65e-03  
 Alpha HF Exchange    Energy = -10.87877854547892
 Beta HF Exchange     Energy = -10.66930511493702
 DFT Correlation      Energy =  -3.14070984852394
 DFT Exchange         Energy = -85.70952277016755
 One-Electron (alpha) Energy = -2104.85375690832325
 One-Electron (beta)  Energy = -2063.34760076248904
 Total Coulomb        Energy = 1371.76421483731406
    4   -2692.2199815932      3.08e-03  
 Alpha HF Exchange    Energy = -10.85887738875698
 Beta HF Exchange     Energy = -10.65366607036504
 DFT Correlation      Energy =  -3.13105459085430
 DFT Exchange         Energy = -85.55885534383681
 One-Electron (alpha) Energy = -2103.78637985163186
 One-Electron (beta)  Energy = -2063.03745023581405
 Total Coulomb        Energy = 1370.12379638421339
    5   -2692.2870095776      5.36e-04  
 Alpha HF Exchange    Energy = -10.85496027279954
 Beta HF Exchange     Energy = -10.65020899925840
 DFT Correlation      Energy =  -3.13043418580308
 DFT Exchange         Energy = -85.52912686496830
 One-Electron (alpha) Energy = -2103.33962051328035
 One-Electron (beta)  Energy = -2062.49902780186949
 Total Coulomb        Energy = 1369.09974651255061
    6   -2692.2881546060      9.14e-05  
 Alpha HF Exchange    Energy = -10.85483176409056
 Beta HF Exchange     Energy = -10.65051836775227
 DFT Correlation      Energy =  -3.13018656657159
 DFT Exchange         Energy = -85.52889452536049
 One-Electron (alpha) Energy = -2103.33931534979001
 One-Electron (beta)  Energy = -2062.50396670349528
 Total Coulomb        Energy = 1369.10400506685846
    7   -2692.2882306908      3.92e-05  
 Alpha HF Exchange    Energy = -10.85504166191284
 Beta HF Exchange     Energy = -10.65069835686082
 DFT Correlation      Energy =  -3.13015639216852
 DFT Exchange         Energy = -85.53009698396957
 One-Electron (alpha) Energy = -2103.36366465652054
 One-Electron (beta)  Energy = -2062.51358161274766
 Total Coulomb        Energy = 1369.13951714646760
    8   -2692.2882449983      1.58e-05  
 Alpha HF Exchange    Energy = -10.85509259287135
 Beta HF Exchange     Energy = -10.65082107204374
 DFT Correlation      Energy =  -3.13014797543412
 DFT Exchange         Energy = -85.53060375834104
 One-Electron (alpha) Energy = -2103.36767261055138
 One-Electron (beta)  Energy = -2062.51222619543341
 Total Coulomb        Energy = 1369.14283836373511
    9   -2692.2882483215      3.08e-06  
 Alpha HF Exchange    Energy = -10.85508187226043
 Beta HF Exchange     Energy = -10.65082600874150
 DFT Correlation      Energy =  -3.13013365284746
 DFT Exchange         Energy = -85.53051858439690
 One-Electron (alpha) Energy = -2103.36686186096495
 One-Electron (beta)  Energy = -2062.50864620667153
 Total Coulomb        Energy = 1369.13834209519450
   10   -2692.2882485713      1.06e-06  
 Alpha HF Exchange    Energy = -10.85508373797231
 Beta HF Exchange     Energy = -10.65082752080144
 DFT Correlation      Energy =  -3.13013265504488
 DFT Exchange         Energy = -85.53052825009007
 One-Electron (alpha) Energy = -2103.36738773537718
 One-Electron (beta)  Energy = -2062.50881824940825
 Total Coulomb        Energy = 1369.13905199933993
   11   -2692.2882486299      6.96e-07  Convergence criterion met
 ---------------------------------------
 SCF time:   CPU 30.69s  wall 2.00s 
<S^2> =          2.004823656
 Alpha HF Exchange    Energy = -10.85508373797231
 Beta HF Exchange     Energy = -10.65082752080144
 DFT Correlation      Energy =  -3.13013265504488
 DFT Exchange         Energy = -85.53052825009007
 One-Electron (alpha) Energy = -2103.36738773537718
 One-Electron (beta)  Energy = -2062.50881824940825
 Total Coulomb        Energy = 1369.13905199933993
 Nuclear repulsion Energy = 214.61547751943507
 SCF   energy in the final basis set =    -2692.2882486299
 Total energy in the final basis set =    -2692.2882486299
 
 --------------------------------------------------------------
 
                    Orbital Energies (a.u.)
 --------------------------------------------------------------
 
 Alpha MOs
 -- Occupied --
******* -62.553 -56.377 -56.371 -56.370 -10.180 -10.172 -10.171
 -8.741  -6.577  -6.557  -6.555  -2.668  -2.663  -2.662  -2.648
 -2.648  -0.808  -0.769  -0.667  -0.577  -0.457  -0.423  -0.393
 -0.386  -0.361  -0.348  -0.331  -0.326  -0.318  -0.148
 -- Virtual --
  0.101   0.132   0.144   0.155   0.180   0.185   0.205   0.209
  0.229   0.269   0.300   0.329   0.338   0.481   0.482   0.512
  0.537   0.544   0.551   0.572   0.603   0.610   0.635   0.712
  0.764   0.806   0.818   0.861   0.876   0.888   0.916   0.930
  0.951   0.993   1.090   1.291   1.335   1.387   1.521   1.593
  1.617   1.687   1.729   1.842   1.870   1.934   2.018   2.048
  2.057   2.077   2.129   2.137   2.230   2.259   2.280   2.378
  2.430   2.495   2.553   2.564   2.697   2.734   2.749   2.827
  2.849   2.888   2.921   3.186   3.253   3.331   3.362   3.469
  3.502   3.544   4.269   4.461   4.622   4.662   4.664   4.698
  4.726   4.864   6.236  90.218
 
 Beta MOs
 -- Occupied --
******* -62.551 -56.371 -56.369 -56.368 -10.181 -10.170 -10.158
 -8.736  -6.566  -6.554  -6.553  -2.659  -2.656  -2.656  -2.646
 -2.645  -0.771  -0.749  -0.649  -0.566  -0.451  -0.415  -0.380
 -0.371  -0.339  -0.325  -0.306  -0.302
 -- Virtual --
 -0.230  -0.010   0.106   0.140   0.147   0.157   0.184   0.187
  0.212   0.221   0.234   0.277   0.328   0.335   0.351   0.488
  0.513   0.533   0.553   0.565   0.593   0.595   0.616   0.639
  0.645   0.731   0.771   0.817   0.830   0.864   0.879   0.892
  0.922   0.943   0.955   1.000   1.104   1.303   1.345   1.408
  1.528   1.613   1.634   1.687   1.750   1.851   1.878   1.963
  2.024   2.058   2.073   2.078   2.131   2.153   2.233   2.265
  2.283   2.386   2.433   2.499   2.570   2.579   2.701   2.740
  2.753   2.829   2.855   2.890   2.925   3.187   3.259   3.336
  3.365   3.471   3.512   3.545   4.283   4.478   4.626   4.677
  4.680   4.714   4.731   4.873   6.254  90.225
 --------------------------------------------------------------
 
          Ground-State Mulliken Net Atomic Charges

     Atom                 Charge (a.u.)    Spin (a.u.)
  --------------------------------------------------------
      1 Br                    0.075112       1.103947
      2 C                    -0.161897      -0.056182
      3 C                    -0.302258       0.924241
      4 C                    -0.305739       0.034022
      5 H                     0.094489       0.011716
      6 H                     0.094568       0.011537
      7 H                     0.103836      -0.021492
      8 H                     0.104278      -0.023093
      9 H                     0.095060       0.016224
     10 H                     0.101222      -0.000456
     11 H                     0.101330      -0.000464
  --------------------------------------------------------
  Sum of atomic charges =    -0.000000
  Sum of spin   charges =     2.000000

 -----------------------------------------------------------------
                    Cartesian Multipole Moments
 -----------------------------------------------------------------
    Charge (ESU x 10^10)
                 0.0000
    Dipole Moment (Debye)
         X      -0.1321      Y      -0.0722      Z       0.0030
       Tot       0.1505
    Quadrupole Moments (Debye-Ang)
        XX     -41.4745     XY      -0.7479     YY     -39.6995
        XZ       0.0040     YZ       0.0932     ZZ     -36.3489
    Octopole Moments (Debye-Ang^2)
       XXX     -95.1391    XXY      -4.2033    XYY     -30.4582
       YYY     -10.5154    XXZ      -0.0771    XYZ       0.2708
       YYZ      -0.0622    XZZ     -23.5216    YZZ      -3.5444
       ZZZ      -0.3977
    Hexadecapole Moments (Debye-Ang^3)
      XXXX   -1081.7269   XXXY     -41.1209   XXYY    -193.7209
      XYYY     -37.4108   YYYY    -107.0466   XXXZ      -0.9493
      XXYZ       0.6835   XYYZ      -0.2286   YYYZ      -0.0745
      XXZZ    -168.2190   XYZZ      -9.4666   YYZZ     -25.3884
      XZZZ      -0.9500   YZZZ       0.0297   ZZZZ     -58.6229
 -----------------------------------------------------------------
 Calculating analytic gradient of the SCF energy
 Gradient of SCF Energy
            1           2           3           4           5           6
    1  -0.0411796   0.0014574   0.0381717  -0.0000426  -0.0001229  -0.0001138
    2  -0.0172476   0.0011579   0.0143855  -0.0005138  -0.0000635  -0.0000854
    3   0.0000773   0.0001017  -0.0003499  -0.0000160  -0.0000719   0.0000602
            7           8           9          10          11
    1   0.0007627   0.0009136   0.0002115  -0.0000282  -0.0000298
    2   0.0012151   0.0012429  -0.0000462  -0.0000210  -0.0000240
    3   0.0000421   0.0001615   0.0000012  -0.0000096   0.0000035
 Max gradient component =       4.118E-02
 RMS gradient           =       1.054E-02
 Gradient time:  CPU 10.67 s  wall 0.94 s
 Geometry Optimization Parameters
   NAtoms,    NIC,     NZ,  NCons,   NDum,   NFix, NCnnct, MaxDiis
       11      68       0       1       0       0       0       0

 Cartesian Hessian Update
 Hessian Updated using BFGS Update


** CONSTRAINED OPTIMIZATION IN DELOCALIZED INTERNAL COORDINATES **
   Searching for a Minimum

   Optimization Cycle:   2

                       Coordinates (Angstroms)
     ATOM                X               Y               Z
      1  Br        2.5884450580    0.2977399748    0.0059619128
      2  C        -0.6790770515    0.4548661663    0.0091526855
      3  C         0.3683605168   -0.6191501299    0.0058755546
      4  C        -2.1241752389   -0.0880214119   -0.0072390700
      5  H        -0.5536334998    1.0933868709    0.8943879212
      6  H        -0.5405418466    1.1121763899   -0.8602143295
      7  H         0.5108480340   -1.1964265934   -0.9099825473
      8  H         0.4991050675   -1.2155855493    0.9105061420
      9  H        -2.8557976299    0.7287048187   -0.0028618437
     10  H        -2.3042641103   -0.6972709881   -0.8993107250
     11  H        -2.3164842992   -0.7178135479    0.8678302993
   Point Group: c1    Number of degrees of freedom:    27


   Energy is  -2692.288248630

              Constraints and their Current Values
                                        Value     Constraint
   Distance(Angs):        1   3             2.401971     2.400000
 Hessian Updated using BFGS Update

   Using Lagrange Multiplier Algorithm


 25 Hessian modes will be used to form the next step
  Hessian Eigenvalues:
    -0.975529    0.045000    0.045000    0.067454    0.072748    0.078065
     0.082652    0.083006    0.083009    0.105072    0.133106    0.159999
     0.160037    0.219872    0.220772    0.281896    0.323811    0.338278
     0.338303    0.340734    0.342216    0.342236    0.346048    0.346637
     1.025283

 Minimum Search - Taking P-RFO Step
 Searching for Lamda that Maximizes Along the Constraint modes Only
 Value Taken    Lamda =   0.00001394
 Searching for Lamda that Minimizes Along All other modes
 Value Taken    Lamda =  -0.00005889
 Step Taken.  Stepsize is  0.025525

                             Maximum     Tolerance    Cnvgd?
         Gradient            0.003724       0.000300      NO
         Displacement        0.018076       0.001200      NO
         Energy change      0.007435       0.000001      NO


 New Cartesian Coordinates Obtained by Inverse Iteration

 Displacement from previous Coordinates is:  0.019798
 ----------------------------------------------------------------
             Standard Nuclear Orientation (Angstroms)
    I     Atom           X                Y                Z
 ----------------------------------------------------------------
    1      Br      2.5887248889     0.3034552605     0.0051037571
    2      C      -0.6791472620     0.4529567418     0.0092909804
    3      C       0.3727423277    -0.6181845369     0.0063947652
    4      C      -2.1251393388    -0.0869139517    -0.0073083902
    5      H      -0.5535325769     1.0916266601     0.8946027839
    6      H      -0.5401327251     1.1104430298    -0.8600870614
    7      H       0.5110161493    -1.1997145669    -0.9084614889
    8      H       0.4987275675    -1.2194480980     0.9093015017
    9      H      -2.8562753849     0.7306205720    -0.0031043341
   10      H      -2.3058252388    -0.6958936290    -0.8993939568
   11      H      -2.3183734067    -0.7163414817     0.8677674430
 ----------------------------------------------------------------
 Nuclear Repulsion Energy =   214.5871986102 hartrees
 There are       31 alpha and       29 beta electrons

                       Distance Matrix (Angstroms)
             Br(  1)   C (  2)   C (  3)   C (  4)   H (  5)   H (  6)
   C (  2)  3.271293
   C (  3)  2.400000  1.501274
   C (  4)  4.730017  1.543577  2.553791
   H (  5)  3.359495  1.098843  2.137838  2.161562
   H (  6)  3.345076  1.098832  2.138290  2.161745  1.754842
   H (  7)  2.722314  2.233849  1.092821  2.999953  3.103957  2.538520
   H (  8)  2.739507  2.234803  1.092076  3.001247  2.539396  3.104571
   H (  9)  5.461736  2.194798  3.499417  1.096786  2.497765  2.498640
   H ( 10)  5.076754  2.188983  2.828642  1.095135  3.079640  2.526275
   H ( 11)  5.085645  2.188904  2.827313  1.095115  2.526684  3.079734
             H (  7)   H (  8)   H (  9)   H ( 10)
   H (  8)  1.817912
   H (  9)  3.985539  3.986389
   H ( 10)  2.861558  3.378018  1.772364
   H ( 11)  3.375512  2.861975  1.772415  1.767324
 
 Applying Cartesian multipole field
    Component          Value
    ---------          -----
     (2,0,0)        1.00000E-11
     (0,2,0)        2.00000E-10
     (0,0,2)       -3.00000E-10
 Nucleus-field energy     =     0.0000000149 hartrees
 Requested basis set is 6-31G(d,p)
 There are 41 shells and 115 basis functions
 A cutoff of  1.0D-14 yielded    799 shell pairs
 There are      6238 function pairs
 Smallest overlap matrix eigenvalue = 7.25E-04
 Guess from superposition of atomic densities
 Warning:  Energy on first SCF cycle will be non-variational
 SAD guess density has 59.972873 electrons

 -----------------------------------------------------------------------
  General SCF calculation program by
  Eric Jon Sundstrom, Paul Horn, Yuezhi Mao, Dmitri Zuev, Alec White,
  David Stuck, Shaama M.S., Shane Yost, Joonho Lee, David Small,
  Daniel Levine, Susi Lehtola, Hugh Burton, Evgeny Epifanovsky
 -----------------------------------------------------------------------
 Exchange:     0.2000 Hartree-Fock + 0.0800 Slater + 0.7200 B88
 Correlation:  0.1900 VWN1RPA + 0.8100 LYP
 Using SG-1 standard quadrature grid
 using 12 threads for integral computing
 -------------------------------------------------------
 OpenMP Integral computing Module                
 Release: version 1.0, May 2013, Q-Chem Inc. Pittsburgh 
 -------------------------------------------------------
 -------------------------------------------------------
 OpenMP BLAS3 based DFT computing Module                
 Release: version 1.0, May 2013, Q-Chem Inc. Pittsburgh 
 -------------------------------------------------------
 A unrestricted SCF calculation will be
 performed using DIIS
 SCF converges when DIIS error is below 1.0e-06
 Alpha HF Exchange    Energy = -10.72293406703253
 Beta HF Exchange     Energy = -10.72293406703253
 DFT Correlation      Energy =  -3.11548957640985
 DFT Exchange         Energy = -84.99234378746890
 One-Electron (alpha) Energy = -2081.20384066779616
 One-Electron (beta)  Energy = -2081.20384066779616
 Total Coulomb        Energy = 1361.67140332394706
 ---------------------------------------
  Cycle       Energy         DIIS error
 ---------------------------------------
    1   -2695.7027808845      1.64e-01  
 Alpha HF Exchange    Energy = -10.90419222089918
 Beta HF Exchange     Energy = -10.69128204650241
 DFT Correlation      Energy =  -3.14916464143812
 DFT Exchange         Energy = -85.91243948644684
 One-Electron (alpha) Energy = -2107.21587121970697
 One-Electron (beta)  Energy = -2065.90944081635962
 Total Coulomb        Energy = 1377.02918621115032
    2   -2692.1660055951      9.61e-03  
 Alpha HF Exchange    Energy = -10.80475503061234
 Beta HF Exchange     Energy = -10.60561829606861
 DFT Correlation      Energy =  -3.11362070126802
 DFT Exchange         Energy = -85.15568398180810
 One-Electron (alpha) Energy = -2099.36875849532635
 One-Electron (beta)  Energy = -2060.03299356812749
 Total Coulomb        Energy = 1362.35412284484414
    3   -2692.1401086033      4.65e-03  
 Alpha HF Exchange    Energy = -10.87867343641612
 Beta HF Exchange     Energy = -10.66910842835701
 DFT Correlation      Energy =  -3.14066763330827
 DFT Exchange         Energy = -85.70856666937095
 One-Electron (alpha) Energy = -2104.82941472964421
 One-Electron (beta)  Energy = -2063.30030097528015
 Total Coulomb        Energy = 1371.71998048034880
    4   -2692.2195527670      3.08e-03  
 Alpha HF Exchange    Energy = -10.85882061962869
 Beta HF Exchange     Energy = -10.65348949804564
 DFT Correlation      Energy =  -3.13101777083074
 DFT Exchange         Energy = -85.55819969477871
 One-Electron (alpha) Energy = -2103.76769150012296
 One-Electron (beta)  Energy = -2063.00497911620914
 Total Coulomb        Energy = 1370.10013611734871
    5   -2692.2868634572      5.40e-04  
 Alpha HF Exchange    Energy = -10.85488137581024
 Beta HF Exchange     Energy = -10.65001930927293
 DFT Correlation      Energy =  -3.13038889767734
 DFT Exchange         Energy = -85.52828976971456
 One-Electron (alpha) Energy = -2103.31877987032522
 One-Electron (beta)  Energy = -2062.46072753699582
 Total Coulomb        Energy = 1369.06785632748733
    6   -2692.2880318072      9.24e-05  
 Alpha HF Exchange    Energy = -10.85474963371364
 Beta HF Exchange     Energy = -10.65033287628475
 DFT Correlation      Energy =  -3.13014010749181
 DFT Exchange         Energy = -85.52805073113913
 One-Electron (alpha) Energy = -2103.31839356648197
 One-Electron (beta)  Energy = -2062.46564638959535
 Total Coulomb        Energy = 1369.07200470431940
    7   -2692.2881099753      3.98e-05  
 Alpha HF Exchange    Energy = -10.85496129754365
 Beta HF Exchange     Energy = -10.65051572746605
 DFT Correlation      Energy =  -3.13010872704422
 DFT Exchange         Energy = -85.52926361492541
 One-Electron (alpha) Energy = -2103.34306910619625
 One-Electron (beta)  Energy = -2062.47524279531353
 Total Coulomb        Energy = 1369.10783783330862
    8   -2692.2881248101      1.59e-05  
 Alpha HF Exchange    Energy = -10.85501311712290
 Beta HF Exchange     Energy = -10.65064150822982
 DFT Correlation      Energy =  -3.13009983269836
 DFT Exchange         Energy = -85.52977997033686
 One-Electron (alpha) Energy = -2103.34721036767496
 One-Electron (beta)  Energy = -2062.47378952128929
 Total Coulomb        Energy = 1369.11120745636777
    9   -2692.2881282359      3.10e-06  
 Alpha HF Exchange    Energy = -10.85500230937343
 Beta HF Exchange     Energy = -10.65064691297429
 DFT Correlation      Energy =  -3.13008533190020
 DFT Exchange         Energy = -85.52969478284830
 One-Electron (alpha) Energy = -2103.34642218518002
 One-Electron (beta)  Energy = -2062.47015578999208
 Total Coulomb        Energy = 1369.10668019039485
   10   -2692.2881284968      1.10e-06  
 Alpha HF Exchange    Energy = -10.85500417153790
 Beta HF Exchange     Energy = -10.65064853454820
 DFT Correlation      Energy =  -3.13008430859935
 DFT Exchange         Energy = -85.52970468763394
 One-Electron (alpha) Energy = -2103.34695507217839
 One-Electron (beta)  Energy = -2062.47032878477239
 Total Coulomb        Energy = 1369.10739837434812
   11   -2692.2881285599      7.25e-07  Convergence criterion met
 ---------------------------------------
 SCF time:   CPU 30.85s  wall 2.00s 
<S^2> =          2.004803536
 Alpha HF Exchange    Energy = -10.85500417153790
 Beta HF Exchange     Energy = -10.65064853454820
 DFT Correlation      Energy =  -3.13008430859935
 DFT Exchange         Energy = -85.52970468763394
 One-Electron (alpha) Energy = -2103.34695507217839
 One-Electron (beta)  Energy = -2062.47032878477239
 Total Coulomb        Energy = 1369.10739837434812
 Nuclear repulsion Energy = 214.58719862506703
 SCF   energy in the final basis set =    -2692.2881285599
 Total energy in the final basis set =    -2692.2881285599
 
 --------------------------------------------------------------
 
                    Orbital Energies (a.u.)
 --------------------------------------------------------------
 
 Alpha MOs
 -- Occupied --
******* -62.553 -56.377 -56.371 -56.370 -10.180 -10.172 -10.171
 -8.741  -6.577  -6.557  -6.555  -2.668  -2.664  -2.662  -2.648
 -2.648  -0.808  -0.769  -0.667  -0.577  -0.457  -0.422  -0.392
 -0.386  -0.361  -0.348  -0.331  -0.326  -0.318  -0.149
 -- Virtual --
  0.101   0.132   0.144   0.155   0.180   0.185   0.204   0.209
  0.228   0.269   0.299   0.329   0.338   0.481   0.482   0.513
  0.537   0.544   0.551   0.572   0.604   0.611   0.635   0.713
  0.764   0.806   0.818   0.860   0.876   0.888   0.916   0.929
  0.951   0.991   1.089   1.292   1.335   1.385   1.521   1.592
  1.620   1.687   1.729   1.842   1.869   1.931   2.021   2.048
  2.057   2.077   2.129   2.136   2.230   2.259   2.280   2.374
  2.431   2.494   2.551   2.565   2.697   2.734   2.749   2.826
  2.850   2.889   2.921   3.185   3.251   3.329   3.361   3.468
  3.502   3.544   4.268   4.461   4.621   4.662   4.663   4.698
  4.726   4.863   6.235  90.217
 
 Beta MOs
 -- Occupied --
******* -62.552 -56.372 -56.369 -56.369 -10.181 -10.170 -10.158
 -8.736  -6.566  -6.554  -6.553  -2.660  -2.657  -2.656  -2.646
 -2.646  -0.771  -0.749  -0.649  -0.566  -0.451  -0.414  -0.380
 -0.371  -0.339  -0.325  -0.307  -0.302
 -- Virtual --
 -0.230  -0.010   0.106   0.140   0.148   0.157   0.183   0.186
  0.211   0.221   0.234   0.277   0.328   0.335   0.350   0.488
  0.512   0.534   0.553   0.565   0.593   0.595   0.616   0.640
  0.645   0.732   0.771   0.817   0.830   0.864   0.879   0.892
  0.921   0.942   0.955   0.998   1.103   1.304   1.344   1.406
  1.529   1.611   1.637   1.688   1.749   1.851   1.877   1.960
  2.027   2.058   2.073   2.078   2.131   2.152   2.232   2.265
  2.282   2.383   2.433   2.499   2.568   2.580   2.701   2.740
  2.752   2.828   2.857   2.890   2.924   3.187   3.258   3.334
  3.364   3.470   3.512   3.545   4.282   4.478   4.626   4.677
  4.680   4.714   4.731   4.872   6.253  90.224
 --------------------------------------------------------------
 
          Ground-State Mulliken Net Atomic Charges

     Atom                 Charge (a.u.)    Spin (a.u.)
  --------------------------------------------------------
      1 Br                    0.076117       1.105002
      2 C                    -0.161884      -0.055656
      3 C                    -0.302829       0.921962
      4 C                    -0.305943       0.033904
      5 H                     0.094456       0.011659
      6 H                     0.094547       0.011435
      7 H                     0.103602      -0.020788
      8 H                     0.104094      -0.022561
      9 H                     0.095292       0.015962
     10 H                     0.101216      -0.000455
     11 H                     0.101332      -0.000465
  --------------------------------------------------------
  Sum of atomic charges =     0.000000
  Sum of spin   charges =     2.000000

 -----------------------------------------------------------------
                    Cartesian Multipole Moments
 -----------------------------------------------------------------
    Charge (ESU x 10^10)
                -0.0000
    Dipole Moment (Debye)
         X      -0.1337      Y      -0.0738      Z       0.0031
       Tot       0.1527
    Quadrupole Moments (Debye-Ang)
        XX     -41.4473     XY      -0.7442     YY     -39.6945
        XZ       0.0057     YZ       0.1052     ZZ     -36.3653
    Octopole Moments (Debye-Ang^2)
       XXX     -95.1693    XXY      -4.2859    XYY     -30.4788
       YYY     -10.8511    XXZ      -0.0569    XYZ       0.3033
       YYZ      -0.0396    XZZ     -23.5534    YZZ      -3.6257
       ZZZ      -0.3642
    Hexadecapole Moments (Debye-Ang^3)
      XXXX   -1081.7995   XXXY     -41.9252   XXYY    -193.8468
      XYYY     -38.1690   YYYY    -107.3595   XXXZ      -0.8036
      XXYZ       0.7776   XYYZ      -0.1634   YYYZ      -0.0397
      XXZZ    -168.3014   XYZZ      -9.6713   YYZZ     -25.4438
      XZZZ      -0.8433   YZZZ       0.0596   ZZZZ     -58.6472
 -----------------------------------------------------------------
 Calculating analytic gradient of the SCF energy
 Gradient of SCF Energy
            1           2           3           4           5           6
    1  -0.0410216   0.0008987   0.0390468  -0.0001775  -0.0000969  -0.0000978
    2  -0.0172577   0.0006292   0.0153054  -0.0001237  -0.0000824  -0.0000904
    3   0.0001136   0.0000791  -0.0002764  -0.0000117   0.0000196  -0.0000389
            7           8           9          10          11
    1   0.0006422   0.0008093  -0.0000769   0.0000374   0.0000363
    2   0.0007365   0.0008040   0.0000122   0.0000350   0.0000319
    3  -0.0000626   0.0001815  -0.0000006   0.0000065  -0.0000101
 Max gradient component =       4.102E-02
 RMS gradient           =       1.065E-02
 Gradient time:  CPU 10.44 s  wall 0.90 s
 Geometry Optimization Parameters
   NAtoms,    NIC,     NZ,  NCons,   NDum,   NFix, NCnnct, MaxDiis
       11      68       0       1       0       0       0       0

 Cartesian Hessian Update
 Hessian Updated using BFGS Update


** CONSTRAINED OPTIMIZATION IN DELOCALIZED INTERNAL COORDINATES **
   Searching for a Minimum

   Optimization Cycle:   3

                       Coordinates (Angstroms)
     ATOM                X               Y               Z
      1  Br        2.5887248889    0.3034552605    0.0051037571
      2  C        -0.6791472620    0.4529567418    0.0092909804
      3  C         0.3727423277   -0.6181845369    0.0063947652
      4  C        -2.1251393388   -0.0869139517   -0.0073083902
      5  H        -0.5535325769    1.0916266601    0.8946027839
      6  H        -0.5401327251    1.1104430298   -0.8600870614
      7  H         0.5110161493   -1.1997145669   -0.9084614889
      8  H         0.4987275675   -1.2194480980    0.9093015017
      9  H        -2.8562753849    0.7306205720   -0.0031043341
     10  H        -2.3058252388   -0.6958936290   -0.8993939568
     11  H        -2.3183734067   -0.7163414817    0.8677674430
   Point Group: c1    Number of degrees of freedom:    27


   Energy is  -2692.288128560

              Constraints and their Current Values
                                        Value     Constraint
   Distance(Angs):        1   3             2.400000     2.400000
 Hessian Updated using BFGS Update

 24 Hessian modes will be used to form the next step
  Hessian Eigenvalues:
     0.022867    0.045000    0.045002    0.067455    0.077974    0.082652
     0.082920    0.083339    0.104833    0.133109    0.159928    0.160000
     0.164475    0.216135    0.249960    0.282633    0.332014    0.338261
     0.338345    0.341929    0.342225    0.342401    0.346276    0.353988

 Minimum Search - Taking Simple RFO Step
 Searching for Lamda that Minimizes Along All modes
 Value Taken    Lamda =  -0.00008788
 Step Taken.  Stepsize is  0.061388

                             Maximum     Tolerance    Cnvgd?
         Gradient           0.000925      0.000300      NO
         Displacement       0.045691      0.001200      NO
         Energy change      0.000120      0.000001      NO


 New Cartesian Coordinates Obtained by Inverse Iteration

 Displacement from previous Coordinates is:  0.039792
 ----------------------------------------------------------------
             Standard Nuclear Orientation (Angstroms)
    I     Atom           X                Y                Z
 ----------------------------------------------------------------
    1      Br      2.5929685975     0.3132409781     0.0018675021
    2      C      -0.6788826048     0.4519474642     0.0099006188
    3      C       0.3793792080    -0.6141128982     0.0079582666
    4      C      -2.1239554988    -0.0872533870    -0.0075651361
    5      H      -0.5534227538     1.0914983212     0.8949140134
    6      H      -0.5388059119     1.1103881045    -0.8588703444
    7      H       0.5039269060    -1.2051299997    -0.9045157934
    8      H       0.4895386457    -1.2267610395     0.9066258898
    9      H      -2.8536238172     0.7314546074    -0.0039232652
   10      H      -2.3053064561    -0.6962012545    -0.8996566513
   11      H      -2.3190313147    -0.7164648965     0.8673708998
 ----------------------------------------------------------------
 Nuclear Repulsion Energy =   214.4222974755 hartrees
 There are       31 alpha and       29 beta electrons

                       Distance Matrix (Angstroms)
             Br(  1)   C (  2)   C (  3)   C (  4)   H (  5)   H (  6)
   C (  2)  3.274800
   C (  3)  2.400000  1.502134
   C (  4)  4.733905  1.542491  2.558223
   H (  5)  3.361993  1.099097  2.136801  2.161133
   H (  6)  3.344297  1.099058  2.137372  2.161427  1.753947
   H (  7)  2.736983  2.231838  1.094268  2.993315  3.103295  2.539882
   H (  8)  2.759459  2.233246  1.093195  2.994090  2.542092  3.104309
   H (  9)  5.462628  2.192673  3.501857  1.096682  2.495689  2.496579
   H ( 10)  5.081812  2.188788  2.835144  1.095232  3.079846  2.527044
   H ( 11)  5.092851  2.188728  2.833811  1.095205  2.527224  3.080017
             H (  7)   H (  8)   H (  9)   H ( 10)
   H (  8)  1.811328
   H (  9)  3.979268  3.980005
   H ( 10)  2.854965  3.369764  1.772341
   H ( 11)  3.368600  2.854822  1.772403  1.767197
 
 Applying Cartesian multipole field
    Component          Value
    ---------          -----
     (2,0,0)        1.00000E-11
     (0,2,0)        2.00000E-10
     (0,0,2)       -3.00000E-10
 Nucleus-field energy     =     0.0000000150 hartrees
 Requested basis set is 6-31G(d,p)
 There are 41 shells and 115 basis functions
 A cutoff of  1.0D-14 yielded    799 shell pairs
 There are      6238 function pairs
 Smallest overlap matrix eigenvalue = 7.25E-04
 Guess from superposition of atomic densities
 Warning:  Energy on first SCF cycle will be non-variational
 SAD guess density has 59.972873 electrons

 -----------------------------------------------------------------------
  General SCF calculation program by
  Eric Jon Sundstrom, Paul Horn, Yuezhi Mao, Dmitri Zuev, Alec White,
  David Stuck, Shaama M.S., Shane Yost, Joonho Lee, David Small,
  Daniel Levine, Susi Lehtola, Hugh Burton, Evgeny Epifanovsky
 -----------------------------------------------------------------------
 Exchange:     0.2000 Hartree-Fock + 0.0800 Slater + 0.7200 B88
 Correlation:  0.1900 VWN1RPA + 0.8100 LYP
 Using SG-1 standard quadrature grid
 using 12 threads for integral computing
 -------------------------------------------------------
 OpenMP Integral computing Module                
 Release: version 1.0, May 2013, Q-Chem Inc. Pittsburgh 
 -------------------------------------------------------
 -------------------------------------------------------
 OpenMP BLAS3 based DFT computing Module                
 Release: version 1.0, May 2013, Q-Chem Inc. Pittsburgh 
 -------------------------------------------------------
 A unrestricted SCF calculation will be
 performed using DIIS
 SCF converges when DIIS error is below 1.0e-06
 Alpha HF Exchange    Energy = -10.72272284402397
 Beta HF Exchange     Energy = -10.72272284402397
 DFT Correlation      Energy =  -3.11540483957446
 DFT Exchange         Energy = -84.99187788341601
 One-Electron (alpha) Energy = -2081.04055051083151
 One-Electron (beta)  Energy = -2081.04055051083151
 Total Coulomb        Energy = 1361.51043904068911
 ---------------------------------------
  Cycle       Energy         DIIS error
 ---------------------------------------
    1   -2695.7010929015      1.64e-01  
 Alpha HF Exchange    Energy = -10.90407822700277
 Beta HF Exchange     Energy = -10.69095108416154
 DFT Correlation      Energy =  -3.14908847694762
 DFT Exchange         Energy = -85.91109838317718
 One-Electron (alpha) Energy = -2107.05814304836576
 One-Electron (beta)  Energy = -2065.73483241075792
 Total Coulomb        Energy = 1376.85978995298387
    2   -2692.1661041869      9.60e-03  
 Alpha HF Exchange    Energy = -10.80476385848362
 Beta HF Exchange     Energy = -10.60524676541010
 DFT Correlation      Energy =  -3.11356236123236
 DFT Exchange         Energy = -85.15488563559609
 One-Electron (alpha) Energy = -2099.21379599598822
 One-Electron (beta)  Energy = -2059.88394597207298
 Total Coulomb        Energy = 1362.21424569700935
    3   -2692.1396574012      4.65e-03  
 Alpha HF Exchange    Energy = -10.87856439923989
 Beta HF Exchange     Energy = -10.66880100312427
 DFT Correlation      Energy =  -3.14059338026387
 DFT Exchange         Energy = -85.70721758700492
 One-Electron (alpha) Energy = -2104.66610704097502
 One-Electron (beta)  Energy = -2063.10086238487565
 Total Coulomb        Energy = 1371.52099014194209
    4   -2692.2188581630      3.09e-03  
 Alpha HF Exchange    Energy = -10.85883748884256
 Beta HF Exchange     Energy = -10.65325725255375
 DFT Correlation      Energy =  -3.13095283259300
 DFT Exchange         Energy = -85.55767002466663
 One-Electron (alpha) Energy = -2103.61897252025983
 One-Electron (beta)  Energy = -2062.83494937869182
 Total Coulomb        Energy = 1369.94547384436328
    5   -2692.2868681627      5.47e-04  
 Alpha HF Exchange    Energy = -10.85484206121345
 Beta HF Exchange     Energy = -10.64975153608881
 DFT Correlation      Energy =  -3.13030479303687
 DFT Exchange         Energy = -85.52731778410256
 One-Electron (alpha) Energy = -2103.16509706600482
 One-Electron (beta)  Energy = -2062.27979788106632
 Total Coulomb        Energy = 1368.89673904913934
    6   -2692.2880745818      9.46e-05  
 Alpha HF Exchange    Energy = -10.85470830723949
 Beta HF Exchange     Energy = -10.65007872294627
 DFT Correlation      Energy =  -3.13005297157490
 DFT Exchange         Energy = -85.52709718706264
 One-Electron (alpha) Energy = -2103.16511853641896
 One-Electron (beta)  Energy = -2062.28504427458165
 Total Coulomb        Energy = 1368.90164511620355
    7   -2692.2881573931      4.10e-05  
 Alpha HF Exchange    Energy = -10.85492289783899
 Beta HF Exchange     Energy = -10.65026754715871
 DFT Correlation      Energy =  -3.13001947039239
 DFT Exchange         Energy = -85.52833015814066
 One-Electron (alpha) Energy = -2103.19034427070437
 One-Electron (beta)  Energy = -2062.29459032760860
 Total Coulomb        Energy = 1368.93800396241522
    8   -2692.2881732189      1.61e-05  
 Alpha HF Exchange    Energy = -10.85497579382906
 Beta HF Exchange     Energy = -10.65039915653262
 DFT Correlation      Energy =  -3.13000959564504
 DFT Exchange         Energy = -85.52886212244661
 One-Electron (alpha) Energy = -2103.19467967532910
 One-Electron (beta)  Energy = -2062.29290251741668
 Total Coulomb        Energy = 1368.94135448930206
    9   -2692.2881768813      3.16e-06  
 Alpha HF Exchange    Energy = -10.85496476798071
 Beta HF Exchange     Energy = -10.65040546093807
 DFT Correlation      Energy =  -3.12999473422453
 DFT Exchange         Energy = -85.52877666949016
 One-Electron (alpha) Energy = -2103.19394059136766
 One-Electron (beta)  Energy = -2062.28917522141046
 Total Coulomb        Energy = 1368.93678277476761
   10   -2692.2881771801      1.19e-06  
 Alpha HF Exchange    Energy = -10.85496665027076
 Beta HF Exchange     Energy = -10.65040729140969
 DFT Correlation      Energy =  -3.12999364911514
 DFT Exchange         Energy = -85.52878706410974
 One-Electron (alpha) Energy = -2103.19449023129710
 One-Electron (beta)  Energy = -2062.28934580053510
 Total Coulomb        Energy = 1368.93751593382444
   11   -2692.2881772624      8.13e-07  Convergence criterion met
 ---------------------------------------
 SCF time:   CPU 30.79s  wall 3.00s 
<S^2> =          2.004753790
 Alpha HF Exchange    Energy = -10.85496665027076
 Beta HF Exchange     Energy = -10.65040729140969
 DFT Correlation      Energy =  -3.12999364911514
 DFT Exchange         Energy = -85.52878706410974
 One-Electron (alpha) Energy = -2103.19449023129710
 One-Electron (beta)  Energy = -2062.28934580053510
 Total Coulomb        Energy = 1368.93751593382444
 Nuclear repulsion Energy = 214.42229749054707
 SCF   energy in the final basis set =    -2692.2881772624
 Total energy in the final basis set =    -2692.2881772624
 
 --------------------------------------------------------------
 
                    Orbital Energies (a.u.)
 --------------------------------------------------------------
 
 Alpha MOs
 -- Occupied --
******* -62.554 -56.377 -56.371 -56.370 -10.180 -10.173 -10.171
 -8.741  -6.577  -6.558  -6.555  -2.668  -2.664  -2.662  -2.648
 -2.648  -0.808  -0.769  -0.667  -0.577  -0.456  -0.422  -0.392
 -0.387  -0.361  -0.348  -0.331  -0.325  -0.318  -0.149
 -- Virtual --
  0.102   0.133   0.144   0.154   0.180   0.185   0.203   0.209
  0.228   0.270   0.299   0.328   0.337   0.480   0.481   0.514
  0.536   0.544   0.551   0.572   0.604   0.611   0.635   0.716
  0.764   0.805   0.820   0.860   0.876   0.887   0.916   0.927
  0.951   0.986   1.088   1.294   1.333   1.380   1.522   1.589
  1.627   1.687   1.727   1.842   1.867   1.928   2.027   2.050
  2.057   2.077   2.129   2.135   2.229   2.259   2.277   2.367
  2.432   2.494   2.546   2.570   2.697   2.735   2.747   2.823
  2.854   2.889   2.920   3.185   3.248   3.326   3.358   3.468
  3.503   3.544   4.267   4.461   4.622   4.661   4.663   4.698
  4.726   4.862   6.235  90.214
 
 Beta MOs
 -- Occupied --
******* -62.552 -56.372 -56.369 -56.369 -10.181 -10.170 -10.158
 -8.737  -6.566  -6.554  -6.553  -2.660  -2.657  -2.656  -2.646
 -2.646  -0.771  -0.749  -0.649  -0.565  -0.450  -0.414  -0.379
 -0.372  -0.338  -0.324  -0.307  -0.302
 -- Virtual --
 -0.230  -0.011   0.106   0.141   0.148   0.157   0.183   0.187
  0.210   0.221   0.234   0.278   0.327   0.334   0.350   0.488
  0.512   0.534   0.553   0.565   0.593   0.595   0.616   0.640
  0.645   0.734   0.772   0.816   0.832   0.863   0.879   0.892
  0.921   0.940   0.955   0.993   1.102   1.306   1.343   1.400
  1.530   1.608   1.644   1.688   1.747   1.852   1.875   1.956
  2.033   2.058   2.074   2.078   2.132   2.151   2.231   2.264
  2.280   2.376   2.435   2.498   2.562   2.585   2.701   2.742
  2.751   2.825   2.861   2.891   2.924   3.186   3.255   3.330
  3.361   3.470   3.513   3.545   4.281   4.478   4.626   4.676
  4.680   4.714   4.731   4.871   6.253  90.222
 --------------------------------------------------------------
 
          Ground-State Mulliken Net Atomic Charges

     Atom                 Charge (a.u.)    Spin (a.u.)
  --------------------------------------------------------
      1 Br                    0.077861       1.106517
      2 C                    -0.162185      -0.054343
      3 C                    -0.302899       0.918023
      4 C                    -0.306288       0.033608
      5 H                     0.094393       0.011449
      6 H                     0.094526       0.011090
      7 H                     0.102822      -0.019421
      8 H                     0.103397      -0.021655
      9 H                     0.095784       0.015693
     10 H                     0.101223      -0.000472
     11 H                     0.101367      -0.000489
  --------------------------------------------------------
  Sum of atomic charges =     0.000000
  Sum of spin   charges =     2.000000

 -----------------------------------------------------------------
                    Cartesian Multipole Moments
 -----------------------------------------------------------------
    Charge (ESU x 10^10)
                 0.0000
    Dipole Moment (Debye)
         X      -0.1417      Y      -0.0751      Z       0.0034
       Tot       0.1604
    Quadrupole Moments (Debye-Ang)
        XX     -41.3885     XY      -0.7130     YY     -39.6686
        XZ       0.0111     YZ       0.1420     ZZ     -36.4024
    Octopole Moments (Debye-Ang^2)
       XXX     -95.3821    XXY      -4.4237    XYY     -30.6081
       YYY     -11.4596    XXZ       0.0213    XYZ       0.4031
       YYZ       0.0392    XZZ     -23.6895    YZZ      -3.7685
       ZZZ      -0.2359
    Hexadecapole Moments (Debye-Ang^3)
      XXXX   -1083.2227   XXXY     -43.4004   XXYY    -194.2890
      XYYY     -39.6422   YYYY    -107.9159   XXXZ      -0.2398
      XXYZ       1.0737   XYYZ       0.0638   YYYZ       0.0789
      XXZZ    -168.6392   XYZZ     -10.0691   YYZZ     -25.5488
      XZZZ      -0.4377   YZZZ       0.1619   ZZZZ     -58.6875
 -----------------------------------------------------------------
 Calculating analytic gradient of the SCF energy
 Gradient of SCF Energy
            1           2           3           4           5           6
    1  -0.0403598  -0.0002457   0.0401343  -0.0001128   0.0000913   0.0000808
    2  -0.0169817  -0.0003946   0.0172935   0.0003125  -0.0000293  -0.0000356
    3   0.0002251   0.0000302  -0.0002673   0.0000036   0.0000599  -0.0000752
            7           8           9          10          11
    1   0.0001057   0.0003105  -0.0000208   0.0000095   0.0000070
    2  -0.0001497  -0.0000455   0.0000411  -0.0000034  -0.0000073
    3  -0.0000118   0.0000431  -0.0000010   0.0000018  -0.0000086
 Max gradient component =       4.036E-02
 RMS gradient           =       1.077E-02
 Gradient time:  CPU 10.67 s  wall 0.95 s
 Geometry Optimization Parameters
   NAtoms,    NIC,     NZ,  NCons,   NDum,   NFix, NCnnct, MaxDiis
       11      68       0       1       0       0       0       0

 Cartesian Hessian Update
 Hessian Updated using BFGS Update


** CONSTRAINED OPTIMIZATION IN DELOCALIZED INTERNAL COORDINATES **
   Searching for a Minimum

   Optimization Cycle:   4

                       Coordinates (Angstroms)
     ATOM                X               Y               Z
      1  Br        2.5929685975    0.3132409781    0.0018675021
      2  C        -0.6788826048    0.4519474642    0.0099006188
      3  C         0.3793792080   -0.6141128982    0.0079582666
      4  C        -2.1239554988   -0.0872533870   -0.0075651361
      5  H        -0.5534227538    1.0914983212    0.8949140134
      6  H        -0.5388059119    1.1103881045   -0.8588703444
      7  H         0.5039269060   -1.2051299997   -0.9045157934
      8  H         0.4895386457   -1.2267610395    0.9066258898
      9  H        -2.8536238172    0.7314546074   -0.0039232652
     10  H        -2.3053064561   -0.6962012545   -0.8996566513
     11  H        -2.3190313147   -0.7164648965    0.8673708998
   Point Group: c1    Number of degrees of freedom:    27


   Energy is  -2692.288177262

              Constraints and their Current Values
                                        Value     Constraint
   Distance(Angs):        1   3             2.400000     2.400000
 Hessian Updated using BFGS Update

 25 Hessian modes will be used to form the next step
  Hessian Eigenvalues:
     0.019802    0.045000    0.045010    0.067455    0.078060    0.082652
     0.083149    0.083432    0.105404    0.133109    0.159930    0.160000
     0.160783    0.164358    0.216158    0.259860    0.282384    0.332117
     0.338277    0.338490    0.341914    0.342225    0.342682    0.346280
     0.356801

 Minimum Search - Taking Simple RFO Step
 Searching for Lamda that Minimizes Along All modes
 Value Taken    Lamda =  -0.00000555
 Step Taken.  Stepsize is  0.010543

                             Maximum     Tolerance    Cnvgd?
         Gradient           0.000654      0.000300      NO
         Displacement       0.007739      0.001200      NO
         Energy change     -0.000049      0.000001      NO


 New Cartesian Coordinates Obtained by Inverse Iteration

 Displacement from previous Coordinates is:  0.015397
 ----------------------------------------------------------------
             Standard Nuclear Orientation (Angstroms)
    I     Atom           X                Y                Z
 ----------------------------------------------------------------
    1      Br      2.5939126666     0.3121423452    -0.0000027411
    2      C      -0.6783687984     0.4534718824     0.0102977735
    3      C       0.3795054780    -0.6132365550     0.0086568479
    4      C      -2.1224915680    -0.0879983855    -0.0077194725
    5      H      -0.5539831294     1.0933171298     0.8952137092
    6      H      -0.5387186680     1.1123049572    -0.8581930245
    7      H       0.5008166128    -1.2049382644    -0.9038679608
    8      H       0.4852327383    -1.2274255916     0.9068292799
    9      H      -2.8534746007     0.7295258596    -0.0043574887
   10      H      -2.3026377317    -0.6971289229    -0.8999171391
   11      H      -2.3170079994    -0.7174284549     0.8671662160
 ----------------------------------------------------------------
 Nuclear Repulsion Energy =   214.4112519998 hartrees
 There are       31 alpha and       29 beta electrons

                       Distance Matrix (Angstroms)
             Br(  1)   C (  2)   C (  3)   C (  4)   H (  5)   H (  6)
   C (  2)  3.275348
   C (  3)  2.400000  1.502321
   C (  4)  4.733354  1.542402  2.556586
   H (  5)  3.364654  1.099068  2.137688  2.161253
   H (  6)  3.345165  1.099017  2.138237  2.161567  1.753576
   H (  7)  2.738532  2.230807  1.094317  2.988709  3.103430  2.540145
   H (  8)  2.763900  2.232298  1.093216  2.989134  2.542823  3.104532
   H (  9)  5.463356  2.192603  3.500763  1.096674  2.495843  2.496728
   H ( 10)  5.079831  2.188749  2.833097  1.095221  3.079933  2.527292
   H ( 11)  5.092066  2.188691  2.831798  1.095191  2.527418  3.080114
             H (  7)   H (  8)   H (  9)   H ( 10)
   H (  8)  1.810904
   H (  9)  3.975241  3.975788
   H ( 10)  2.849077  3.364189  1.772228
   H ( 11)  3.363683  2.848548  1.772294  1.767258
 
 Applying Cartesian multipole field
    Component          Value
    ---------          -----
     (2,0,0)        1.00000E-11
     (0,2,0)        2.00000E-10
     (0,0,2)       -3.00000E-10
 Nucleus-field energy     =     0.0000000150 hartrees
 Requested basis set is 6-31G(d,p)
 There are 41 shells and 115 basis functions
 A cutoff of  1.0D-14 yielded    799 shell pairs
 There are      6238 function pairs
 Smallest overlap matrix eigenvalue = 7.25E-04
 Guess from superposition of atomic densities
 Warning:  Energy on first SCF cycle will be non-variational
 SAD guess density has 59.972873 electrons

 -----------------------------------------------------------------------
  General SCF calculation program by
  Eric Jon Sundstrom, Paul Horn, Yuezhi Mao, Dmitri Zuev, Alec White,
  David Stuck, Shaama M.S., Shane Yost, Joonho Lee, David Small,
  Daniel Levine, Susi Lehtola, Hugh Burton, Evgeny Epifanovsky
 -----------------------------------------------------------------------
 Exchange:     0.2000 Hartree-Fock + 0.0800 Slater + 0.7200 B88
 Correlation:  0.1900 VWN1RPA + 0.8100 LYP
 Using SG-1 standard quadrature grid
 using 12 threads for integral computing
 -------------------------------------------------------
 OpenMP Integral computing Module                
 Release: version 1.0, May 2013, Q-Chem Inc. Pittsburgh 
 -------------------------------------------------------
 -------------------------------------------------------
 OpenMP BLAS3 based DFT computing Module                
 Release: version 1.0, May 2013, Q-Chem Inc. Pittsburgh 
 -------------------------------------------------------
 A unrestricted SCF calculation will be
 performed using DIIS
 SCF converges when DIIS error is below 1.0e-06
 Alpha HF Exchange    Energy = -10.72271859861169
 Beta HF Exchange     Energy = -10.72271859861169
 DFT Correlation      Energy =  -3.11540364968087
 DFT Exchange         Energy = -84.99185700778256
 One-Electron (alpha) Energy = -2081.02954704960712
 One-Electron (beta)  Energy = -2081.02954704960712
 Total Coulomb        Energy = 1361.49955886103135
 ---------------------------------------
  Cycle       Energy         DIIS error
 ---------------------------------------
    1   -2695.7009810780      1.64e-01  
 Alpha HF Exchange    Energy = -10.90409297547627
 Beta HF Exchange     Energy = -10.69094059264621
 DFT Correlation      Energy =  -3.14908630628838
 DFT Exchange         Energy = -85.91109579877161
 One-Electron (alpha) Energy = -2107.05001582954446
 One-Electron (beta)  Energy = -2065.71951810876362
 Total Coulomb        Energy = 1376.84743478945438
    2   -2692.1660628072      9.60e-03  
 Alpha HF Exchange    Energy = -10.80478375232321
 Beta HF Exchange     Energy = -10.60520978710148
 DFT Correlation      Energy =  -3.11355852935438
 DFT Exchange         Energy = -85.15486803617286
 One-Electron (alpha) Energy = -2099.20567893835869
 One-Electron (beta)  Energy = -2059.87304883171555
 Total Coulomb        Energy = 1362.20648607412363
    3   -2692.1394097860      4.65e-03  
 Alpha HF Exchange    Energy = -10.87857246962884
 Beta HF Exchange     Energy = -10.66877297183940
 DFT Correlation      Energy =  -3.14059417023803
 DFT Exchange         Energy = -85.70714560203464
 One-Electron (alpha) Energy = -2104.65666082722510
 One-Electron (beta)  Energy = -2063.08387170708011
 Total Coulomb        Energy = 1371.50565783550110
    4   -2692.2187078977      3.10e-03  
 Alpha HF Exchange    Energy = -10.85886633166144
 Beta HF Exchange     Energy = -10.65324937544074
 DFT Correlation      Energy =  -3.13095318685788
 DFT Exchange         Energy = -85.55774735539899
 One-Electron (alpha) Energy = -2103.61166605679409
 One-Electron (beta)  Energy = -2062.82099324820319
 Total Coulomb        Energy = 1369.93535281327172
    5   -2692.2868707262      5.48e-04  
 Alpha HF Exchange    Energy = -10.85486074514108
 Beta HF Exchange     Energy = -10.64973389505587
 DFT Correlation      Energy =  -3.13030231942525
 DFT Exchange         Energy = -85.52731319954771
 One-Electron (alpha) Energy = -2103.15704780843180
 One-Electron (beta)  Energy = -2062.26507115813229
 Total Coulomb        Energy = 1368.88499864061578
    6   -2692.2880784702      9.49e-05  
 Alpha HF Exchange    Energy = -10.85472779160776
 Beta HF Exchange     Energy = -10.65006347461449
 DFT Correlation      Energy =  -3.13005016347774
 DFT Exchange         Energy = -85.52710237910821
 One-Electron (alpha) Energy = -2103.15720092010224
 One-Electron (beta)  Energy = -2062.27053349826565
 Total Coulomb        Energy = 1368.89026426598889
    7   -2692.2881619463      4.11e-05  
 Alpha HF Exchange    Energy = -10.85494268488825
 Beta HF Exchange     Energy = -10.65025263236467
 DFT Correlation      Energy =  -3.13001658103452
 DFT Exchange         Energy = -85.52833732284752
[...]
 Step Taken.  Stepsize is  0.020713

                             Maximum     Tolerance    Cnvgd?
         Gradient           0.000163      0.000300     YES
         Displacement       0.011212      0.001200      NO
         Energy change     -0.000001      0.000001      NO


 New Cartesian Coordinates Obtained by Inverse Iteration

 Displacement from previous Coordinates is:  0.032455
 ----------------------------------------------------------------
             Standard Nuclear Orientation (Angstroms)
    I     Atom           X                Y                Z
 ----------------------------------------------------------------
    1      Br      2.4823366279    -0.1383828829    -0.8614037788
    2      C      -0.7201607623     0.5120881415     0.2013745010
    3      C       0.4071476552    -0.4604893855     0.3004216976
    4      C      -2.0948517853    -0.1182264263    -0.1189857262
    5      H      -0.7904814271     1.0420369122     1.1620457146
    6      H      -0.4860412987     1.2668982435    -0.5603694663
    7      H       0.6615058045    -0.9860869836    -0.6555307053
    8      H       0.4626064871    -1.1381512433     1.1525686558
    9      H      -2.8717615400     0.6524006701    -0.1630507587
   10      H      -2.0744451700    -0.6306506280    -1.0863067419
   11      H      -2.3830695913    -0.8488304177     0.6433426082
 ----------------------------------------------------------------
 Nuclear Repulsion Energy =   214.7062399855 hartrees
 There are       31 alpha and       29 beta electrons

                       Distance Matrix (Angstroms)
             Br(  1)   C (  2)   C (  3)   C (  4)   H (  5)   H (  6)
   C (  2)  3.436364
   C (  3)  2.400000  1.492160
   C (  4)  4.637051  1.545866  2.559892
   H (  5)  4.024808  1.099400  2.105777  2.165326
   H (  6)  3.297985  1.097636  2.126644  2.168331  1.763508
   H (  7)  2.019012  2.210841  1.120177  2.939144  3.086282  2.530190
   H (  8)  3.022405  2.242097  1.090163  3.032769  2.514665  3.101347
   H (  9)  5.457051  2.186751  3.493505  1.095170  2.497884  2.495422
   H ( 10)  4.588809  2.190448  2.847854  1.094854  3.082456  2.529887
   H ( 11)  5.142098  2.193787  2.837907  1.094530  2.526018  3.086089
             H (  7)   H (  8)   H (  9)   H ( 10)
   H (  8)  1.825351
   H (  9)  3.925705  4.006862
   H ( 10)  2.792370  3.421513  1.770406
   H ( 11)  3.312907  2.905321  1.772790  1.770463
 
 Applying Cartesian multipole field
    Component          Value
    ---------          -----
     (2,0,0)        1.00000E-11
     (0,2,0)        2.00000E-10
     (0,0,2)       -3.00000E-10
 Nucleus-field energy     =    -0.0000000174 hartrees
 Requested basis set is 6-31G(d,p)
 There are 41 shells and 115 basis functions
 A cutoff of  1.0D-14 yielded    798 shell pairs
 There are      6261 function pairs
 Smallest overlap matrix eigenvalue = 7.25E-04
 Guess from superposition of atomic densities
 Warning:  Energy on first SCF cycle will be non-variational
 SAD guess density has 59.972873 electrons

 -----------------------------------------------------------------------
  General SCF calculation program by
  Eric Jon Sundstrom, Paul Horn, Yuezhi Mao, Dmitri Zuev, Alec White,
  David Stuck, Shaama M.S., Shane Yost, Joonho Lee, David Small,
  Daniel Levine, Susi Lehtola, Hugh Burton, Evgeny Epifanovsky
 -----------------------------------------------------------------------
 Exchange:     0.2000 Hartree-Fock + 0.0800 Slater + 0.7200 B88
 Correlation:  0.1900 VWN1RPA + 0.8100 LYP
 Using SG-1 standard quadrature grid
 using 12 threads for integral computing
 -------------------------------------------------------
 OpenMP Integral computing Module                
 Release: version 1.0, May 2013, Q-Chem Inc. Pittsburgh 
 -------------------------------------------------------
 -------------------------------------------------------
 OpenMP BLAS3 based DFT computing Module                
 Release: version 1.0, May 2013, Q-Chem Inc. Pittsburgh 
 -------------------------------------------------------
 A unrestricted SCF calculation will be
 performed using DIIS
 SCF converges when DIIS error is below 1.0e-06
 Alpha HF Exchange    Energy = -10.72789052357935
 Beta HF Exchange     Energy = -10.72789052357935
 DFT Correlation      Energy =  -3.11729493536299
 DFT Exchange         Energy = -85.00227762438216
 One-Electron (alpha) Energy = -2081.32218387766170
 One-Electron (beta)  Energy = -2081.32218387766170
 Total Coulomb        Energy = 1361.76500660202487
 ---------------------------------------
  Cycle       Energy         DIIS error
 ---------------------------------------
    1   -2695.7484747921      1.64e-01  
 Alpha HF Exchange    Energy = -10.90371788238020
 Beta HF Exchange     Energy = -10.68628337181243
 DFT Correlation      Energy =  -3.15029824592369
 DFT Exchange         Energy = -85.90386503614801
 One-Electron (alpha) Energy = -2106.98776286074781
 One-Electron (beta)  Energy = -2068.47498087577833
 Total Coulomb        Energy = 1379.21492782088694
    2   -2692.1857404838      9.51e-03  
 Alpha HF Exchange    Energy = -10.80520528240325
 Beta HF Exchange     Energy = -10.60069210797766
 DFT Correlation      Energy =  -3.11583686522190
 DFT Exchange         Energy = -85.14095600777695
 One-Electron (alpha) Energy = -2098.32945371216010
 One-Electron (beta)  Energy = -2059.54291355635451
 Total Coulomb        Energy = 1360.62803722517651
    3   -2692.2007803386      4.09e-03  
 Alpha HF Exchange    Energy = -10.88282579245130
 Beta HF Exchange     Energy = -10.66955949026592
 DFT Correlation      Energy =  -3.14059720105654
 DFT Exchange         Energy = -85.73001095936029
 One-Electron (alpha) Energy = -2105.14046707448597
 One-Electron (beta)  Energy = -2065.47941377621055
 Total Coulomb        Energy = 1374.07865451714906
    4   -2692.2579798086      2.53e-03  
 Alpha HF Exchange    Energy = -10.85849212901812
 Beta HF Exchange     Energy = -10.64679773500175
 DFT Correlation      Energy =  -3.13179131680618
 DFT Exchange         Energy = -85.53824294842194
 One-Electron (alpha) Energy = -2103.29047018093343
 One-Electron (beta)  Energy = -2063.92191220701261
 Total Coulomb        Energy = 1370.38925492750946
    5   -2692.2922116216      3.90e-04  
 Alpha HF Exchange    Energy = -10.85637161605472
 Beta HF Exchange     Energy = -10.64548481365677
 DFT Correlation      Energy =  -3.13158158374134
 DFT Exchange         Energy = -85.52450610332261
 One-Electron (alpha) Energy = -2102.98953816200628
 One-Electron (beta)  Energy = -2063.51848529754079
 Total Coulomb        Energy = 1369.66652672884902
    6   -2692.2932008794      7.14e-05  
 Alpha HF Exchange    Energy = -10.85611794720406
 Beta HF Exchange     Energy = -10.64542337333227
 DFT Correlation      Energy =  -3.13128757814191
 DFT Exchange         Energy = -85.52261440840827
 One-Electron (alpha) Energy = -2102.97881523398428
 One-Electron (beta)  Energy = -2063.50515197698996
 Total Coulomb        Energy = 1369.63993417752863
    7   -2692.2932363724      2.26e-05  
 Alpha HF Exchange    Energy = -10.85626953429432
 Beta HF Exchange     Energy = -10.64551791824749
 DFT Correlation      Energy =  -3.13128666864136
 DFT Exchange         Energy = -85.52341907777685
 One-Electron (alpha) Energy = -2102.99361718753562
 One-Electron (beta)  Energy = -2063.50368820452195
 Total Coulomb        Energy = 1369.65431625744282
    8   -2692.2932423655      1.30e-05  
 Alpha HF Exchange    Energy = -10.85630225231254
 Beta HF Exchange     Energy = -10.64558873761703
 DFT Correlation      Energy =  -3.13127461406218
 DFT Exchange         Energy = -85.52373720463990
 One-Electron (alpha) Energy = -2102.99938494820344
 One-Electron (beta)  Energy = -2063.51085241676446
 Total Coulomb        Energy = 1369.66765567161656
    9   -2692.2932445339      4.34e-06  
 Alpha HF Exchange    Energy = -10.85630565596503
 Beta HF Exchange     Energy = -10.64560265458059
 DFT Correlation      Energy =  -3.13126600229412
 DFT Exchange         Energy = -85.52375946326754
 One-Electron (alpha) Energy = -2102.99879493548406
 One-Electron (beta)  Energy = -2063.50814040384830
 Total Coulomb        Energy = 1369.66438402191761
   10   -2692.2932451254      1.38e-06  
 Alpha HF Exchange    Energy = -10.85630266821957
 Beta HF Exchange     Energy = -10.64560594467058
 DFT Correlation      Energy =  -3.13126336998164
 DFT Exchange         Energy = -85.52374981392020
 One-Electron (alpha) Energy = -2102.99849634697102
 One-Electron (beta)  Energy = -2063.50863060793245
 Total Coulomb        Energy = 1369.66456350417252
   11   -2692.2932452794      9.86e-07  Convergence criterion met
 ---------------------------------------
 SCF time:   CPU 30.00s  wall 2.00s 
<S^2> =          2.005353802
 Alpha HF Exchange    Energy = -10.85630266821957
 Beta HF Exchange     Energy = -10.64560594467058
 DFT Correlation      Energy =  -3.13126336998164
 DFT Exchange         Energy = -85.52374981392020
 One-Electron (alpha) Energy = -2102.99849634697102
 One-Electron (beta)  Energy = -2063.50863060793245
 Total Coulomb        Energy = 1369.66456350417252
 Nuclear repulsion Energy = 214.70623996809704
 SCF   energy in the final basis set =    -2692.2932452794
 Total energy in the final basis set =    -2692.2932452794
 
 --------------------------------------------------------------
 
                    Orbital Energies (a.u.)
 --------------------------------------------------------------
 
 Alpha MOs
 -- Occupied --
******* -62.522 -56.345 -56.339 -56.339 -10.213 -10.200 -10.189
 -8.710  -6.544  -6.527  -6.525  -2.635  -2.631  -2.630  -2.618
 -2.618  -0.810  -0.773  -0.690  -0.602  -0.488  -0.444  -0.420
 -0.402  -0.367  -0.352  -0.319  -0.300  -0.298  -0.186
 -- Virtual --
  0.090   0.120   0.129   0.144   0.167   0.169   0.186   0.210
  0.232   0.254   0.323   0.330   0.336   0.469   0.507   0.519
  0.533   0.540   0.583   0.594   0.599   0.635   0.644   0.692
  0.707   0.770   0.810   0.844   0.858   0.876   0.886   0.903
  0.940   0.967   1.034   1.253   1.295   1.432   1.491   1.560
  1.617   1.666   1.763   1.811   1.850   1.904   1.991   2.025
  2.042   2.060   2.113   2.134   2.203   2.225   2.251   2.340
  2.394   2.470   2.499   2.549   2.673   2.716   2.724   2.792
  2.817   2.873   2.900   3.161   3.197   3.301   3.336   3.452
  3.471   3.524   4.227   4.429   4.596   4.705   4.713   4.750
  4.767   4.876   6.267  90.254
 
 Beta MOs
 -- Occupied --
******* -62.520 -56.340 -56.338 -56.338 -10.201 -10.196 -10.187
 -8.706  -6.534  -6.524  -6.523  -2.628  -2.625  -2.625  -2.616
 -2.616  -0.790  -0.743  -0.667  -0.584  -0.474  -0.433  -0.406
 -0.387  -0.358  -0.347  -0.291  -0.284
 -- Virtual --
 -0.189  -0.039   0.097   0.131   0.136   0.146   0.171   0.172
  0.194   0.218   0.245   0.265   0.338   0.342   0.349   0.484
  0.521   0.530   0.540   0.562   0.609   0.611   0.624   0.645
  0.681   0.701   0.728   0.789   0.823   0.849   0.864   0.882
  0.897   0.911   0.944   0.981   1.049   1.268   1.306   1.447
  1.506   1.581   1.638   1.668   1.787   1.823   1.864   1.937
  2.002   2.042   2.050   2.061   2.126   2.139   2.210   2.232
  2.257   2.350   2.398   2.479   2.518   2.566   2.680   2.724
  2.729   2.798   2.826   2.875   2.904   3.168   3.208   3.306
  3.341   3.455   3.484   3.526   4.246   4.448   4.601   4.712
  4.718   4.760   4.782   4.890   6.282  90.260
 --------------------------------------------------------------
 
          Ground-State Mulliken Net Atomic Charges

     Atom                 Charge (a.u.)    Spin (a.u.)
  --------------------------------------------------------
      1 Br                   -0.079793       0.902632
      2 C                    -0.192923      -0.046659
      3 C                    -0.239220       1.055968
      4 C                    -0.315001       0.047337
      5 H                     0.122024       0.022591
      6 H                     0.119260       0.015020
      7 H                     0.129951       0.017229
      8 H                     0.124521      -0.026299
      9 H                     0.110600       0.013229
     10 H                     0.110697      -0.000177
     11 H                     0.109885      -0.000871
  --------------------------------------------------------
  Sum of atomic charges =     0.000000
  Sum of spin   charges =     2.000000

 -----------------------------------------------------------------
                    Cartesian Multipole Moments
 -----------------------------------------------------------------
    Charge (ESU x 10^10)
                 0.0000
    Dipole Moment (Debye)
         X      -1.9325      Y      -0.1430      Z       0.6588
       Tot       2.0467
    Quadrupole Moments (Debye-Ang)
        XX     -42.3193     XY       0.4656     YY     -38.4976
        XZ       1.3836     YZ      -0.1341     ZZ     -39.4304
    Octopole Moments (Debye-Ang^2)
       XXX     -88.9988    XXY       9.1476    XYY     -28.8235
       YYY      10.5264    XXZ      16.9428    XYZ      -1.0385
       YYZ      14.2201    XZZ     -31.4122    YZZ       2.8902
       ZZZ      44.1388
    Hexadecapole Moments (Debye-Ang^3)
      XXXX    -966.5018   XXXY      42.4274   XXYY    -178.5265
      XYYY      26.6025   YYYY     -90.1636   XXXZ     117.4093
      XXYZ      -6.6131   XYYZ      38.5370   YYYZ      -6.9401
      XXZZ    -195.0576   XYZZ      10.1945   YYZZ     -38.7471
      XZZZ     119.9896   YZZZ      -6.1142   ZZZZ    -156.1189
 -----------------------------------------------------------------
 Calculating analytic gradient of the SCF energy
 Gradient of SCF Energy
            1           2           3           4           5           6
    1  -0.0399977  -0.0001720   0.0400365   0.0000630   0.0000589   0.0000515
    2  -0.0062532  -0.0000173   0.0062003   0.0000301  -0.0000200  -0.0000318
    3   0.0224303  -0.0000185  -0.0225209  -0.0000010   0.0000241  -0.0000189
            7           8           9          10          11
    1   0.0000069  -0.0000182  -0.0000090   0.0000061  -0.0000259
    2   0.0000379  -0.0000122   0.0000181   0.0000282   0.0000199
    3   0.0000758   0.0000750  -0.0000121  -0.0000215  -0.0000124
 Max gradient component =       4.004E-02
 RMS gradient           =       1.140E-02
 Gradient time:  CPU 10.61 s  wall 0.91 s
 Geometry Optimization Parameters
   NAtoms,    NIC,     NZ,  NCons,   NDum,   NFix, NCnnct, MaxDiis
       11      68       0       1       0       0       0       0

 Cartesian Hessian Update
 Hessian Updated using BFGS Update
**WARNING** Hereditary positive definiteness endangered


** CONSTRAINED OPTIMIZATION IN DELOCALIZED INTERNAL COORDINATES **
   Searching for a Minimum

   Optimization Cycle:  33

                       Coordinates (Angstroms)
     ATOM                X               Y               Z
      1  Br        2.4823366279   -0.1383828829   -0.8614037788
      2  C        -0.7201607623    0.5120881415    0.2013745010
      3  C         0.4071476552   -0.4604893855    0.3004216976
      4  C        -2.0948517853   -0.1182264263   -0.1189857262
      5  H        -0.7904814271    1.0420369122    1.1620457146
      6  H        -0.4860412987    1.2668982435   -0.5603694663
      7  H         0.6615058045   -0.9860869836   -0.6555307053
      8  H         0.4626064871   -1.1381512433    1.1525686558
      9  H        -2.8717615400    0.6524006701   -0.1630507587
     10  H        -2.0744451700   -0.6306506280   -1.0863067419
     11  H        -2.3830695913   -0.8488304177    0.6433426082
   Point Group: c1    Number of degrees of freedom:    27


   Energy is  -2692.293245279

              Constraints and their Current Values
                                        Value     Constraint
   Distance(Angs):        1   3             2.400000     2.400000
 Hessian Updated using BFGS Update

 26 Hessian modes will be used to form the next step
  Hessian Eigenvalues:
     0.000917    0.010632    0.029993    0.039171    0.045374    0.056848
     0.071783    0.082252    0.082730    0.104225    0.129235    0.134325
     0.149678    0.158655    0.160514    0.163745    0.221604    0.287440
     0.324103    0.338263    0.338317    0.340198    0.342251    0.342725
     0.348680    0.375684

 Minimum Search - Taking Simple RFO Step
 Searching for Lamda that Minimizes Along All modes
 Value Taken    Lamda =   0.00000000
 Step Taken.  Stepsize is  0.007470

                             Maximum     Tolerance    Cnvgd?
         Gradient           0.000081      0.000300     YES
         Displacement       0.003762      0.001200      NO
         Energy change     -0.000001      0.000001     YES


                       Distance Matrix (Angstroms)
             Br(  1)   C (  2)   C (  3)   C (  4)   H (  5)   H (  6)
   C (  2)  3.436364
   C (  3)  2.400000  1.492160
   C (  4)  4.637051  1.545866  2.559892
   H (  5)  4.024808  1.099400  2.105777  2.165326
   H (  6)  3.297985  1.097636  2.126644  2.168331  1.763508
   H (  7)  2.019012  2.210841  1.120177  2.939144  3.086282  2.530190
   H (  8)  3.022405  2.242097  1.090163  3.032769  2.514665  3.101347
   H (  9)  5.457051  2.186751  3.493505  1.095170  2.497884  2.495422
   H ( 10)  4.588809  2.190448  2.847854  1.094854  3.082456  2.529887
   H ( 11)  5.142098  2.193787  2.837907  1.094530  2.526018  3.086089
             H (  7)   H (  8)   H (  9)   H ( 10)
   H (  8)  1.825351
   H (  9)  3.925705  4.006862
   H ( 10)  2.792370  3.421513  1.770406
   H ( 11)  3.312907  2.905321  1.772790  1.770463
 
 Final energy is   -2692.29324527943     


 ******************************
 **  OPTIMIZATION CONVERGED  **
 ******************************

                       Coordinates (Angstroms)
     ATOM                X               Y               Z
      1  Br        2.4823366279   -0.1383828829   -0.8614037788
      2  C        -0.7201607623    0.5120881415    0.2013745010
      3  C         0.4071476552   -0.4604893855    0.3004216976
      4  C        -2.0948517853   -0.1182264263   -0.1189857262
      5  H        -0.7904814271    1.0420369122    1.1620457146
      6  H        -0.4860412987    1.2668982435   -0.5603694663
      7  H         0.6615058045   -0.9860869836   -0.6555307053
      8  H         0.4626064871   -1.1381512433    1.1525686558
      9  H        -2.8717615400    0.6524006701   -0.1630507587
     10  H        -2.0744451700   -0.6306506280   -1.0863067419
     11  H        -2.3830695913   -0.8488304177    0.6433426082

Z-matrix Print:
$molecule
0 3
Br
H  1 2.019012
C  2 1.120177 1 95.439613
H  3 1.090163 2 111.336999 1 -106.304786 0
C  3 1.492160 2 114.880573 1 113.562699 0
H  5 1.097636 3 109.459560 2 -57.611905 0
H  5 1.099400 3 107.728498 2 -173.351016 0
C  5 1.545866 3 114.823536 2 65.390415 0
H  8 1.094530 5 111.223005 3 59.110954 0
H  8 1.094854 5 110.938003 3 -61.033997 0
H  8 1.095170 5 110.626291 3 179.280025 0
$end

PES scan, value:    2.4000 energy: -2692.2932452794
------- Summary of potential scan: ------ 
    2.4000     -2692.2932452794
----------------------------------------- 
Archival summary:
1\1\hpc0242\JobtypUnspecified\ProcedureUnspecified\6-31G**\r137(3)\knomura\WedMar1317:43:502019WedMar1317:43:502019\0\\#,JobtypUnspecified,ProcedureUnspecified,6-31G**,\\0,3\Br\H,1,2.01901\C,2,1.12018,1,95.4396\H,3,1.09016,2,111.337,1,-106.305,0\C,3,1.49216,2,114.881,1,113.563,0\H,5,1.09764,3,109.46,2,-57.6119,0\H,5,1.0994,3,107.728,2,-173.351,0\C,5,1.54587,3,114.824,2,65.3904,0\H,8,1.09453,5,111.223,3,59.111,0\H,8,1.09485,5,110.938,3,-61.034,0\H,8,1.09517,5,110.626,3,179.28,0\\\@

 Total job time:  139.54s(wall), 1576.46s(cpu) 
 Wed Mar 13 17:43:50 2019

        *************************************************************
        *                                                           *
        *  Thank you very much for using Q-Chem.  Have a nice day.  *
        *                                                           *
        *************************************************************


