
Running Job 1 of 1 halogens/Flourine/03/F_1_3.xyz.data/inputs/bond_triplet_2.3.in
qchem halogens/Flourine/03/F_1_3.xyz.data/inputs/bond_triplet_2.3.in_2474.0 /staging/scratch/2868761/qchem2474/ 1
/usr/usc/qchem/5.1.1/exe/qcprog.exe_s halogens/Flourine/03/F_1_3.xyz.data/inputs/bond_triplet_2.3.in_2474.0 /staging/scratch/2868761/qchem2474/
Check license passed

                  Welcome to Q-Chem
     A Quantum Leap Into The Future Of Chemistry


 Q-Chem 5.1, Q-Chem, Inc., Pleasanton, CA (2018)

 Yihan Shao,  Zhengting Gan,  E. Epifanovsky,  A. T. B. Gilbert,  M. Wormit,  
 J. Kussmann,  A. W. Lange,  A. Behn,  Jia Deng,  Xintian Feng,  D. Ghosh,  
 M. Goldey,  P. R. Horn,  L. D. Jacobson,  I. Kaliman,  T. Kus,  A. Landau,  
 Jie Liu,  E. I. Proynov,  R. M. Richard,  R. P. Steele,  E. J. Sundstrom,  
 H. L. Woodcock III,  P. M. Zimmerman,  D. Zuev,  B. Albrecht,  E. Alguire,  
 S. A. Baeppler,  D. Barton,  Z. Benda,  Y. A. Bernard,  E. J. Berquist,  
 K. B. Bravaya,  H. Burton,  D. Casanova,  Chun-Min Chang,  Yunqing Chen,  
 A. Chien,  K. D. Closser,  M. P. Coons,  S. Coriani,  S. Dasgupta,  
 A. L. Dempwolff,  M. Diedenhofen,  Hainam Do,  R. G. Edgar,  Po-Tung Fang,  
 S. Faraji,  S. Fatehi,  Qingguo Feng,  K. D. Fenk,  J. Fosso-Tande,  
 Qinghui Ge,  A. Ghysels,  G. Gidofalvi,  J. Gomes,  J. Gonthier,  A. Gunina,  
 D. Hait,  M. W. D. Hanson-Heine,  P. H. P. Harbach,  A. W. Hauser,  
 J. E. Herr,  E. G. Hohenstein,  Z. C. Holden,  Kerwin Hui,  B. C. Huynh,  
 T.-C. Jagau,  Hyunjun Ji,  B. Kaduk,  K. Khistyaev,  Jaehoon Kim,  
 P. Klunzinger,  K. Koh,  D. Kosenkov,  L. Koulias,  T. Kowalczyk,  
 C. M. Krauter,  A. Kunitsa,  Ka Un Lao,  A. Laurent,  K. V. Lawler,  
 Joonho Lee,  D. Lefrancois,  S. Lehtola,  D. S. Levine,  Yi-Pei Li,  
 You-Sheng Lin,  Fenglai Liu,  E. Livshits,  A. Luenser,  P. Manohar,  
 E. Mansoor,  S. F. Manzer,  Shan-Ping Mao,  Yuezhi Mao,  N. Mardirossian,  
 A. V. Marenich,  T. Markovich,  L. A. Martinez-Martinez,  S. A. Maurer,  
 N. J. Mayhall,  S. C. McKenzie,  J.-M. Mewes,  A. F. Morrison,  
 J. W. Mullinax,  K. Nanda,  T. S. Nguyen-Beck,  R. Olivares-Amaya,  
 J. A. Parkhill,  T. M. Perrine,  F. Plasser,  P. Pokhilko,  S. Prager,  
 A. Prociuk,  E. Ramos,  D. R. Rehn,  F. Rob,  M. Schneider,  N. Sergueev,  
 S. M. Sharada,  S. Sharma,  D. W. Small,  T. Stauch,  T. Stein,  
 Yu-Chuan Su,  A. J. W. Thom,  A. Tkatchenko,  T. Tsuchimochi,  N. M. Tubman,  
 L. Vogt,  M. L. Vidal,  O. Vydrov,  M. A. Watson,  J. Wenzel,  
 M. de Wergifosse,  T. A. Wesolowski,  A. White,  J. Witte,  A. Yamada,  
 Jun Yang,  K. Yao,  S. Yeganeh,  S. R. Yost,  Zhi-Qiang You,  A. Zech,  
 Igor Ying Zhang,  Xing Zhang,  Yan Zhao,  Ying Zhu,  B. R. Brooks,  
 G. K. L. Chan,  C. J. Cramer,  M. S. Gordon,  W. J. Hehre,  A. Klamt,  
 M. W. Schmidt,  C. D. Sherrill,  D. G. Truhlar,  A. Aspuru-Guzik,  R. Baer,  
 A. T. Bell,  N. A. Besley,  Jeng-Da Chai,  A. E. DePrince, III,  
 R. A. DiStasio Jr.,  A. Dreuw,  B. D. Dunietz,  T. R. Furlani,  
 Chao-Ping Hsu,  Yousung Jung,  Jing Kong,  D. S. Lambrecht,  WanZhen Liang,  
 C. Ochsenfeld,  V. A. Rassolov,  L. V. Slipchenko,  J. E. Subotnik,  
 T. Van Voorhis,  J. M. Herbert,  A. I. Krylov,  P. M. W. Gill,  M. Head-Gordon

 Contributors to earlier versions of Q-Chem not listed above: 
 R. D. Adamson,  B. Austin,  J. Baker,  G. J. O. Beran,  K. Brandhorst,  
 S. T. Brown,  E. F. C. Byrd,  A. K. Chakraborty,  C.-L. Cheng,  
 Siu Hung Chien,  D. M. Chipman,  D. L. Crittenden,  H. Dachsel,  
 R. J. Doerksen,  A. D. Dutoi,  L. Fusti-Molnar,  W. A. Goddard III,  
 A. Golubeva-Zadorozhnaya,  S. R. Gwaltney,  G. Hawkins,  A. Heyden,  
 S. Hirata,  G. Kedziora,  F. J. Keil,  C. Kelley,  Jihan Kim,  R. A. King,  
 R. Z. Khaliullin,  P. P. Korambath,  W. Kurlancheek,  A. M. Lee,  M. S. Lee,  
 S. V. Levchenko,  Ching Yeh Lin,  D. Liotard,  R. C. Lochan,  I. Lotan,  
 P. E. Maslen,  N. Nair,  D. P. O'Neill,  D. Neuhauser,  E. Neuscamman,  
 C. M. Oana,  R. Olson,  B. Peters,  R. Peverati,  P. A. Pieniazek,  
 Y. M. Rhee,  J. Ritchie,  M. A. Rohrdanz,  E. Rosta,  N. J. Russ,  
 H. F. Schaefer III,  N. E. Schultz,  N. Shenvi,  A. C. Simmonett,  A. Sodt,  
 D. Stuck,  K. S. Thanthiriwatte,  V. Vanovschi,  Tao Wang,  A. Warshel,  
 C. F. Williams,  Q. Wu,  X. Xu,  W. Zhang

 Please cite Q-Chem as follows:
 Y. Shao et al., Mol. Phys. 113, 184-215 (2015)
 DOI: 10.1080/00268976.2014.952696

 Q-Chem 5.1.1 for Intel X86 EM64T Linux

 Parts of Q-Chem use Armadillo 8.300.2 (Tropical Shenanigans).
 http://arma.sourceforge.net/

 Q-Chem begins on Wed Mar 13 17:41:02 2019  

Host: 
0

     Scratch files written to /staging/scratch/2868761/qchem2474//
 Aug318 |scratch|qcdevops|jenkins|workspace|build_RNUM 6013   
Processing $rem in /usr/usc/qchem/5.1.1/config/preferences.
 MEM_TOTAL  2000 
Input Ideriv = 2
Curr. Ideriv = -1
Max.  Ideriv = 2

Checking the input file for inconsistencies... 	...done.

--------------------------------------------------------------
User input:
--------------------------------------------------------------

$comment
potential surface scanner
$end

$rem
JOBTYPE  PES_SCAN
UNRESTRICTED TRUE
SYM_IGNORE  TRUE
GEOM_OPT_MAX_CYCLES 400
SCF_MAX_CYCLES 400
METHOD   B3LYP
BASIS   6-31G**
PDB_PRINT 2
SCF_CONVERGENCE 6
THRESH 14
SCF_PRINT 1
$end
$molecule
0 3
F 0.282182 1.350136 1.743214
F 0.808392 -1.160421 -1.387417
C -0.341639 0.766010 -0.499473
C 0.711852 -0.230315 -0.392315
C -1.753044 0.533110 -0.058254
H -0.159770 1.638459 -1.131753
H 1.684892 -0.019172 0.048427
H 0.227677 0.423425 1.778595
H -2.381195 0.187654 -0.893977
H -1.819464 -0.233289 0.721543
H -2.206186 1.454805 0.323111
$end
$scan
stre 1 3 2.300000 2.301000 0.100000
$end
--------------------------------------------------------------
 ----------------------------------------------------------------
             Standard Nuclear Orientation (Angstroms)
    I     Atom           X                Y                Z
 ----------------------------------------------------------------
    1      F       0.2821820000     1.3501360000     1.7432140000
    2      F       0.8083920000    -1.1604210000    -1.3874170000
    3      C      -0.3416390000     0.7660100000    -0.4994730000
    4      C       0.7118520000    -0.2303150000    -0.3923150000
    5      C      -1.7530440000     0.5331100000    -0.0582540000
    6      H      -0.1597700000     1.6384590000    -1.1317530000
    7      H       1.6848920000    -0.0191720000     0.0484270000
    8      H       0.2276770000     0.4234250000     1.7785950000
    9      H      -2.3811950000     0.1876540000    -0.8939770000
   10      H      -1.8194640000    -0.2332890000     0.7215430000
   11      H      -2.2061860000     1.4548050000     0.3231110000
 ----------------------------------------------------------------
 Nuclear Repulsion Energy =   173.9822762184 hartrees
 There are       22 alpha and       20 beta electrons
 Requested basis set is 6-31G(d,p)
 There are 38 shells and 105 basis functions

 Total QAlloc Memory Limit   2000 MB
 Mega-Array Size       188 MB
 MEM_STATIC part       192 MB
A total of 1 constraints
  
            1
    1   1.0100000
    2   1.0100000
    3   3.0100000
    4   2.3000000
    5   2.3010000
    6   0.1000000
    7   0.0000000
    8   0.0000000
    9   0.0000000
   10   0.0000000

                       Distance Matrix (Angstroms)
             F (  1)   F (  2)   C (  3)   C (  4)   C (  5)   H (  6)
   F (  2)  4.047301
   C (  3)  2.400000  2.412914
   C (  4)  2.691268  1.365520  1.453957
   C (  5)  2.838127  3.345994  1.496991  2.601947
   H (  6)  2.922993  2.972613  1.092713  2.190619  2.216465
   H (  7)  2.591313  2.032818  2.241324  1.088872  3.483648  2.746515
   H (  8)  0.928986  3.587399  2.372989  2.318329  2.703572  3.177507
   H (  9)  3.924247  3.497750  2.156367  3.161219  1.101066  2.663851
   H ( 10)  2.822758  3.494698  2.161815  2.765547  1.095382  3.113315
   H ( 11)  2.866989  4.342003  2.151190  3.444766  1.095581  2.517574
             H (  7)   H (  8)   H (  9)   H ( 10)
   H (  8)  2.304962
   H (  9)  4.178991  3.742251
   H ( 10)  3.574835  2.395708  1.761431
   H ( 11)  4.169958  3.017593  1.765674  1.777066
 
 A cutoff of  1.0D-14 yielded    715 shell pairs
 There are      5606 function pairs
 
 -------------------------------------------------------
 OpenMP Integral Computing Module                       
 Release: version 1.0, May 2013, Q-Chem Inc. Pittsburgh 
 -------------------------------------------------------
 Integral Job Info:
 Integral job number is                      11
 Integral operator is                         1
 short-range coefficients                     0
 long-range coefficients              100000000
 Omega coefficients                           0
 if combine SR and LR in K                    0
 Integral screening is                        0
 Integral computing path is                   2
 max size of driver memory is            800000
 size of driver memory is                593474
 size of scratch memory is              2361544
 max col of scratch BK array               1296
 max len of scratch array in speh3          155
 max len of scratch index in speh4           18
 max int batch size is                      520
 min int batch size is                       52
 fixed nKL is                                52
 max L of basis functions is                  2
 order of int derivative is                   0
 number of shells is                         38
 number of basis is                         105
 number of cartesian basis is               105
 number of contracted shell pairs           715
 number of primitive shell pairs           2593
 maxK2 (contraction) of shell pair           36
 max number of K2 of shell pair               1
 max number of CS2 of shell pair             64
 max number of PS2 of shell pair            270
 mem total for path MDJ                  519084
 -------------------------------------------------------
 Smallest overlap matrix eigenvalue = 5.14E-03

 Scale SEOQF with 1.000000e-01/1.000000e-01/1.000000e-01

 Standard Electronic Orientation quadrupole field applied
 Nucleus-field energy     =    -0.0000000013 hartrees
 Guess from superposition of atomic densities
 Warning:  Energy on first SCF cycle will be non-variational
 SAD guess density has 42.000000 electrons

 -----------------------------------------------------------------------
  General SCF calculation program by
  Eric Jon Sundstrom, Paul Horn, Yuezhi Mao, Dmitri Zuev, Alec White,
  David Stuck, Shaama M.S., Shane Yost, Joonho Lee, David Small,
  Daniel Levine, Susi Lehtola, Hugh Burton, Evgeny Epifanovsky
 -----------------------------------------------------------------------
 Exchange:     0.2000 Hartree-Fock + 0.0800 Slater + 0.7200 B88
 Correlation:  0.1900 VWN1RPA + 0.8100 LYP
 Using SG-1 standard quadrature grid
 using 12 threads for integral computing
 -------------------------------------------------------
 OpenMP Integral computing Module                
 Release: version 1.0, May 2013, Q-Chem Inc. Pittsburgh 
 -------------------------------------------------------
 -------------------------------------------------------
 OpenMP BLAS3 based DFT computing Module                
 Release: version 1.0, May 2013, Q-Chem Inc. Pittsburgh 
 -------------------------------------------------------
 A unrestricted SCF calculation will be
 performed using DIIS
 SCF converges when DIIS error is below 1.0e-06
 Alpha HF Exchange    Energy =  -3.75284535872853
 Beta HF Exchange     Energy =  -3.75284535872853
 DFT Correlation      Energy =  -1.84413996618311
 DFT Exchange         Energy = -29.60592064279080
 One-Electron (alpha) Energy = -389.28961099148921
 One-Electron (beta)  Energy = -389.28961099148921
 Total Coulomb        Energy = 325.63302158661941
 ---------------------------------------
  Cycle       Energy         DIIS error
 ---------------------------------------
    1    -317.9196755056      2.95e-02  
 Alpha HF Exchange    Energy =  -3.92031790551218
 Beta HF Exchange     Energy =  -3.71166178470935
 DFT Correlation      Energy =  -1.86313340686588
 DFT Exchange         Energy = -30.33299978985509
 One-Electron (alpha) Energy = -405.68720913901291
 One-Electron (beta)  Energy = -379.89709283850169
 Total Coulomb        Energy = 334.04396912121570
    2    -317.3861695261      4.15e-03  
 Alpha HF Exchange    Energy =  -3.83993371193746
 Beta HF Exchange     Energy =  -3.62889746099970
 DFT Correlation      Energy =  -1.83631047667765
 DFT Exchange         Energy = -29.67956292673595
 One-Electron (alpha) Energy = -402.11645050847437
 One-Electron (beta)  Energy = -376.18423198736184
 Total Coulomb        Energy = 325.93239316265863
    3    -317.3707176924      4.81e-03  
 Alpha HF Exchange    Energy =  -3.88377487937221
 Beta HF Exchange     Energy =  -3.67578991712787
 DFT Correlation      Energy =  -1.84881077711017
 DFT Exchange         Energy = -30.03314890890097
 One-Electron (alpha) Energy = -404.05669543986232
 One-Electron (beta)  Energy = -378.07933931897918
 Total Coulomb        Energy = 330.12627522198051
    4    -317.4690078022      4.67e-04  
 Alpha HF Exchange    Energy =  -3.88405532188377
 Beta HF Exchange     Energy =  -3.67342201420359
 DFT Correlation      Energy =  -1.84912205462788
 DFT Exchange         Energy = -30.02733590019497
 One-Electron (alpha) Energy = -404.15980735575448
 One-Electron (beta)  Energy = -378.07880913743298
 Total Coulomb        Energy = 330.22048601717194
    5    -317.4697895498      2.40e-04  
 Alpha HF Exchange    Energy =  -3.88439215069489
 Beta HF Exchange     Energy =  -3.67452529239680
 DFT Correlation      Energy =  -1.84872390360311
 DFT Exchange         Energy = -30.03099518714737
 One-Electron (alpha) Energy = -404.13078274599098
 One-Electron (beta)  Energy = -378.04740744643425
 Total Coulomb        Energy = 330.16448542238140
    6    -317.4700650867      8.24e-05  
 Alpha HF Exchange    Energy =  -3.88412216696224
 Beta HF Exchange     Energy =  -3.67414130021680
 DFT Correlation      Energy =  -1.84862712541522
 DFT Exchange         Energy = -30.02839137559691
 One-Electron (alpha) Energy = -404.12625197943902
 One-Electron (beta)  Energy = -378.03184204844234
 Total Coulomb        Energy = 330.14100804434628
    7    -317.4700917346      2.93e-05  
 Alpha HF Exchange    Energy =  -3.88425725137589
 Beta HF Exchange     Energy =  -3.67426501411032
 DFT Correlation      Energy =  -1.84863178444951
 DFT Exchange         Energy = -30.02932705478448
 One-Electron (alpha) Energy = -404.13462634021045
 One-Electron (beta)  Energy = -378.03457806943590
 Total Coulomb        Energy = 330.15331362296024
    8    -317.4700956742      8.33e-06  
 Alpha HF Exchange    Energy =  -3.88427606443411
 Beta HF Exchange     Energy =  -3.67427028251596
 DFT Correlation      Energy =  -1.84862207840238
 DFT Exchange         Energy = -30.02940434020115
 One-Electron (alpha) Energy = -404.13593466193453
 One-Electron (beta)  Energy = -378.03344307493467
 Total Coulomb        Energy = 330.15357821480086
    9    -317.4700960705      4.27e-06  
 Alpha HF Exchange    Energy =  -3.88425796398967
 Beta HF Exchange     Energy =  -3.67426549636289
 DFT Correlation      Energy =  -1.84861501725950
 DFT Exchange         Energy = -30.02930152280694
 One-Electron (alpha) Energy = -404.13528620230505
 One-Electron (beta)  Energy = -378.03251164312064
 Total Coulomb        Energy = 330.15186545443146
   10    -317.4700961743      8.03e-07  Convergence criterion met
 ---------------------------------------
 SCF time:   CPU 24.57s  wall 2.00s 
<S^2> =          2.004484664
 Alpha HF Exchange    Energy =  -3.88425796398967
 Beta HF Exchange     Energy =  -3.67426549636289
 DFT Correlation      Energy =  -1.84861501725950
 DFT Exchange         Energy = -30.02930152280694
 One-Electron (alpha) Energy = -404.13528620230505
 One-Electron (beta)  Energy = -378.03251164312064
 Total Coulomb        Energy = 330.15186545443146
 Nuclear repulsion Energy = 173.98227621716063
 SCF   energy in the final basis set =     -317.4700961743
 Total energy in the final basis set =     -317.4700961743
 
 --------------------------------------------------------------
 
                    Orbital Energies (a.u.)
 --------------------------------------------------------------
 
 Alpha MOs
 -- Occupied --
-24.697 -24.682 -10.266 -10.205 -10.190  -1.205  -1.187  -0.791
 -0.693  -0.586  -0.538  -0.506  -0.485  -0.458  -0.429  -0.413
 -0.397  -0.387  -0.383  -0.350  -0.213  -0.194
 -- Virtual --
  0.067   0.123   0.131   0.144   0.164   0.182   0.188   0.257
  0.317   0.504   0.512   0.541   0.559   0.576   0.612   0.625
  0.719   0.748   0.782   0.813   0.853   0.870   0.874   0.899
  0.921   0.973   1.099   1.137   1.174   1.234   1.304   1.322
  1.363   1.380   1.457   1.508   1.529   1.580   1.610   1.678
  1.692   1.721   1.803   1.823   1.829   1.861   1.909   1.920
  1.976   2.014   2.039   2.086   2.102   2.128   2.136   2.244
  2.312   2.370   2.399   2.446   2.515   2.552   2.611   2.636
  2.662   2.712   2.738   2.766   2.846   2.861   2.992   3.024
  3.179   3.347   3.375   3.444   3.448   3.683   3.809   4.206
  4.318   4.448   4.631
 
 Beta MOs
 -- Occupied --
-24.691 -24.680 -10.253 -10.191 -10.190  -1.190  -1.183  -0.762
 -0.671  -0.562  -0.534  -0.490  -0.469  -0.428  -0.414  -0.402
 -0.391  -0.381  -0.373  -0.340
 -- Virtual --
 -0.066  -0.042   0.078   0.130   0.142   0.162   0.170   0.189
  0.217   0.272   0.340   0.515   0.529   0.561   0.586   0.590
  0.650   0.663   0.735   0.758   0.789   0.823   0.860   0.880
  0.881   0.911   0.928   0.993   1.107   1.142   1.186   1.246
  1.312   1.341   1.368   1.387   1.484   1.518   1.553   1.592
  1.613   1.695   1.713   1.735   1.822   1.836   1.844   1.874
  1.924   1.932   2.001   2.043   2.049   2.094   2.112   2.135
  2.151   2.264   2.328   2.384   2.424   2.466   2.519   2.581
  2.632   2.655   2.675   2.713   2.742   2.777   2.853   2.870
  3.003   3.035   3.184   3.359   3.386   3.448   3.456   3.684
  3.811   4.223   4.339   4.462   4.653
 --------------------------------------------------------------
 
          Ground-State Mulliken Net Atomic Charges

     Atom                 Charge (a.u.)    Spin (a.u.)
  --------------------------------------------------------
      1 F                    -0.319062       0.029792
      2 F                    -0.264496       0.118729
      3 C                    -0.097311       0.930830
      4 C                     0.096999       0.881391
      5 C                    -0.326624      -0.051407
      6 H                     0.107168       0.007479
      7 H                     0.102416      -0.017069
      8 H                     0.355925       0.015025
      9 H                     0.123519       0.049634
     10 H                     0.094077       0.009816
     11 H                     0.127388       0.025781
  --------------------------------------------------------
  Sum of atomic charges =    -0.000000
  Sum of spin   charges =     2.000000

 -----------------------------------------------------------------
                    Cartesian Multipole Moments
 -----------------------------------------------------------------
    Charge (ESU x 10^10)
                -0.0000
    Dipole Moment (Debye)
         X      -0.5161      Y      -0.1554      Z       0.7384
       Tot       0.9142
    Quadrupole Moments (Debye-Ang)
        XX     -27.6940     XY      -0.1166     YY     -32.2848
        XZ       0.7850     YZ      -4.4962     ZZ     -30.1543
    Octopole Moments (Debye-Ang^2)
       XXX      16.4460    XXY      -7.8098    XYY       2.8358
       YYY     -26.5773    XXZ       2.8017    XYZ      -1.9679
       YYZ      -0.9707    XZZ       3.7860    YZZ     -11.8201
       ZZZ      10.8296
    Hexadecapole Moments (Debye-Ang^3)
      XXXX    -230.1223   XXXY      34.9593   XXYY     -66.4681
      XYYY      34.7412   YYYY    -166.1965   XXXZ      10.0495
      XXYZ     -16.6743   XYYZ       1.5829   YYYZ     -56.5508
      XXZZ     -73.1950   XYZZ      12.6379   YYZZ     -69.4423
      XZZZ       8.9827   YZZZ     -60.5997   ZZZZ    -202.0819
 -----------------------------------------------------------------
 Calculating analytic gradient of the SCF energy
 Gradient of SCF Energy
            1           2           3           4           5           6
    1  -0.0044084   0.0000448   0.0045008  -0.0000571  -0.0000861  -0.0000133
    2  -0.0042097   0.0000248   0.0042552  -0.0000584  -0.0000591  -0.0000080
    3  -0.0160319  -0.0000658   0.0160816   0.0000258  -0.0000432  -0.0000240
            7           8           9          10          11
    1   0.0000335  -0.0000830   0.0000178   0.0000665  -0.0000153
    2   0.0000796  -0.0000590  -0.0000143   0.0000665  -0.0000177
    3  -0.0000583   0.0001293  -0.0000101  -0.0000009  -0.0000025
 Max gradient component =       1.608E-02
 RMS gradient           =       4.233E-03
 Gradient time:  CPU 8.28 s  wall 0.75 s
 Geometry Optimization Parameters
   NAtoms,    NIC,     NZ,  NCons,   NDum,   NFix, NCnnct, MaxDiis
       11     136       0       1       0       0       0       0


** CONSTRAINED OPTIMIZATION IN DELOCALIZED INTERNAL COORDINATES **
   Searching for a Minimum

   Optimization Cycle:   1

                       Coordinates (Angstroms)
     ATOM                X               Y               Z
      1  F         0.2821820000    1.3501360000    1.7432140000
      2  F         0.8083920000   -1.1604210000   -1.3874170000
      3  C        -0.3416390000    0.7660100000   -0.4994730000
      4  C         0.7118520000   -0.2303150000   -0.3923150000
      5  C        -1.7530440000    0.5331100000   -0.0582540000
      6  H        -0.1597700000    1.6384590000   -1.1317530000
      7  H         1.6848920000   -0.0191720000    0.0484270000
      8  H         0.2276770000    0.4234250000    1.7785950000
      9  H        -2.3811950000    0.1876540000   -0.8939770000
     10  H        -1.8194640000   -0.2332890000    0.7215430000
     11  H        -2.2061860000    1.4548050000    0.3231110000
   Point Group: c1    Number of degrees of freedom:    27


   Energy is   -317.470096174

              Constraints and their Current Values
                                        Value     Constraint
   Distance(Angs):        1   3             2.400000     2.300000

 Attempting to Generate Delocalized Internal Coordinates

   Using Lagrange Multiplier Algorithm


 28 Hessian modes will be used to form the next step
  Hessian Eigenvalues:
    -0.979115    0.039040    0.042779    0.047683    0.051145    0.056291
     0.059729    0.064300    0.065919    0.069595    0.071989    0.078071
     0.080261    0.090563    0.098997    0.122635    0.125519    0.132673
     0.275094    0.283379    0.293788    0.314821    0.335645    0.341755
     0.345010    0.491027    0.518472    1.021330

 Minimum Search - Taking P-RFO Step
 Searching for Lamda that Maximizes Along the Constraint modes Only
 Value Taken    Lamda =   0.02159505
 Searching for Lamda that Minimizes Along All other modes
 Value Taken    Lamda =  -0.01390383
 Step Taken.  Stepsize is  0.185586

                             Maximum     Tolerance    Cnvgd?
         Gradient            0.188973       0.000300      NO
         Displacement        0.185579       0.001200      NO
         Energy change     *********       0.000001      NO


 New Cartesian Coordinates Obtained by Inverse Iteration

 Displacement from previous Coordinates is:  0.184336
 ----------------------------------------------------------------
             Standard Nuclear Orientation (Angstroms)
    I     Atom           X                Y                Z
 ----------------------------------------------------------------
    1      F       0.2574071349     1.3315802482     1.6708451382
    2      F       0.8309416031    -1.1650394274    -1.3806848988
    3      C      -0.3372505882     0.7670843607    -0.4799666928
    4      C       0.7182845351    -0.2329041858    -0.3892361401
    5      C      -1.7523500886     0.5347040314    -0.0452504169
    6      H      -0.1521185157     1.6423740726    -1.1073494601
    7      H       1.6870578289    -0.0154643821     0.0468100162
    8      H       0.2150837475     0.4263682885     1.7553712456
    9      H      -2.3792623961     0.1968297416    -0.8849987530
   10      H      -1.8343736636    -0.2333987048     0.7277557039
   11      H      -2.1997225973     1.4582679570     0.3384052577
 ----------------------------------------------------------------
 Nuclear Repulsion Energy =   175.3373396915 hartrees
 There are       22 alpha and       20 beta electrons

                       Distance Matrix (Angstroms)
             F (  1)   F (  2)   C (  3)   C (  4)   C (  5)   H (  6)
   F (  2)  3.984205
   C (  3)  2.301796  2.430858
   C (  4)  2.627538  1.365481  1.456833
   C (  5)  2.760275  3.368369  1.498494  2.609901
   H (  6)  2.825362  2.987087  1.092710  2.188597  2.217144
   H (  7)  2.548710  2.022919  2.233316  1.084407  3.484349  2.731864
   H (  8)  0.910134  3.570253  2.327638  2.299389  2.669227  3.131881
   H (  9)  3.843439  3.522187  2.158484  3.166267  1.101070  2.664434
   H ( 10)  2.777431  3.523831  2.168164  2.786348  1.092817  3.117069
   H ( 11)  2.798023  4.361415  2.148551  3.450260  1.095584  2.513321
             H (  7)   H (  8)   H (  9)   H ( 10)
   H (  8)  2.298066
   H (  9)  4.177116  3.708756
   H ( 10)  3.593280  2.385699  1.755841
   H ( 11)  4.167011  2.983940  1.766403  1.773925
 
 Applying Cartesian multipole field
    Component          Value
    ---------          -----
     (2,0,0)        1.00000E-11
     (0,2,0)        2.00000E-11
     (0,0,2)       -3.00000E-11
 Nucleus-field energy     =    -0.0000000010 hartrees
 Requested basis set is 6-31G(d,p)
 There are 38 shells and 105 basis functions
 A cutoff of  1.0D-14 yielded    717 shell pairs
 There are      5619 function pairs
 Smallest overlap matrix eigenvalue = 5.06E-03
 Guess from superposition of atomic densities
 Warning:  Energy on first SCF cycle will be non-variational
 SAD guess density has 42.000000 electrons

 -----------------------------------------------------------------------
  General SCF calculation program by
  Eric Jon Sundstrom, Paul Horn, Yuezhi Mao, Dmitri Zuev, Alec White,
  David Stuck, Shaama M.S., Shane Yost, Joonho Lee, David Small,
  Daniel Levine, Susi Lehtola, Hugh Burton, Evgeny Epifanovsky
 -----------------------------------------------------------------------
 Exchange:     0.2000 Hartree-Fock + 0.0800 Slater + 0.7200 B88
 Correlation:  0.1900 VWN1RPA + 0.8100 LYP
 Using SG-1 standard quadrature grid
 using 12 threads for integral computing
 -------------------------------------------------------
 OpenMP Integral computing Module                
 Release: version 1.0, May 2013, Q-Chem Inc. Pittsburgh 
 -------------------------------------------------------
 -------------------------------------------------------
 OpenMP BLAS3 based DFT computing Module                
 Release: version 1.0, May 2013, Q-Chem Inc. Pittsburgh 
 -------------------------------------------------------
 A unrestricted SCF calculation will be
 performed using DIIS
 SCF converges when DIIS error is below 1.0e-06
 Alpha HF Exchange    Energy =  -3.75550131485469
 Beta HF Exchange     Energy =  -3.75550131485469
 DFT Correlation      Energy =  -1.84544020863724
 DFT Exchange         Energy = -29.61192788085937
 One-Electron (alpha) Energy = -390.62049494252142
 One-Electron (beta)  Energy = -390.62049494252142
 Total Coulomb        Energy = 326.93280137188196
 ---------------------------------------
  Cycle       Energy         DIIS error
 ---------------------------------------
    1    -317.9392195419      2.97e-02  
 Alpha HF Exchange    Energy =  -3.92218740534299
 Beta HF Exchange     Energy =  -3.71190563300463
 DFT Correlation      Energy =  -1.86435731703852
 DFT Exchange         Energy = -30.34109765211872
 One-Electron (alpha) Energy = -407.10680858751039
 One-Electron (beta)  Energy = -381.17147399663128
 Total Coulomb        Energy = 335.39790274472563
    2    -317.3825881564      4.13e-03  
 Alpha HF Exchange    Energy =  -3.84267995708085
 Beta HF Exchange     Energy =  -3.63044650254093
 DFT Correlation      Energy =  -1.83779926192277
 DFT Exchange         Energy = -29.69510640516013
 One-Electron (alpha) Energy = -403.53591570522838
 One-Electron (beta)  Energy = -377.46473001846692
 Total Coulomb        Energy = 327.30010730212052
    3    -317.3692308578      4.72e-03  
 Alpha HF Exchange    Energy =  -3.88588858856328
 Beta HF Exchange     Energy =  -3.67650199120960
 DFT Correlation      Energy =  -1.85014904001005
 DFT Exchange         Energy = -30.04331069406215
 One-Electron (alpha) Energy = -405.47637113302522
 One-Electron (beta)  Energy = -379.35402105613127
 Total Coulomb        Energy = 331.48415458389115
    4    -317.4647482286      4.58e-04  
 Alpha HF Exchange    Energy =  -3.88614239804998
 Beta HF Exchange     Energy =  -3.67410553703575
 DFT Correlation      Energy =  -1.85042231769602
 DFT Exchange         Energy = -30.03722580255571
 One-Electron (alpha) Energy = -405.57413182455429
 One-Electron (beta)  Energy = -379.34794729918889
 Total Coulomb        Energy = 331.56713396613731
    5    -317.4655015224      2.36e-04  
 Alpha HF Exchange    Energy =  -3.88644444713793
 Beta HF Exchange     Energy =  -3.67520380411550
 DFT Correlation      Energy =  -1.85002221480471
 DFT Exchange         Energy = -30.04072048357493
 One-Electron (alpha) Energy = -405.54373806777272
 One-Electron (beta)  Energy = -379.31592387785287
 Total Coulomb        Energy = 331.50894572931730
    6    -317.4657674754      8.26e-05  
 Alpha HF Exchange    Energy =  -3.88617340080962
 Beta HF Exchange     Energy =  -3.67482086275938
 DFT Correlation      Energy =  -1.84992787012297
 DFT Exchange         Energy = -30.03811780058581
 One-Electron (alpha) Energy = -405.53976487953935
 One-Electron (beta)  Energy = -379.30096714575734
 Total Coulomb        Energy = 331.48663783701312
    7    -317.4657944320      2.88e-05  
 Alpha HF Exchange    Energy =  -3.88630918206162
 Beta HF Exchange     Energy =  -3.67494193222816
 DFT Correlation      Energy =  -1.84993319656621
 DFT Exchange         Energy = -30.03905048788375
 One-Electron (alpha) Energy = -405.54820464488222
 One-Electron (beta)  Energy = -379.30365305573167
 Total Coulomb        Energy = 331.49895452164481
    8    -317.4657982872      8.15e-06  
 Alpha HF Exchange    Energy =  -3.88632492841098
 Beta HF Exchange     Energy =  -3.67494950609970
 DFT Correlation      Energy =  -1.84992252383694
 DFT Exchange         Energy = -30.03912081618838
 One-Electron (alpha) Energy = -405.54929761527541
 One-Electron (beta)  Energy = -379.30246484639758
 Total Coulomb        Energy = 331.49894187973302
    9    -317.4657986660      4.25e-06  
 Alpha HF Exchange    Energy =  -3.88630727235281
 Beta HF Exchange     Energy =  -3.67494461731099
 DFT Correlation      Energy =  -1.84991602596405
 DFT Exchange         Energy = -30.03902080394859
 One-Electron (alpha) Energy = -405.54870388901355
 One-Electron (beta)  Energy = -379.30160068380434
 Total Coulomb        Energy = 331.49735483579497
   10    -317.4657987661      8.20e-07  Convergence criterion met
 ---------------------------------------
 SCF time:   CPU 24.05s  wall 2.00s 
<S^2> =          2.004475579
 Alpha HF Exchange    Energy =  -3.88630727235281
 Beta HF Exchange     Energy =  -3.67494461731099
 DFT Correlation      Energy =  -1.84991602596405
 DFT Exchange         Energy = -30.03902080394859
 One-Electron (alpha) Energy = -405.54870388901355
 One-Electron (beta)  Energy = -379.30160068380434
 Total Coulomb        Energy = 331.49735483579497
 Nuclear repulsion Energy = 175.33733969051499
 SCF   energy in the final basis set =     -317.4657987661
 Total energy in the final basis set =     -317.4657987661
 
 --------------------------------------------------------------
 
                    Orbital Energies (a.u.)
 --------------------------------------------------------------
 
 Alpha MOs
 -- Occupied --
-24.696 -24.685 -10.263 -10.203 -10.188  -1.203  -1.198  -0.789
 -0.692  -0.585  -0.545  -0.505  -0.483  -0.457  -0.432  -0.412
 -0.402  -0.388  -0.382  -0.348  -0.210  -0.189
 -- Virtual --
  0.072   0.125   0.134   0.145   0.165   0.183   0.190   0.258
  0.317   0.503   0.514   0.542   0.560   0.579   0.614   0.630
  0.720   0.750   0.790   0.819   0.855   0.876   0.877   0.902
  0.923   0.981   1.100   1.143   1.177   1.237   1.308   1.326
  1.364   1.385   1.459   1.512   1.531   1.584   1.610   1.683
  1.695   1.732   1.802   1.826   1.831   1.864   1.913   1.922
  1.989   2.027   2.041   2.093   2.115   2.137   2.153   2.247
  2.318   2.373   2.398   2.449   2.544   2.565   2.616   2.638
  2.671   2.734   2.752   2.778   2.848   2.865   2.996   3.027
  3.182   3.356   3.379   3.448   3.454   3.708   3.847   4.210
  4.344   4.458   4.636
 
 Beta MOs
 -- Occupied --
-24.690 -24.683 -10.250 -10.189 -10.188  -1.194  -1.189  -0.760
 -0.670  -0.561  -0.541  -0.489  -0.467  -0.429  -0.416  -0.402
 -0.393  -0.381  -0.372  -0.338
 -- Virtual --
 -0.064  -0.037   0.082   0.132   0.144   0.164   0.172   0.191
  0.219   0.273   0.340   0.516   0.530   0.563   0.589   0.590
  0.651   0.669   0.735   0.761   0.798   0.829   0.862   0.884
  0.885   0.915   0.929   1.001   1.108   1.148   1.189   1.250
  1.319   1.342   1.370   1.392   1.486   1.521   1.555   1.597
  1.613   1.696   1.719   1.745   1.821   1.839   1.846   1.876
  1.929   1.934   2.027   2.044   2.050   2.100   2.126   2.150
  2.162   2.269   2.333   2.388   2.422   2.469   2.554   2.587
  2.638   2.654   2.685   2.735   2.757   2.787   2.855   2.875
  3.007   3.039   3.187   3.367   3.390   3.452   3.462   3.710
  3.850   4.227   4.364   4.472   4.659
 --------------------------------------------------------------
 
          Ground-State Mulliken Net Atomic Charges

     Atom                 Charge (a.u.)    Spin (a.u.)
  --------------------------------------------------------
      1 F                    -0.302290       0.034786
      2 F                    -0.264839       0.117534
      3 C                    -0.099589       0.927699
      4 C                     0.096920       0.882707
      5 C                    -0.324753      -0.050867
      6 H                     0.105470       0.007657
      7 H                     0.099594      -0.017388
      8 H                     0.349396       0.015648
      9 H                     0.121582       0.047404
     10 H                     0.093054       0.009892
     11 H                     0.125456       0.024927
  --------------------------------------------------------
  Sum of atomic charges =    -0.000000
  Sum of spin   charges =     2.000000

 -----------------------------------------------------------------
                    Cartesian Multipole Moments
 -----------------------------------------------------------------
    Charge (ESU x 10^10)
                -0.0000
    Dipole Moment (Debye)
         X      -0.4867      Y      -0.0682      Z       0.9214
       Tot       1.0442
    Quadrupole Moments (Debye-Ang)
        XX     -27.8260     XY       0.0215     YY     -32.1825
        XZ       0.8419     YZ      -4.2106     ZZ     -29.7926
    Octopole Moments (Debye-Ang^2)
       XXX      16.4749    XXY      -7.7176    XYY       2.9027
       YYY     -26.0728    XXZ       3.0693    XYZ      -1.8765
       YYZ      -0.4247    XZZ       3.9289    YZZ     -11.1163
       ZZZ      12.2517
    Hexadecapole Moments (Debye-Ang^3)
      XXXX    -231.8244   XXXY      36.3926   XXYY     -66.6301
      XYYY      36.0223   YYYY    -165.1489   XXXZ      11.9809
      XXYZ     -16.1575   XYYZ       2.4151   YYYZ     -54.5742
      XXZZ     -71.8545   XYZZ      13.3239   YYZZ     -67.0686
      XZZZ      11.3427   YZZZ     -57.4606   ZZZZ    -190.8314
 -----------------------------------------------------------------
 Calculating analytic gradient of the SCF energy
 Gradient of SCF Energy
            1           2           3           4           5           6
    1  -0.0073102   0.0017499   0.0051035   0.0023143   0.0001185   0.0003532
    2  -0.0293929  -0.0006681   0.0085840  -0.0001370  -0.0013968  -0.0002142
    3  -0.0205061   0.0007610   0.0224724   0.0003935   0.0022914  -0.0001890
            7           8           9          10          11
    1  -0.0027033   0.0008939  -0.0000219  -0.0007885   0.0002907
    2  -0.0005543   0.0226985  -0.0003078   0.0012917   0.0000970
    3  -0.0017276  -0.0022913   0.0001041  -0.0013445   0.0000360
 Max gradient component =       2.939E-02
 RMS gradient           =       8.697E-03
 Gradient time:  CPU 8.27 s  wall 0.76 s
 Geometry Optimization Parameters
   NAtoms,    NIC,     NZ,  NCons,   NDum,   NFix, NCnnct, MaxDiis
       11     136       0       1       0       0       0       0

 Cartesian Hessian Update
 Hessian Updated using BFGS Update


** CONSTRAINED OPTIMIZATION IN DELOCALIZED INTERNAL COORDINATES **
   Searching for a Minimum

   Optimization Cycle:   2

                       Coordinates (Angstroms)
     ATOM                X               Y               Z
      1  F         0.2574071349    1.3315802482    1.6708451382
      2  F         0.8309416031   -1.1650394274   -1.3806848988
      3  C        -0.3372505882    0.7670843607   -0.4799666928
      4  C         0.7182845351   -0.2329041858   -0.3892361401
      5  C        -1.7523500886    0.5347040314   -0.0452504169
      6  H        -0.1521185157    1.6423740726   -1.1073494601
      7  H         1.6870578289   -0.0154643821    0.0468100162
      8  H         0.2150837475    0.4263682885    1.7553712456
      9  H        -2.3792623961    0.1968297416   -0.8849987530
     10  H        -1.8343736636   -0.2333987048    0.7277557039
     11  H        -2.1997225973    1.4582679570    0.3384052577
   Point Group: c1    Number of degrees of freedom:    27


   Energy is   -317.465798766

              Constraints and their Current Values
                                        Value     Constraint
   Distance(Angs):        1   3             2.301796     2.300000
 Hessian Updated using BFGS Update

   Using Lagrange Multiplier Algorithm


 28 Hessian modes will be used to form the next step
  Hessian Eigenvalues:
    -0.970544    0.039042    0.042779    0.047684    0.051157    0.056424
     0.059730    0.064350    0.065928    0.069802    0.072059    0.078071
     0.080298    0.090582    0.099068    0.122650    0.125614    0.133277
     0.275124    0.284234    0.297433    0.315681    0.335645    0.341755
     0.345010    0.518471    0.652731    1.050531

 Minimum Search - Taking P-RFO Step
 Searching for Lamda that Maximizes Along the Constraint modes Only
 Value Taken    Lamda =   0.00003057
 Searching for Lamda that Minimizes Along All other modes
 Value Taken    Lamda =  -0.00067733
 Step Taken.  Stepsize is  0.036587

                             Maximum     Tolerance    Cnvgd?
         Gradient            0.012888       0.000300      NO
         Displacement        0.022184       0.001200      NO
         Energy change      0.004297       0.000001      NO


 New Cartesian Coordinates Obtained by Inverse Iteration

 Displacement from previous Coordinates is:  0.028455
 ----------------------------------------------------------------
             Standard Nuclear Orientation (Angstroms)
    I     Atom           X                Y                Z
 ----------------------------------------------------------------
    1      F       0.2586018537     1.3404743980     1.6681302809
    2      F       0.8243421612    -1.1623359620    -1.3826348725
    3      C      -0.3363973938     0.7667826172    -0.4782286685
    4      C       0.7162888452    -0.2333005465    -0.3878433005
    5      C      -1.7515922307     0.5342628525    -0.0462876899
    6      H      -0.1518613870     1.6425284559    -1.1051606398
    7      H       1.6882437639    -0.0176577512     0.0500291274
    8      H       0.2162112815     0.4222121716     1.7557736197
    9      H      -2.3770230999     0.1969858429    -0.8873531144
   10      H      -1.8316104877    -0.2360665392     0.7276778387
   11      H      -2.2015063065     1.4565164606     0.3375984190
 ----------------------------------------------------------------
 Nuclear Repulsion Energy =   175.3187669120 hartrees
 There are       22 alpha and       20 beta electrons

                       Distance Matrix (Angstroms)
             F (  1)   F (  2)   C (  3)   C (  4)   C (  5)   H (  6)
   F (  2)  3.986388
   C (  3)  2.300001  2.426266
   C (  4)  2.629310  1.365428  1.454814
   C (  5)  2.762261  3.361504  1.497803  2.606962
   H (  6)  2.819727  2.982822  1.092716  2.187913  2.215537
   H (  7)  2.550814  2.027101  2.234631  1.087626  3.485164  2.734350
   H (  8)  0.923409  3.567944  2.326988  2.296708  2.670624  3.132027
   H (  9)  3.845072  3.513090  2.157824  3.162789  1.101050  2.662401
   H ( 10)  2.781891  3.516458  2.166929  2.781400  1.094912  3.116083
   H ( 11)  2.799270  4.355841  2.149404  3.448953  1.095602  2.513404
             H (  7)   H (  8)   H (  9)   H ( 10)
   H (  8)  2.295633
   H (  9)  4.177458  3.709678
   H ( 10)  3.591140  2.384090  1.758788
   H ( 11)  4.169657  2.987702  1.765709  1.775900
 
 Applying Cartesian multipole field
    Component          Value
    ---------          -----
     (2,0,0)        1.00000E-11
     (0,2,0)        2.00000E-11
     (0,0,2)       -3.00000E-11
 Nucleus-field energy     =    -0.0000000010 hartrees
 Requested basis set is 6-31G(d,p)
 There are 38 shells and 105 basis functions
 A cutoff of  1.0D-14 yielded    717 shell pairs
 There are      5619 function pairs
 Smallest overlap matrix eigenvalue = 5.05E-03
 Guess from superposition of atomic densities
 Warning:  Energy on first SCF cycle will be non-variational
 SAD guess density has 42.000000 electrons

 -----------------------------------------------------------------------
  General SCF calculation program by
  Eric Jon Sundstrom, Paul Horn, Yuezhi Mao, Dmitri Zuev, Alec White,
  David Stuck, Shaama M.S., Shane Yost, Joonho Lee, David Small,
  Daniel Levine, Susi Lehtola, Hugh Burton, Evgeny Epifanovsky
 -----------------------------------------------------------------------
 Exchange:     0.2000 Hartree-Fock + 0.0800 Slater + 0.7200 B88
 Correlation:  0.1900 VWN1RPA + 0.8100 LYP
 Using SG-1 standard quadrature grid
 using 12 threads for integral computing
 -------------------------------------------------------
 OpenMP Integral computing Module                
 Release: version 1.0, May 2013, Q-Chem Inc. Pittsburgh 
 -------------------------------------------------------
 -------------------------------------------------------
 OpenMP BLAS3 based DFT computing Module                
 Release: version 1.0, May 2013, Q-Chem Inc. Pittsburgh 
 -------------------------------------------------------
 A unrestricted SCF calculation will be
 performed using DIIS
 SCF converges when DIIS error is below 1.0e-06
 Alpha HF Exchange    Energy =  -3.75449559599140
 Beta HF Exchange     Energy =  -3.75449559599140
 DFT Correlation      Energy =  -1.84527751729818
 DFT Exchange         Energy = -29.60930313804349
 One-Electron (alpha) Energy = -390.61893773575412
 One-Electron (beta)  Energy = -390.61893773575412
 Total Coulomb        Energy = 326.95039657446279
 ---------------------------------------
  Cycle       Energy         DIIS error
 ---------------------------------------
    1    -317.9322838334      2.96e-02  
 Alpha HF Exchange    Energy =  -3.92137626890996
 Beta HF Exchange     Energy =  -3.71092363170232
 DFT Correlation      Energy =  -1.86420951323112
 DFT Exchange         Energy = -30.33512340598586
 One-Electron (alpha) Energy = -407.10590119369920
 One-Electron (beta)  Energy = -381.16227052396340
 Total Coulomb        Energy = 335.39845030432429
    2    -317.3825873222      4.13e-03  
 Alpha HF Exchange    Energy =  -3.84162381524922
 Beta HF Exchange     Energy =  -3.62922521529878
 DFT Correlation      Energy =  -1.83753853583006
 DFT Exchange         Energy = -29.68760478088621
 One-Electron (alpha) Energy = -403.52096455232294
 One-Electron (beta)  Energy = -377.44093572561962
 Total Coulomb        Energy = 327.27084301143094
    3    -317.3682827028      4.75e-03  
 Alpha HF Exchange    Energy =  -3.88509134814909
 Beta HF Exchange     Energy =  -3.67557935148728
 DFT Correlation      Energy =  -1.84996529476255
 DFT Exchange         Energy = -30.03775667919328
 One-Electron (alpha) Energy = -405.47232949143290
 One-Electron (beta)  Energy = -379.34187058468967
 Total Coulomb        Energy = 331.47876657237310
    4    -317.4650592663      4.68e-04  
 Alpha HF Exchange    Energy =  -3.88534157518531
 Beta HF Exchange     Energy =  -3.67315978751241
 DFT Correlation      Energy =  -1.85024895003195
 DFT Exchange         Energy = -30.03159112741422
 One-Electron (alpha) Energy = -405.57206221824509
 One-Electron (beta)  Energy = -379.33689174016621
 Total Coulomb        Energy = 331.56467905834711
    5    -317.4658494292      2.36e-04  
 Alpha HF Exchange    Energy =  -3.88565023680345
 Beta HF Exchange     Energy =  -3.67425272894536
 DFT Correlation      Energy =  -1.84984306244923
 DFT Exchange         Energy = -30.03507623614685
 One-Electron (alpha) Energy = -405.54141539983749
 One-Electron (beta)  Energy = -379.30395757984741
 Total Coulomb        Energy = 331.50530976775241
    6    -317.4661185653      8.16e-05  
 Alpha HF Exchange    Energy =  -3.88537981753201
 Beta HF Exchange     Energy =  -3.67386698682846
 DFT Correlation      Energy =  -1.84975033191255
 DFT Exchange         Energy = -30.03246988813150
 One-Electron (alpha) Energy = -405.53776287397534
 One-Electron (beta)  Energy = -379.28912677473454
 Total Coulomb        Energy = 331.48344466441830
    7    -317.4661450977      2.95e-05  
 Alpha HF Exchange    Energy =  -3.88551758681667
 Beta HF Exchange     Energy =  -3.67399422709602
 DFT Correlation      Energy =  -1.84975440862133
 DFT Exchange         Energy = -30.03342612576439
 One-Electron (alpha) Energy = -405.54606133035867
 One-Electron (beta)  Energy = -379.29174940237652
 Total Coulomb        Energy = 331.49558709289954
    8    -317.4661490771      8.48e-06  
 Alpha HF Exchange    Energy =  -3.88553486425736
 Beta HF Exchange     Energy =  -3.67400035637644
 DFT Correlation      Energy =  -1.84974439650609
 DFT Exchange         Energy = -30.03349882464189
 One-Electron (alpha) Energy = -405.54730562669755
 One-Electron (beta)  Energy = -379.29060504054905
 Total Coulomb        Energy = 331.49577272162799
    9    -317.4661494764      4.36e-06  
 Alpha HF Exchange    Energy =  -3.88551681312334
 Beta HF Exchange     Energy =  -3.67399567225955
 DFT Correlation      Energy =  -1.84973737089252
 DFT Exchange         Energy = -30.03339653409527
 One-Electron (alpha) Energy = -405.54666954230987
 One-Electron (beta)  Energy = -379.28967660690972
 Total Coulomb        Energy = 331.49407604581882
   10    -317.4661495828      8.22e-07  Convergence criterion met
 ---------------------------------------
 SCF time:   CPU 24.88s  wall 2.00s 
<S^2> =          2.004477201
 Alpha HF Exchange    Energy =  -3.88551681312334
 Beta HF Exchange     Energy =  -3.67399567225955
 DFT Correlation      Energy =  -1.84973737089252
 DFT Exchange         Energy = -30.03339653409527
 One-Electron (alpha) Energy = -405.54666954230987
 One-Electron (beta)  Energy = -379.28967660690972
 Total Coulomb        Energy = 331.49407604581882
 Nuclear repulsion Energy = 175.31876691099700
 SCF   energy in the final basis set =     -317.4661495828
 Total energy in the final basis set =     -317.4661495828
 
 --------------------------------------------------------------
 
                    Orbital Energies (a.u.)
 --------------------------------------------------------------
 
 Alpha MOs
 -- Occupied --
-24.696 -24.685 -10.264 -10.202 -10.188  -1.203  -1.194  -0.789
 -0.692  -0.585  -0.542  -0.505  -0.483  -0.457  -0.431  -0.412
 -0.401  -0.387  -0.382  -0.349  -0.210  -0.189
 -- Virtual --
  0.068   0.125   0.133   0.145   0.165   0.183   0.190   0.258
  0.318   0.504   0.514   0.542   0.560   0.579   0.614   0.629
  0.719   0.750   0.785   0.817   0.854   0.873   0.876   0.902
  0.922   0.981   1.099   1.143   1.176   1.237   1.308   1.326
  1.364   1.386   1.459   1.512   1.531   1.583   1.609   1.684
  1.696   1.731   1.804   1.827   1.831   1.863   1.915   1.924
  1.988   2.027   2.040   2.091   2.115   2.135   2.153   2.247
  2.318   2.372   2.397   2.448   2.524   2.557   2.615   2.637
  2.670   2.718   2.740   2.773   2.848   2.864   2.994   3.027
  3.180   3.350   3.378   3.446   3.453   3.689   3.839   4.211
  4.343   4.457   4.638
 
 Beta MOs
 -- Occupied --
-24.690 -24.683 -10.251 -10.189 -10.188  -1.190  -1.189  -0.761
 -0.670  -0.561  -0.539  -0.489  -0.467  -0.429  -0.415  -0.402
 -0.393  -0.380  -0.372  -0.338
 -- Virtual --
 -0.064  -0.037   0.078   0.132   0.143   0.163   0.171   0.190
  0.219   0.273   0.341   0.516   0.530   0.563   0.588   0.591
  0.650   0.669   0.734   0.761   0.793   0.828   0.862   0.883
  0.883   0.915   0.929   1.001   1.108   1.148   1.189   1.249
  1.319   1.342   1.369   1.393   1.486   1.521   1.555   1.596
  1.612   1.698   1.719   1.744   1.823   1.839   1.846   1.876
  1.929   1.936   2.026   2.044   2.050   2.099   2.125   2.149
  2.162   2.269   2.333   2.387   2.421   2.467   2.529   2.585
  2.637   2.654   2.684   2.719   2.745   2.783   2.855   2.873
  3.005   3.038   3.186   3.362   3.390   3.450   3.461   3.691
  3.842   4.228   4.363   4.471   4.660
 --------------------------------------------------------------
 
          Ground-State Mulliken Net Atomic Charges

     Atom                 Charge (a.u.)    Spin (a.u.)
  --------------------------------------------------------
      1 F                    -0.307526       0.035759
      2 F                    -0.264700       0.117752
      3 C                    -0.098960       0.926200
      4 C                     0.096702       0.881684
      5 C                    -0.324313      -0.050732
      6 H                     0.105433       0.008023
      7 H                     0.099644      -0.017021
      8 H                     0.354289       0.015791
      9 H                     0.121647       0.047486
     10 H                     0.092320       0.009955
     11 H                     0.125463       0.025103
  --------------------------------------------------------
  Sum of atomic charges =     0.000000
  Sum of spin   charges =     2.000000

 -----------------------------------------------------------------
                    Cartesian Multipole Moments
 -----------------------------------------------------------------
    Charge (ESU x 10^10)
                 0.0000
    Dipole Moment (Debye)
         X      -0.4785      Y      -0.0851      Z       0.9223
       Tot       1.0425
    Quadrupole Moments (Debye-Ang)
        XX     -27.8379     XY      -0.0014     YY     -32.2162
        XZ       0.8480     YZ      -4.2325     ZZ     -29.7963
    Octopole Moments (Debye-Ang^2)
       XXX      16.5616    XXY      -7.7591    XYY       2.9198
       YYY     -26.2626    XXZ       3.0353    XYZ      -1.8700
       YYZ      -0.4865    XZZ       3.9594    YZZ     -11.2022
       ZZZ      12.2501
    Hexadecapole Moments (Debye-Ang^3)
      XXXX    -231.4137   XXXY      36.0647   XXYY     -66.6213
      XYYY      35.7533   YYYY    -165.6878   XXXZ      11.8114
      XXYZ     -16.2140   XYYZ       2.3274   YYYZ     -54.8100
      XXZZ     -71.7727   XYZZ      13.2177   YYZZ     -67.2216
      XZZZ      11.1662   YZZZ     -57.6798   ZZZZ    -190.7714
 -----------------------------------------------------------------
 Calculating analytic gradient of the SCF energy
 Gradient of SCF Energy
            1           2           3           4           5           6
    1  -0.0065516   0.0012849   0.0058050   0.0000620   0.0003835   0.0001550
    2  -0.0133831  -0.0004548   0.0074100  -0.0000521  -0.0003723  -0.0001938
    3  -0.0219583   0.0005794   0.0225467  -0.0003386   0.0011685  -0.0001569
            7           8           9          10          11
    1  -0.0008698   0.0001226  -0.0000052  -0.0005204   0.0001339
    2   0.0000242   0.0066696  -0.0001081   0.0003868   0.0000737
    3  -0.0006672  -0.0008005   0.0000181  -0.0003527  -0.0000385
 Max gradient component =       2.255E-02
 RMS gradient           =       6.401E-03
 Gradient time:  CPU 8.21 s  wall 0.78 s
 Geometry Optimization Parameters
   NAtoms,    NIC,     NZ,  NCons,   NDum,   NFix, NCnnct, MaxDiis
       11     136       0       1       0       0       0       0

 Cartesian Hessian Update
 Hessian Updated using BFGS Update


** CONSTRAINED OPTIMIZATION IN DELOCALIZED INTERNAL COORDINATES **
   Searching for a Minimum

   Optimization Cycle:   3

                       Coordinates (Angstroms)
     ATOM                X               Y               Z
      1  F         0.2586018537    1.3404743980    1.6681302809
      2  F         0.8243421612   -1.1623359620   -1.3826348725
      3  C        -0.3363973938    0.7667826172   -0.4782286685
      4  C         0.7162888452   -0.2333005465   -0.3878433005
      5  C        -1.7515922307    0.5342628525   -0.0462876899
      6  H        -0.1518613870    1.6425284559   -1.1051606398
      7  H         1.6882437639   -0.0176577512    0.0500291274
      8  H         0.2162112815    0.4222121716    1.7557736197
      9  H        -2.3770230999    0.1969858429   -0.8873531144
     10  H        -1.8316104877   -0.2360665392    0.7276778387
     11  H        -2.2015063065    1.4565164606    0.3375984190
   Point Group: c1    Number of degrees of freedom:    27


   Energy is   -317.466149583

              Constraints and their Current Values
                                        Value     Constraint
   Distance(Angs):        1   3             2.300001     2.300000
 Hessian Updated using BFGS Update

   Using Lagrange Multiplier Algorithm


 28 Hessian modes will be used to form the next step
  Hessian Eigenvalues:
    -0.966832    0.039053    0.042768    0.047677    0.050969    0.055458
     0.059720    0.064194    0.065862    0.068712    0.071765    0.078084
     0.079925    0.090532    0.098821    0.122659    0.125188    0.130791
     0.274821    0.282246    0.292583    0.313505    0.335645    0.341755
     0.345005    0.491621    0.518477    1.051361

 Minimum Search - Taking P-RFO Step
 Searching for Lamda that Maximizes Along the Constraint modes Only
 Value Taken    Lamda =   0.00000015
 Searching for Lamda that Minimizes Along All other modes
 Value Taken    Lamda =  -0.00012620
 Step Taken.  Stepsize is  0.028161

                             Maximum     Tolerance    Cnvgd?
         Gradient            0.003846       0.000300      NO
         Displacement        0.013947       0.001200      NO
         Energy change     -0.000351       0.000001      NO


 New Cartesian Coordinates Obtained by Inverse Iteration

 Displacement from previous Coordinates is:  0.025679
 ----------------------------------------------------------------
             Standard Nuclear Orientation (Angstroms)
    I     Atom           X                Y                Z
 ----------------------------------------------------------------
    1      F       0.2611610078     1.3460786514     1.6676224956
    2      F       0.8168607220    -1.1592295525    -1.3844650502
    3      C      -0.3355737129     0.7667203326    -0.4767310396
    4      C       0.7148437160    -0.2334214902    -0.3860258956
    5      C      -1.7514295149     0.5335526509    -0.0480181224
    6      H      -0.1514384648     1.6429817599    -1.1032258089
    7      H       1.6890017942    -0.0204886728     0.0526988772
    8      H       0.2186909740     0.4216508431     1.7571165501
    9      H      -2.3752849418     0.1959336548    -0.8900789868
   10      H      -1.8288602320    -0.2376105685     0.7266366405
   11      H      -2.2042743475     1.4542343913     0.3361713399
 ----------------------------------------------------------------
 Nuclear Repulsion Energy =   175.3230154378 hartrees
 There are       22 alpha and       20 beta electrons

                       Distance Matrix (Angstroms)
             F (  1)   F (  2)   C (  3)   C (  4)   C (  5)   H (  6)
   F (  2)  3.987557
   C (  3)  2.300000  2.421026
   C (  4)  2.630232  1.365434  1.453234
   C (  5)  2.766612  3.353762  1.497601  2.604804
   H (  6)  2.817089  2.978101  1.092811  2.187626  2.214558
   H (  7)  2.552296  2.030468  2.235822  1.089405  3.486212  2.736881
   H (  8)  0.929720  3.567426  2.327307  2.295288  2.674399  3.132124
   H (  9)  3.849093  3.502953  2.158026  3.160271  1.101022  2.661742
   H ( 10)  2.785985  3.507987  2.164874  2.776412  1.095800  3.114284
   H ( 11)  2.804074  4.349487  2.150704  3.448333  1.095593  2.514284
             H (  7)   H (  8)   H (  9)   H ( 10)
   H (  8)  2.293979
   H (  9)  4.177810  3.713126
   H ( 10)  3.588410  2.385158  1.760770
   H ( 11)  4.172860  2.992670  1.765292  1.776440
 
 Applying Cartesian multipole field
    Component          Value
    ---------          -----
     (2,0,0)        1.00000E-11
     (0,2,0)        2.00000E-11
     (0,0,2)       -3.00000E-11
 Nucleus-field energy     =    -0.0000000010 hartrees
 Requested basis set is 6-31G(d,p)
 There are 38 shells and 105 basis functions
 A cutoff of  1.0D-14 yielded    717 shell pairs
 There are      5619 function pairs
 Smallest overlap matrix eigenvalue = 5.03E-03
 Guess from superposition of atomic densities
 Warning:  Energy on first SCF cycle will be non-variational
 SAD guess density has 42.000000 electrons

 -----------------------------------------------------------------------
  General SCF calculation program by
  Eric Jon Sundstrom, Paul Horn, Yuezhi Mao, Dmitri Zuev, Alec White,
  David Stuck, Shaama M.S., Shane Yost, Joonho Lee, David Small,
  Daniel Levine, Susi Lehtola, Hugh Burton, Evgeny Epifanovsky
 -----------------------------------------------------------------------
 Exchange:     0.2000 Hartree-Fock + 0.0800 Slater + 0.7200 B88
 Correlation:  0.1900 VWN1RPA + 0.8100 LYP
 Using SG-1 standard quadrature grid
 using 12 threads for integral computing
 -------------------------------------------------------
 OpenMP Integral computing Module                
 Release: version 1.0, May 2013, Q-Chem Inc. Pittsburgh 
 -------------------------------------------------------
 -------------------------------------------------------
 OpenMP BLAS3 based DFT computing Module                
 Release: version 1.0, May 2013, Q-Chem Inc. Pittsburgh 
 -------------------------------------------------------
 A unrestricted SCF calculation will be
 performed using DIIS
 SCF converges when DIIS error is below 1.0e-06
 Alpha HF Exchange    Energy =  -3.75405191908253
 Beta HF Exchange     Energy =  -3.75405191908253
 DFT Correlation      Energy =  -1.84519632899490
 DFT Exchange         Energy = -29.60812945791010
 One-Electron (alpha) Energy = -390.63078257441254
 One-Electron (beta)  Energy = -390.63078257441254
 Total Coulomb        Energy = 326.97069300401409
 ---------------------------------------
  Cycle       Energy         DIIS error
 ---------------------------------------
    1    -317.9292863331      2.96e-02  
 Alpha HF Exchange    Energy =  -3.92104853790280
 Beta HF Exchange     Energy =  -3.71048697607174
 DFT Correlation      Energy =  -1.86414965452952
 DFT Exchange         Energy = -30.33261287137658
 One-Electron (alpha) Energy = -407.12119480914839
 One-Electron (beta)  Energy = -381.17062694698120
 Total Coulomb        Energy = 335.41468853927284
    2    -317.3824158200      4.13e-03  
 Alpha HF Exchange    Energy =  -3.84112774196777
 Beta HF Exchange     Energy =  -3.62862830832738
 DFT Correlation      Energy =  -1.83740875231136
 DFT Exchange         Energy = -29.68399483519451
 One-Electron (alpha) Energy = -403.52699122343313
 One-Electron (beta)  Energy = -377.44008487499656
 Total Coulomb        Energy = 327.26759688917036
    3    -317.3676234103      4.76e-03  
 Alpha HF Exchange    Energy =  -3.88474881469538
 Beta HF Exchange     Energy =  -3.67515272103523
 DFT Correlation      Energy =  -1.84988019357627
 DFT Exchange         Energy = -30.03529245350308
 One-Electron (alpha) Energy = -405.48489177555530
 One-Electron (beta)  Energy = -379.34763951182509
 Total Coulomb        Energy = 331.48947938577533
    4    -317.4651106476      4.74e-04  
 Alpha HF Exchange    Energy =  -3.88499649792811
 Beta HF Exchange     Energy =  -3.67271892644500
 DFT Correlation      Energy =  -1.85016902903018
 DFT Exchange         Energy = -30.02907470720287
 One-Electron (alpha) Energy = -405.58568902945484
 One-Electron (beta)  Energy = -379.34324035294787
 Total Coulomb        Energy = 331.57695343185952
    5    -317.4659196744      2.37e-04  
 Alpha HF Exchange    Energy =  -3.88530989219392
 Beta HF Exchange     Energy =  -3.67381094833889
 DFT Correlation      Energy =  -1.84976080620719
 DFT Exchange         Energy = -30.03256774036708
 One-Electron (alpha) Energy = -405.55500356077135
 One-Electron (beta)  Energy = -379.30992362373007
 Total Coulomb        Energy = 331.51717008874402
    6    -317.4661910461      8.11e-05  
 Alpha HF Exchange    Energy =  -3.88503964709585
 Beta HF Exchange     Energy =  -3.67342415475508
 DFT Correlation      Energy =  -1.84966845010593
 DFT Exchange         Energy = -30.02995904190857
 One-Electron (alpha) Energy = -405.55145826954720
 One-Electron (beta)  Energy = -379.29509801985245
 Total Coulomb        Energy = 331.49541479178123
    7    -317.4662173547      2.98e-05  
 Alpha HF Exchange    Energy =  -3.88517852472970
 Beta HF Exchange     Energy =  -3.67355427998382
 DFT Correlation      Energy =  -1.84967195260517
 DFT Exchange         Energy = -30.03092696435699
 One-Electron (alpha) Energy = -405.55970319915303
 One-Electron (beta)  Energy = -379.29769695920902
 Total Coulomb        Energy = 331.50749504846482
    8    -317.4662213948      8.63e-06  
 Alpha HF Exchange    Energy =  -3.88519646683908
 Beta HF Exchange     Energy =  -3.67355961781180
 DFT Correlation      Energy =  -1.84966223308785
 DFT Exchange         Energy = -30.03100012530069
 One-Electron (alpha) Energy = -405.56101883388078
 One-Electron (beta)  Energy = -379.29656665212480
 Total Coulomb        Energy = 331.50776668804639
    9    -317.4662218042      4.41e-06  
 Alpha HF Exchange    Energy =  -3.88517827769069
 Beta HF Exchange     Energy =  -3.67355502991264
 DFT Correlation      Energy =  -1.84965496584293
 DFT Exchange         Energy = -30.03089695836828
 One-Electron (alpha) Energy = -405.56036472183729
 One-Electron (beta)  Energy = -379.29560810026851
 Total Coulomb        Energy = 331.50602070364982
   10    -317.4662219135      8.24e-07  Convergence criterion met
 ---------------------------------------
 SCF time:   CPU 24.28s  wall 2.00s 
<S^2> =          2.004479083
 Alpha HF Exchange    Energy =  -3.88517827769069
 Beta HF Exchange     Energy =  -3.67355502991264
 DFT Correlation      Energy =  -1.84965496584293
 DFT Exchange         Energy = -30.03089695836828
 One-Electron (alpha) Energy = -405.56036472183729
 One-Electron (beta)  Energy = -379.29560810026851
 Total Coulomb        Energy = 331.50602070364982
 Nuclear repulsion Energy = 175.32301543677741
 SCF   energy in the final basis set =     -317.4662219135
 Total energy in the final basis set =     -317.4662219135
 
 --------------------------------------------------------------
 
                    Orbital Energies (a.u.)
 --------------------------------------------------------------
 
 Alpha MOs
 -- Occupied --
-24.696 -24.685 -10.264 -10.202 -10.188  -1.203  -1.192  -0.790
 -0.692  -0.585  -0.541  -0.505  -0.483  -0.458  -0.431  -0.412
 -0.400  -0.387  -0.382  -0.349  -0.210  -0.189
 -- Virtual --
  0.066   0.125   0.133   0.145   0.165   0.183   0.189   0.258
  0.318   0.504   0.514   0.542   0.560   0.579   0.615   0.629
  0.718   0.751   0.783   0.817   0.854   0.872   0.876   0.902
  0.922   0.981   1.099   1.143   1.176   1.237   1.308   1.326
  1.363   1.386   1.458   1.512   1.531   1.582   1.608   1.685
  1.696   1.730   1.806   1.827   1.831   1.863   1.915   1.925
  1.988   2.027   2.040   2.091   2.114   2.135   2.152   2.247
  2.318   2.372   2.397   2.448   2.512   2.556   2.615   2.637
  2.669   2.711   2.734   2.771   2.848   2.863   2.994   3.027
  3.180   3.347   3.377   3.446   3.453   3.681   3.835   4.211
  4.342   4.457   4.639
 
 Beta MOs
 -- Occupied --
-24.690 -24.683 -10.251 -10.188 -10.188  -1.189  -1.187  -0.761
 -0.670  -0.561  -0.537  -0.489  -0.467  -0.429  -0.415  -0.402
 -0.392  -0.380  -0.371  -0.338
 -- Virtual --
 -0.064  -0.037   0.077   0.132   0.142   0.163   0.172   0.190
  0.219   0.273   0.341   0.516   0.530   0.563   0.588   0.591
  0.649   0.669   0.734   0.761   0.791   0.828   0.861   0.882
  0.882   0.915   0.929   1.000   1.107   1.148   1.189   1.249
  1.319   1.342   1.369   1.393   1.486   1.521   1.555   1.596
  1.612   1.698   1.719   1.743   1.824   1.839   1.847   1.876
  1.930   1.938   2.026   2.044   2.051   2.098   2.124   2.149
  2.161   2.269   2.333   2.386   2.421   2.467   2.516   2.584
  2.637   2.654   2.683   2.712   2.738   2.781   2.855   2.872
  3.005   3.038   3.185   3.359   3.389   3.449   3.461   3.683
  3.839   4.228   4.362   4.470   4.661
 --------------------------------------------------------------
 
          Ground-State Mulliken Net Atomic Charges

     Atom                 Charge (a.u.)    Spin (a.u.)
  --------------------------------------------------------
      1 F                    -0.309964       0.036176
      2 F                    -0.264754       0.118007
      3 C                    -0.098703       0.925403
      4 C                     0.096777       0.881023
      5 C                    -0.324039      -0.050667
      6 H                     0.105361       0.008295
      7 H                     0.099783      -0.016872
      8 H                     0.356478       0.015837
      9 H                     0.121754       0.047575
     10 H                     0.091923       0.010001
     11 H                     0.125384       0.025223
  --------------------------------------------------------
  Sum of atomic charges =     0.000000
  Sum of spin   charges =     2.000000

 -----------------------------------------------------------------
                    Cartesian Multipole Moments
 -----------------------------------------------------------------
    Charge (ESU x 10^10)
                -0.0000
    Dipole Moment (Debye)
         X      -0.4690      Y      -0.0963      Z       0.9242
       Tot       1.0409
    Quadrupole Moments (Debye-Ang)
        XX     -27.8347     XY      -0.0232     YY     -32.2374
        XZ       0.8523     YZ      -4.2426     ZZ     -29.7980
    Octopole Moments (Debye-Ang^2)
       XXX      16.6452    XXY      -7.7948    XYY       2.9421
       YYY     -26.4061    XXZ       3.0065    XYZ      -1.8678
       YYZ      -0.5312    XZZ       3.9874    YZZ     -11.2579
       ZZZ      12.2546
    Hexadecapole Moments (Debye-Ang^3)
      XXXX    -231.0091   XXXY      35.7092   XXYY     -66.5772
      XYYY      35.4600   YYYY    -165.9375   XXXZ      11.5458
      XXYZ     -16.2403   XYYZ       2.2065   YYYZ     -54.9639
      XXZZ     -71.7099   XYZZ      13.0981   YYZZ     -67.3277
      XZZZ      10.8965   YZZZ     -57.8109   ZZZZ    -190.8315
 -----------------------------------------------------------------
 Calculating analytic gradient of the SCF energy
 Gradient of SCF Energy
            1           2           3           4           5           6
    1  -0.0061883   0.0007322   0.0065076  -0.0010364   0.0003165  -0.0000181
    2  -0.0062732  -0.0001939   0.0062354   0.0001522   0.0001674  -0.0001188
    3  -0.0225379   0.0003881   0.0224325  -0.0005037   0.0004657  -0.0001515
            7           8           9          10          11
    1   0.0001250  -0.0001889  -0.0000313  -0.0002052  -0.0000130
    2   0.0003720  -0.0004268   0.0000352   0.0000586  -0.0000078
    3  -0.0000037  -0.0001212  -0.0000346   0.0001049  -0.0000387
 Max gradient component =       2.254E-02
 RMS gradient           =       5.962E-03
 Gradient time:  CPU 8.28 s  wall 0.76 s
 Geometry Optimization Parameters
   NAtoms,    NIC,     NZ,  NCons,   NDum,   NFix, NCnnct, MaxDiis
       11     136       0       1       0       0       0       0

 Cartesian Hessian Update
 Hessian Updated using BFGS Update


** CONSTRAINED OPTIMIZATION IN DELOCALIZED INTERNAL COORDINATES **
   Searching for a Minimum

   Optimization Cycle:   4

                       Coordinates (Angstroms)
     ATOM                X               Y               Z
      1  F         0.2611610078    1.3460786514    1.6676224956
      2  F         0.8168607220   -1.1592295525   -1.3844650502
      3  C        -0.3355737129    0.7667203326   -0.4767310396
      4  C         0.7148437160   -0.2334214902   -0.3860258956
      5  C        -1.7514295149    0.5335526509   -0.0480181224
      6  H        -0.1514384648    1.6429817599   -1.1032258089
      7  H         1.6890017942   -0.0204886728    0.0526988772
      8  H         0.2186909740    0.4216508431    1.7571165501
      9  H        -2.3752849418    0.1959336548   -0.8900789868
     10  H        -1.8288602320   -0.2376105685    0.7266366405
     11  H        -2.2042743475    1.4542343913    0.3361713399
   Point Group: c1    Number of degrees of freedom:    27


   Energy is   -317.466221913

              Constraints and their Current Values
                                        Value     Constraint
   Distance(Angs):        1   3             2.300000     2.300000
 Hessian Updated using BFGS Update

 26 Hessian modes will be used to form the next step
  Hessian Eigenvalues:
     0.038068    0.040938    0.047532    0.047791    0.053099    0.059701
     0.063327    0.065176    0.066793    0.071353    0.077929    0.078512
     0.090479    0.098758    0.122599    0.123730    0.128835    0.274311
     0.284180    0.296710    0.314719    0.335638    0.341756    0.344996
     0.517700    0.552125

 Minimum Search - Taking Simple RFO Step
 Searching for Lamda that Minimizes Along All modes
 Value Taken    Lamda =  -0.00001404
 Step Taken.  Stepsize is  0.017460

                             Maximum     Tolerance    Cnvgd?
         Gradient           0.000296      0.000300     YES
         Displacement       0.006668      0.001200      NO
         Energy change     -0.000072      0.000001      NO


 New Cartesian Coordinates Obtained by Inverse Iteration

 Displacement from previous Coordinates is:  0.015108
 ----------------------------------------------------------------
             Standard Nuclear Orientation (Angstroms)
    I     Atom           X                Y                Z
 ----------------------------------------------------------------
    1      F       0.2628383418     1.3483936063     1.6678394792
    2      F       0.8126742100    -1.1576563725    -1.3856143184
    3      C      -0.3352716071     0.7671740958    -0.4756270687
    4      C       0.7144133489    -0.2335825751    -0.3850457110
    5      C      -1.7515961105     0.5328957397    -0.0490638016
    6      H      -0.1510589190     1.6438139190    -1.1016332325
    7      H       1.6892709753    -0.0229243036     0.0534428335
    8      H       0.2204322628     0.4231411670     1.7582791030
    9      H      -2.3741732714     0.1946533690    -0.8917540424
   10      H      -1.8279218717    -0.2383400791     0.7256730655
   11      H      -2.2059103590     1.4528334335     0.3352046932
 ----------------------------------------------------------------
 Nuclear Repulsion Energy =   175.3229275119 hartrees
 There are       22 alpha and       20 beta electrons

                       Distance Matrix (Angstroms)
             F (  1)   F (  2)   C (  3)   C (  4)   C (  5)   H (  6)
   F (  2)  3.988256
   C (  3)  2.300000  2.418849
   C (  4)  2.630762  1.365542  1.453120
   C (  5)  2.769610  3.349599  1.497604  2.604146
   H (  6)  2.815770  2.976183  1.092847  2.187957  2.214444
   H (  7)  2.553723  2.031483  2.236726  1.089494  3.486977  2.738436
   H (  8)  0.930629  3.568436  2.327553  2.295462  2.677206  3.131636
   H (  9)  3.851813  3.496947  2.158254  3.159036  1.100971  2.662020
   H ( 10)  2.788670  3.503630  2.163836  2.774381  1.095832  3.113426
   H ( 11)  2.807409  4.346001  2.151015  3.448340  1.095604  2.514635
             H (  7)   H (  8)   H (  9)   H ( 10)
   H (  8)  2.294107
   H (  9)  4.177597  3.715758
   H ( 10)  3.587331  2.387381  1.761234
   H ( 11)  4.174888  2.995421  1.765434  1.776347
 
 Applying Cartesian multipole field
    Component          Value
    ---------          -----
     (2,0,0)        1.00000E-11
     (0,2,0)        2.00000E-11
     (0,0,2)       -3.00000E-11
 Nucleus-field energy     =    -0.0000000010 hartrees
 Requested basis set is 6-31G(d,p)
 There are 38 shells and 105 basis functions
 A cutoff of  1.0D-14 yielded    717 shell pairs
 There are      5619 function pairs
 Smallest overlap matrix eigenvalue = 5.03E-03
 Guess from superposition of atomic densities
 Warning:  Energy on first SCF cycle will be non-variational
 SAD guess density has 42.000000 electrons

 -----------------------------------------------------------------------
  General SCF calculation program by
  Eric Jon Sundstrom, Paul Horn, Yuezhi Mao, Dmitri Zuev, Alec White,
  David Stuck, Shaama M.S., Shane Yost, Joonho Lee, David Small,
  Daniel Levine, Susi Lehtola, Hugh Burton, Evgeny Epifanovsky
 -----------------------------------------------------------------------
 Exchange:     0.2000 Hartree-Fock + 0.0800 Slater + 0.7200 B88
 Correlation:  0.1900 VWN1RPA + 0.8100 LYP
 Using SG-1 standard quadrature grid
 using 12 threads for integral computing
 -------------------------------------------------------
 OpenMP Integral computing Module                
 Release: version 1.0, May 2013, Q-Chem Inc. Pittsburgh 
 -------------------------------------------------------
 -------------------------------------------------------
 OpenMP BLAS3 based DFT computing Module                
 Release: version 1.0, May 2013, Q-Chem Inc. Pittsburgh 
 -------------------------------------------------------
 A unrestricted SCF calculation will be
 performed using DIIS
 SCF converges when DIIS error is below 1.0e-06
 Alpha HF Exchange    Energy =  -3.75396575202312
 Beta HF Exchange     Energy =  -3.75396575202312
 DFT Correlation      Energy =  -1.84517222365396
 DFT Exchange         Energy = -29.60791683590114
 One-Electron (alpha) Energy = -390.63178119883349
 One-Electron (beta)  Energy = -390.63178119883349
 Total Coulomb        Energy = 326.97306015833351
 ---------------------------------------
  Cycle       Energy         DIIS error
 ---------------------------------------
    1    -317.9285952920      2.96e-02  
 Alpha HF Exchange    Energy =  -3.92102388512248
 Beta HF Exchange     Energy =  -3.71042555998230
 DFT Correlation      Energy =  -1.86413459475381
 DFT Exchange         Energy = -30.33233319140713
 One-Electron (alpha) Energy = -407.12421929375489
 One-Electron (beta)  Energy = -381.17126572048301
 Total Coulomb        Energy = 335.41811185273099
    2    -317.3823628818      4.13e-03  
 Alpha HF Exchange    Energy =  -3.84106355003314
 Beta HF Exchange     Energy =  -3.62852304443395
 DFT Correlation      Energy =  -1.83737921245399
 DFT Exchange         Energy = -29.68342653697746
 One-Electron (alpha) Energy = -403.52807895334746
 One-Electron (beta)  Energy = -377.43867206012862
 Total Coulomb        Energy = 327.26672134798025
    3    -317.3674944985      4.77e-03  
 Alpha HF Exchange    Energy =  -3.88471778329511
 Beta HF Exchange     Energy =  -3.67508779154151
 DFT Correlation      Energy =  -1.84985870816590
 DFT Exchange         Energy = -30.03498299425344
 One-Electron (alpha) Energy = -405.48726125235919
 One-Electron (beta)  Energy = -379.34752830127940
 Total Coulomb        Energy = 331.49139112052302
    4    -317.4651181994      4.75e-04  
 Alpha HF Exchange    Energy =  -3.88496205262976
 Beta HF Exchange     Energy =  -3.67264640524236
 DFT Correlation      Energy =  -1.85014818686850
 DFT Exchange         Energy = -30.02872824408693
 One-Electron (alpha) Energy = -405.58818277590132
 One-Electron (beta)  Energy = -379.34314205703714
 Total Coulomb        Energy = 331.57895191766289
    5    -317.4659302932      2.37e-04  
 Alpha HF Exchange    Energy =  -3.88527801690364
 Beta HF Exchange     Energy =  -3.67374097245553
 DFT Correlation      Energy =  -1.84973995298977
 DFT Exchange         Energy = -30.03223935110821
 One-Electron (alpha) Energy = -405.55757151074556
 One-Electron (beta)  Energy = -379.30985619094758
 Total Coulomb        Energy = 331.51929599652550
    6    -317.4662024877      8.11e-05  
 Alpha HF Exchange    Energy =  -3.88500756360704
 Beta HF Exchange     Energy =  -3.67335415939493
 DFT Correlation      Energy =  -1.84964734640947
 DFT Exchange         Energy = -30.02962902316765
 One-Electron (alpha) Energy = -405.55399730850297
 One-Electron (beta)  Energy = -379.29499091623944
 Total Coulomb        Energy = 331.49747000859588
    7    -317.4662287978      2.99e-05  
 Alpha HF Exchange    Energy =  -3.88514632431510
 Beta HF Exchange     Energy =  -3.67348432959800
 DFT Correlation      Energy =  -1.84965074648644
 DFT Exchange         Energy = -30.03059629957208
 One-Electron (alpha) Energy = -405.56223647172942
 One-Electron (beta)  Energy = -379.29758421996416
 Total Coulomb        Energy = 331.50953803330577
    8    -317.4662328474      8.65e-06  
 Alpha HF Exchange    Energy =  -3.88516442497593
 Beta HF Exchange     Energy =  -3.67348966325918
 DFT Correlation      Energy =  -1.84964107591013
 DFT Exchange         Energy = -30.03067017641322
 One-Electron (alpha) Energy = -405.56356397867921
 One-Electron (beta)  Energy = -379.29645826568895
 Total Coulomb        Energy = 331.50982681547788
    9    -317.4662332585      4.42e-06  
 Alpha HF Exchange    Energy =  -3.88514619233663
 Beta HF Exchange     Energy =  -3.67348506770247
 DFT Correlation      Energy =  -1.84963376996562
 DFT Exchange         Energy = -30.03056671572494
 One-Electron (alpha) Energy = -405.56290672045884
 One-Electron (beta)  Energy = -379.29549504440877
 Total Coulomb        Energy = 331.50807263145708
   10    -317.4662333682      8.24e-07  Convergence criterion met
 ---------------------------------------
 SCF time:   CPU 24.53s  wall 2.00s 
<S^2> =          2.004482085
 Alpha HF Exchange    Energy =  -3.88514619233663
 Beta HF Exchange     Energy =  -3.67348506770247
 DFT Correlation      Energy =  -1.84963376996562
 DFT Exchange         Energy = -30.03056671572494
 One-Electron (alpha) Energy = -405.56290672045884
 One-Electron (beta)  Energy = -379.29549504440877
 Total Coulomb        Energy = 331.50807263145708
 Nuclear repulsion Energy = 175.32292751092535
 SCF   energy in the final basis set =     -317.4662333682
 Total energy in the final basis set =     -317.4662333682
 
 --------------------------------------------------------------
 
                    Orbital Energies (a.u.)
 --------------------------------------------------------------
 
 Alpha MOs
 -- Occupied --
-24.696 -24.685 -10.264 -10.202 -10.188  -1.203  -1.191  -0.790
 -0.692  -0.585  -0.541  -0.505  -0.483  -0.457  -0.431  -0.412
 -0.400  -0.387  -0.381  -0.349  -0.210  -0.189
 -- Virtual --
  0.065   0.125   0.133   0.145   0.165   0.183   0.189   0.258
  0.318   0.504   0.514   0.542   0.560   0.578   0.615   0.629
[...]
   Distance(Angs):        1   3             2.300000     2.300000
 Hessian Updated using BFGS Update

 26 Hessian modes will be used to form the next step
  Hessian Eigenvalues:
     0.000212    0.001144    0.001789    0.005915    0.012668    0.021053
     0.039165    0.042938    0.054236    0.061154    0.065097    0.073512
     0.078067    0.085246    0.111774    0.123285    0.129195    0.271871
     0.276913    0.296750    0.316858    0.335154    0.341295    0.344717
     0.520234    0.624454

 Minimum Search - Taking Simple RFO Step
 Searching for Lamda that Minimizes Along All modes
 Value Taken    Lamda =  -0.00000102
 Step Taken.  Stepsize is  0.026469

                             Maximum     Tolerance    Cnvgd?
         Gradient           0.000108      0.000300     YES
         Displacement       0.015146      0.001200      NO
         Energy change     -0.000002      0.000001      NO


 New Cartesian Coordinates Obtained by Inverse Iteration

 Displacement from previous Coordinates is:  0.014663
 ----------------------------------------------------------------
             Standard Nuclear Orientation (Angstroms)
    I     Atom           X                Y                Z
 ----------------------------------------------------------------
    1      F       0.3343888031     1.5022993273     1.5964749650
    2      F       0.8303318984    -1.0896392686    -1.5599005008
    3      C      -0.3270230407     0.7253995626    -0.4648259856
    4      C       0.6920053859    -0.3074625205    -0.4455049081
    5      C      -1.7482987700     0.4886284366    -0.0545953204
    6      H      -0.1102314093     1.6621333556    -0.9822095688
    7      H       1.6396869960    -0.2025354018     0.0806303082
    8      H       0.1439559754     0.6619911100     1.9401232205
    9      H      -2.3808076091     0.2172320678    -0.9142778298
   10      H      -1.8326828372    -0.3355558084     0.6635362995
   11      H      -2.1876283923     1.3879111393     0.3922503203
 ----------------------------------------------------------------
 Nuclear Repulsion Energy =   173.6697516680 hartrees
 There are       22 alpha and       20 beta electrons

                       Distance Matrix (Angstroms)
             F (  1)   F (  2)   C (  3)   C (  4)   C (  5)   H (  6)
   F (  2)  4.114221
   C (  3)  2.300000  2.415166
   C (  4)  2.751874  1.368507  1.451067
   C (  5)  2.844495  3.377308  1.498124  2.596470
   H (  6)  2.621612  2.964901  1.091858  2.193386  2.218298
   H (  7)  2.628317  2.033064  2.241993  1.089003  3.460411  2.769266
   H (  8)  0.927619  3.973599  2.451453  2.632759  2.754920  3.099181
   H (  9)  3.915044  3.526494  2.162931  3.152338  1.101262  2.692187
   H ( 10)  2.990700  3.550206  2.160055  2.757682  1.096409  3.109032
   H ( 11)  2.797108  4.365459  2.152987  3.445057  1.096080  2.505976
             H (  7)   H (  8)   H (  9)   H ( 10)
   H (  8)  2.538175
   H (  9)  4.162983  3.836645
   H ( 10)  3.523468  2.555753  1.759407
   H ( 11)  4.156317  2.891221  1.764886  1.780427
 
 Applying Cartesian multipole field
    Component          Value
    ---------          -----
     (2,0,0)        1.00000E-11
     (0,2,0)        2.00000E-11
     (0,0,2)       -3.00000E-11
 Nucleus-field energy     =    -0.0000000011 hartrees
 Requested basis set is 6-31G(d,p)
 There are 38 shells and 105 basis functions
 A cutoff of  1.0D-14 yielded    713 shell pairs
 There are      5593 function pairs
 Smallest overlap matrix eigenvalue = 5.20E-03
 Guess from superposition of atomic densities
 Warning:  Energy on first SCF cycle will be non-variational
 SAD guess density has 42.000000 electrons

 -----------------------------------------------------------------------
  General SCF calculation program by
  Eric Jon Sundstrom, Paul Horn, Yuezhi Mao, Dmitri Zuev, Alec White,
  David Stuck, Shaama M.S., Shane Yost, Joonho Lee, David Small,
  Daniel Levine, Susi Lehtola, Hugh Burton, Evgeny Epifanovsky
 -----------------------------------------------------------------------
 Exchange:     0.2000 Hartree-Fock + 0.0800 Slater + 0.7200 B88
 Correlation:  0.1900 VWN1RPA + 0.8100 LYP
 Using SG-1 standard quadrature grid
 using 12 threads for integral computing
 -------------------------------------------------------
 OpenMP Integral computing Module                
 Release: version 1.0, May 2013, Q-Chem Inc. Pittsburgh 
 -------------------------------------------------------
 -------------------------------------------------------
 OpenMP BLAS3 based DFT computing Module                
 Release: version 1.0, May 2013, Q-Chem Inc. Pittsburgh 
 -------------------------------------------------------
 A unrestricted SCF calculation will be
 performed using DIIS
 SCF converges when DIIS error is below 1.0e-06
 Alpha HF Exchange    Energy =  -3.75188989923717
 Beta HF Exchange     Energy =  -3.75188989923717
 DFT Correlation      Energy =  -1.84375618920570
 DFT Exchange         Energy = -29.60429262390106
 One-Electron (alpha) Energy = -388.97688884919285
 One-Electron (beta)  Energy = -388.97688884919285
 Total Coulomb        Energy = 325.32281871175178
 ---------------------------------------
  Cycle       Energy         DIIS error
 ---------------------------------------
    1    -317.9130359314      2.95e-02  
 Alpha HF Exchange    Energy =  -3.92197897252602
 Beta HF Exchange     Energy =  -3.71082234860509
 DFT Correlation      Energy =  -1.86348772345019
 DFT Exchange         Energy = -30.33670477274835
 One-Electron (alpha) Energy = -405.53475568791248
 One-Electron (beta)  Energy = -379.67718769248472
 Total Coulomb        Energy = 333.99327596520880
    2    -317.3819095657      4.14e-03  
 Alpha HF Exchange    Energy =  -3.84062946837059
 Beta HF Exchange     Energy =  -3.62939962196965
 DFT Correlation      Energy =  -1.83611202544484
 DFT Exchange         Energy = -29.68243544138961
 One-Electron (alpha) Energy = -401.81831187991281
 One-Electron (beta)  Energy = -375.87112929613448
 Total Coulomb        Energy = 325.63842942362112
    3    -317.3698366427      4.71e-03  
 Alpha HF Exchange    Energy =  -3.88499674015478
 Beta HF Exchange     Energy =  -3.67551935426259
 DFT Correlation      Energy =  -1.84894211783039
 DFT Exchange         Energy = -30.03640012985984
 One-Electron (alpha) Energy = -403.84902375323389
 One-Electron (beta)  Energy = -377.82095810223990
 Total Coulomb        Energy = 329.98059678708563
    4    -317.4654917436      4.49e-04  
 Alpha HF Exchange    Energy =  -3.88505381613163
 Beta HF Exchange     Energy =  -3.67312894006547
 DFT Correlation      Energy =  -1.84915316328151
 DFT Exchange         Energy = -30.02942837542934
 One-Electron (alpha) Energy = -403.93439444036289
 One-Electron (beta)  Energy = -377.80774882776797
 Total Coulomb        Energy = 330.04295431102821
    5    -317.4662015852      2.29e-04  
 Alpha HF Exchange    Energy =  -3.88536252583455
 Beta HF Exchange     Energy =  -3.67422940715421
 DFT Correlation      Energy =  -1.84876380246152
 DFT Exchange         Energy = -30.03300324732662
 One-Electron (alpha) Energy = -403.90569778006011
 One-Electron (beta)  Energy = -377.77796129367027
 Total Coulomb        Energy = 329.98881349463670
    6    -317.4664528950      8.15e-05  
 Alpha HF Exchange    Energy =  -3.88511087121837
 Beta HF Exchange     Energy =  -3.67384953715434
 DFT Correlation      Energy =  -1.84867967579828
 DFT Exchange         Energy = -30.03051786830929
 One-Electron (alpha) Energy = -403.90320576448005
 One-Electron (beta)  Energy = -377.76420551851345
 Total Coulomb        Energy = 329.96933816845285
    7    -317.4664794002      2.92e-05  
 Alpha HF Exchange    Energy =  -3.88523928822257
 Beta HF Exchange     Energy =  -3.67397508845451
 DFT Correlation      Energy =  -1.84868235823193
 DFT Exchange         Energy = -30.03143621098102
 One-Electron (alpha) Energy = -403.91089054938737
 One-Electron (beta)  Energy = -377.76667863190227
 Total Coulomb        Energy = 329.98066720595415
    8    -317.4664832544      8.29e-06  
 Alpha HF Exchange    Energy =  -3.88525309128160
 Beta HF Exchange     Energy =  -3.67398009215000
 DFT Correlation      Energy =  -1.84867232793257
 DFT Exchange         Energy = -30.03149256802260
 One-Electron (alpha) Energy = -403.91199687569315
 One-Electron (beta)  Energy = -377.76556661393494
 Total Coulomb        Energy = 329.98072626699047
    9    -317.4664836352      4.34e-06  
 Alpha HF Exchange    Energy =  -3.88523552710901
 Beta HF Exchange     Energy =  -3.67397603424015
 DFT Correlation      Energy =  -1.84866563643009
 DFT Exchange         Energy = -30.03139550787171
 One-Electron (alpha) Energy = -403.91138013558401
 One-Electron (beta)  Energy = -377.76472383293861
 Total Coulomb        Energy = 329.97914126728904
   10    -317.4664837400      8.05e-07  Convergence criterion met
 ---------------------------------------
 SCF time:   CPU 23.71s  wall 2.00s 
<S^2> =          2.004507676
 Alpha HF Exchange    Energy =  -3.88523552710901
 Beta HF Exchange     Energy =  -3.67397603424015
 DFT Correlation      Energy =  -1.84866563643009
 DFT Exchange         Energy = -30.03139550787171
 One-Electron (alpha) Energy = -403.91138013558401
 One-Electron (beta)  Energy = -377.76472383293861
 Total Coulomb        Energy = 329.97914126728904
 Nuclear repulsion Energy = 173.66975166685131
 SCF   energy in the final basis set =     -317.4664837400
 Total energy in the final basis set =     -317.4664837400
 
 --------------------------------------------------------------
 
                    Orbital Energies (a.u.)
 --------------------------------------------------------------
 
 Alpha MOs
 -- Occupied --
-24.690 -24.688 -10.256 -10.198 -10.187  -1.196  -1.195  -0.786
 -0.687  -0.580  -0.543  -0.499  -0.479  -0.451  -0.429  -0.409
 -0.403  -0.391  -0.379  -0.344  -0.199  -0.186
 -- Virtual --
  0.053   0.129   0.135   0.146   0.163   0.184   0.193   0.259
  0.323   0.509   0.518   0.546   0.555   0.584   0.600   0.638
  0.717   0.754   0.795   0.806   0.850   0.873   0.879   0.906
  0.922   0.992   1.105   1.140   1.197   1.219   1.295   1.320
  1.365   1.384   1.470   1.516   1.539   1.596   1.605   1.661
  1.691   1.722   1.811   1.832   1.842   1.865   1.904   1.937
  1.994   2.016   2.038   2.084   2.098   2.127   2.139   2.263
  2.327   2.379   2.410   2.454   2.505   2.583   2.621   2.640
  2.673   2.702   2.715   2.768   2.844   2.863   3.002   3.033
  3.178   3.357   3.377   3.443   3.454   3.658   3.852   4.215
  4.279   4.433   4.654
 
 Beta MOs
 -- Occupied --
-24.688 -24.682 -10.242 -10.187 -10.184  -1.192  -1.180  -0.757
 -0.664  -0.557  -0.540  -0.481  -0.464  -0.424  -0.413  -0.400
 -0.393  -0.384  -0.369  -0.333
 -- Virtual --
 -0.051  -0.034   0.060   0.136   0.143   0.165   0.172   0.192
  0.224   0.273   0.346   0.521   0.536   0.565   0.590   0.595
  0.624   0.686   0.731   0.765   0.805   0.815   0.859   0.880
  0.887   0.920   0.928   1.012   1.113   1.145   1.206   1.233
  1.303   1.335   1.373   1.392   1.498   1.522   1.562   1.604
  1.609   1.682   1.712   1.736   1.831   1.849   1.850   1.878
  1.920   1.952   2.023   2.042   2.047   2.091   2.109   2.134
  2.153   2.287   2.341   2.394   2.437   2.471   2.510   2.609
  2.640   2.662   2.685   2.703   2.717   2.779   2.852   2.872
  3.013   3.045   3.183   3.369   3.388   3.446   3.463   3.659
  3.855   4.230   4.302   4.448   4.676
 --------------------------------------------------------------
 
          Ground-State Mulliken Net Atomic Charges

     Atom                 Charge (a.u.)    Spin (a.u.)
  --------------------------------------------------------
      1 F                    -0.307557       0.029110
      2 F                    -0.270248       0.117314
      3 C                    -0.096647       0.916115
      4 C                     0.116066       0.901143
      5 C                    -0.335083      -0.051082
      6 H                     0.104440       0.009359
      7 H                     0.089149      -0.016496
      8 H                     0.361464       0.007123
      9 H                     0.124767       0.050891
     10 H                     0.093392       0.011525
     11 H                     0.120257       0.024999
  --------------------------------------------------------
  Sum of atomic charges =    -0.000000
  Sum of spin   charges =     2.000000

 -----------------------------------------------------------------
                    Cartesian Multipole Moments
 -----------------------------------------------------------------
    Charge (ESU x 10^10)
                 0.0000
    Dipole Moment (Debye)
         X      -0.7106      Y       0.0140      Z       1.7353
       Tot       1.8752
    Quadrupole Moments (Debye-Ang)
        XX     -28.2047     XY      -0.2298     YY     -32.4995
        XZ       0.7416     YZ      -3.6515     ZZ     -28.3948
    Octopole Moments (Debye-Ang^2)
       XXX      15.6300    XXY      -8.4397    XYY       2.7127
       YYY     -28.0611    XXZ       4.2158    XYZ      -2.3476
       YYZ       0.5413    XZZ       2.7215    YZZ      -9.2449
       ZZZ      22.7878
    Hexadecapole Moments (Debye-Ang^3)
      XXXX    -232.1141   XXXY      31.9260   XXYY     -68.1480
      XYYY      32.0461   YYYY    -175.8370   XXXZ      13.5774
      XXYZ     -18.6496   XYYZ       2.1299   YYYZ     -63.2587
      XXZZ     -73.6762   XYZZ      11.7297   YYZZ     -71.1705
      XZZZ      12.6935   YZZZ     -59.5575   ZZZZ    -188.8660
 -----------------------------------------------------------------
 Calculating analytic gradient of the SCF energy
 Gradient of SCF Energy
            1           2           3           4           5           6
    1  -0.0063490   0.0000068   0.0062262  -0.0000172   0.0000024   0.0000277
    2  -0.0074438  -0.0000341   0.0074416  -0.0000356  -0.0001471   0.0000072
    3  -0.0196797   0.0000217   0.0195095   0.0000356  -0.0001582   0.0000555
            7           8           9          10          11
    1   0.0000096   0.0001359  -0.0000068  -0.0000272  -0.0000085
    2   0.0000546   0.0000598   0.0000052   0.0000896   0.0000027
    3  -0.0000331   0.0001289   0.0000209   0.0000786   0.0000202
 Max gradient component =       1.968E-02
 RMS gradient           =       5.388E-03
 Gradient time:  CPU 8.26 s  wall 0.73 s
 Geometry Optimization Parameters
   NAtoms,    NIC,     NZ,  NCons,   NDum,   NFix, NCnnct, MaxDiis
       11     136       0       1       0       0       0       0

 Cartesian Hessian Update
 Hessian Updated using BFGS Update


** CONSTRAINED OPTIMIZATION IN DELOCALIZED INTERNAL COORDINATES **
   Searching for a Minimum

   Optimization Cycle:  36

                       Coordinates (Angstroms)
     ATOM                X               Y               Z
      1  F         0.3343888031    1.5022993273    1.5964749650
      2  F         0.8303318984   -1.0896392686   -1.5599005008
      3  C        -0.3270230407    0.7253995626   -0.4648259856
      4  C         0.6920053859   -0.3074625205   -0.4455049081
      5  C        -1.7482987700    0.4886284366   -0.0545953204
      6  H        -0.1102314093    1.6621333556   -0.9822095688
      7  H         1.6396869960   -0.2025354018    0.0806303082
      8  H         0.1439559754    0.6619911100    1.9401232205
      9  H        -2.3808076091    0.2172320678   -0.9142778298
     10  H        -1.8326828372   -0.3355558084    0.6635362995
     11  H        -2.1876283923    1.3879111393    0.3922503203
   Point Group: c1    Number of degrees of freedom:    27


   Energy is   -317.466483740

              Constraints and their Current Values
                                        Value     Constraint
   Distance(Angs):        1   3             2.300000     2.300000
 Hessian Updated using BFGS Update

 26 Hessian modes will be used to form the next step
  Hessian Eigenvalues:
     0.000214    0.001297    0.001727    0.006059    0.012325    0.018465
     0.034764    0.039254    0.046175    0.061488    0.063193    0.072272
     0.078163    0.084519    0.112192    0.123210    0.129128    0.271505
     0.278672    0.296767    0.317640    0.334931    0.341265    0.344784
     0.520236    0.626153

 Minimum Search - Taking Simple RFO Step
 Searching for Lamda that Minimizes Along All modes
 Value Taken    Lamda =   0.00000000
 Step Taken.  Stepsize is  0.013558

                             Maximum     Tolerance    Cnvgd?
         Gradient           0.000082      0.000300     YES
         Displacement       0.009237      0.001200      NO
         Energy change     -0.000001      0.000001     YES


                       Distance Matrix (Angstroms)
             F (  1)   F (  2)   C (  3)   C (  4)   C (  5)   H (  6)
   F (  2)  4.114221
   C (  3)  2.300000  2.415166
   C (  4)  2.751874  1.368507  1.451067
   C (  5)  2.844495  3.377308  1.498124  2.596470
   H (  6)  2.621612  2.964901  1.091858  2.193386  2.218298
   H (  7)  2.628317  2.033064  2.241993  1.089003  3.460411  2.769266
   H (  8)  0.927619  3.973599  2.451453  2.632759  2.754920  3.099181
   H (  9)  3.915044  3.526494  2.162931  3.152338  1.101262  2.692187
   H ( 10)  2.990700  3.550206  2.160055  2.757682  1.096409  3.109032
   H ( 11)  2.797108  4.365459  2.152987  3.445057  1.096080  2.505976
             H (  7)   H (  8)   H (  9)   H ( 10)
   H (  8)  2.538175
   H (  9)  4.162983  3.836645
   H ( 10)  3.523468  2.555753  1.759407
   H ( 11)  4.156317  2.891221  1.764886  1.780427
 
 Final energy is   -317.466483740033     


 ******************************
 **  OPTIMIZATION CONVERGED  **
 ******************************

                       Coordinates (Angstroms)
     ATOM                X               Y               Z
      1  F         0.3343888031    1.5022993273    1.5964749650
      2  F         0.8303318984   -1.0896392686   -1.5599005008
      3  C        -0.3270230407    0.7253995626   -0.4648259856
      4  C         0.6920053859   -0.3074625205   -0.4455049081
      5  C        -1.7482987700    0.4886284366   -0.0545953204
      6  H        -0.1102314093    1.6621333556   -0.9822095688
      7  H         1.6396869960   -0.2025354018    0.0806303082
      8  H         0.1439559754    0.6619911100    1.9401232205
      9  H        -2.3808076091    0.2172320678   -0.9142778298
     10  H        -1.8326828372   -0.3355558084    0.6635362995
     11  H        -2.1876283923    1.3879111393    0.3922503203

Z-matrix Print:
$molecule
0 3
F 
C  1 1.368507
H  2 1.089003 1 111.132901
C  2 1.451067 1 117.837817 3 150.424542 0
H  4 1.091858 2 118.524906 1 -79.725031 0
C  4 1.498124 2 123.373619 1 87.801135 0
H  6 1.096080 4 111.236823 2 148.093962 0
H  6 1.096409 4 111.788089 2 26.508707 0
H  6 1.101262 4 111.720269 2 -92.566853 0
F  4 2.300000 2 91.521328 1 -175.637057 0
H  10 0.927619 4 88.108331 2 -59.659412 0
$end

PES scan, value:    2.3000 energy: -317.4664837400
------- Summary of potential scan: ------ 
    2.3000      -317.4664837400
----------------------------------------- 
Archival summary:
1\1\hpc0244\JobtypUnspecified\ProcedureUnspecified\6-31G**\236(3)\knomura\WedMar1317:43:072019WedMar1317:43:072019\0\\#,JobtypUnspecified,ProcedureUnspecified,6-31G**,\\0,3\F\C,1,1.36851\H,2,1.089,1,111.133\C,2,1.45107,1,117.838,3,150.425,0\H,4,1.09186,2,118.525,1,-79.725,0\C,4,1.49812,2,123.374,1,87.8011,0\H,6,1.09608,4,111.237,2,148.094,0\H,6,1.09641,4,111.788,2,26.5087,0\H,6,1.10126,4,111.72,2,-92.5669,0\F,4,2.3,2,91.5213,1,-175.637,0\H,10,0.927619,4,88.1083,2,-59.6594,0\\\@

 Total job time:  125.02s(wall), 1362.58s(cpu) 
 Wed Mar 13 17:43:07 2019

        *************************************************************
        *                                                           *
        *  Thank you very much for using Q-Chem.  Have a nice day.  *
        *                                                           *
        *************************************************************


