
Running Job 1 of 1 halogens/Flourine/03/F_1_3.xyz.data/inputs/bond_singlet_1.0.in
qchem halogens/Flourine/03/F_1_3.xyz.data/inputs/bond_singlet_1.0.in_32590.0 /staging/scratch/2868761/qchem32590/ 1
/usr/usc/qchem/5.1.1/exe/qcprog.exe_s halogens/Flourine/03/F_1_3.xyz.data/inputs/bond_singlet_1.0.in_32590.0 /staging/scratch/2868761/qchem32590/
Check license passed

                  Welcome to Q-Chem
     A Quantum Leap Into The Future Of Chemistry


 Q-Chem 5.1, Q-Chem, Inc., Pleasanton, CA (2018)

 Yihan Shao,  Zhengting Gan,  E. Epifanovsky,  A. T. B. Gilbert,  M. Wormit,  
 J. Kussmann,  A. W. Lange,  A. Behn,  Jia Deng,  Xintian Feng,  D. Ghosh,  
 M. Goldey,  P. R. Horn,  L. D. Jacobson,  I. Kaliman,  T. Kus,  A. Landau,  
 Jie Liu,  E. I. Proynov,  R. M. Richard,  R. P. Steele,  E. J. Sundstrom,  
 H. L. Woodcock III,  P. M. Zimmerman,  D. Zuev,  B. Albrecht,  E. Alguire,  
 S. A. Baeppler,  D. Barton,  Z. Benda,  Y. A. Bernard,  E. J. Berquist,  
 K. B. Bravaya,  H. Burton,  D. Casanova,  Chun-Min Chang,  Yunqing Chen,  
 A. Chien,  K. D. Closser,  M. P. Coons,  S. Coriani,  S. Dasgupta,  
 A. L. Dempwolff,  M. Diedenhofen,  Hainam Do,  R. G. Edgar,  Po-Tung Fang,  
 S. Faraji,  S. Fatehi,  Qingguo Feng,  K. D. Fenk,  J. Fosso-Tande,  
 Qinghui Ge,  A. Ghysels,  G. Gidofalvi,  J. Gomes,  J. Gonthier,  A. Gunina,  
 D. Hait,  M. W. D. Hanson-Heine,  P. H. P. Harbach,  A. W. Hauser,  
 J. E. Herr,  E. G. Hohenstein,  Z. C. Holden,  Kerwin Hui,  B. C. Huynh,  
 T.-C. Jagau,  Hyunjun Ji,  B. Kaduk,  K. Khistyaev,  Jaehoon Kim,  
 P. Klunzinger,  K. Koh,  D. Kosenkov,  L. Koulias,  T. Kowalczyk,  
 C. M. Krauter,  A. Kunitsa,  Ka Un Lao,  A. Laurent,  K. V. Lawler,  
 Joonho Lee,  D. Lefrancois,  S. Lehtola,  D. S. Levine,  Yi-Pei Li,  
 You-Sheng Lin,  Fenglai Liu,  E. Livshits,  A. Luenser,  P. Manohar,  
 E. Mansoor,  S. F. Manzer,  Shan-Ping Mao,  Yuezhi Mao,  N. Mardirossian,  
 A. V. Marenich,  T. Markovich,  L. A. Martinez-Martinez,  S. A. Maurer,  
 N. J. Mayhall,  S. C. McKenzie,  J.-M. Mewes,  A. F. Morrison,  
 J. W. Mullinax,  K. Nanda,  T. S. Nguyen-Beck,  R. Olivares-Amaya,  
 J. A. Parkhill,  T. M. Perrine,  F. Plasser,  P. Pokhilko,  S. Prager,  
 A. Prociuk,  E. Ramos,  D. R. Rehn,  F. Rob,  M. Schneider,  N. Sergueev,  
 S. M. Sharada,  S. Sharma,  D. W. Small,  T. Stauch,  T. Stein,  
 Yu-Chuan Su,  A. J. W. Thom,  A. Tkatchenko,  T. Tsuchimochi,  N. M. Tubman,  
 L. Vogt,  M. L. Vidal,  O. Vydrov,  M. A. Watson,  J. Wenzel,  
 M. de Wergifosse,  T. A. Wesolowski,  A. White,  J. Witte,  A. Yamada,  
 Jun Yang,  K. Yao,  S. Yeganeh,  S. R. Yost,  Zhi-Qiang You,  A. Zech,  
 Igor Ying Zhang,  Xing Zhang,  Yan Zhao,  Ying Zhu,  B. R. Brooks,  
 G. K. L. Chan,  C. J. Cramer,  M. S. Gordon,  W. J. Hehre,  A. Klamt,  
 M. W. Schmidt,  C. D. Sherrill,  D. G. Truhlar,  A. Aspuru-Guzik,  R. Baer,  
 A. T. Bell,  N. A. Besley,  Jeng-Da Chai,  A. E. DePrince, III,  
 R. A. DiStasio Jr.,  A. Dreuw,  B. D. Dunietz,  T. R. Furlani,  
 Chao-Ping Hsu,  Yousung Jung,  Jing Kong,  D. S. Lambrecht,  WanZhen Liang,  
 C. Ochsenfeld,  V. A. Rassolov,  L. V. Slipchenko,  J. E. Subotnik,  
 T. Van Voorhis,  J. M. Herbert,  A. I. Krylov,  P. M. W. Gill,  M. Head-Gordon

 Contributors to earlier versions of Q-Chem not listed above: 
 R. D. Adamson,  B. Austin,  J. Baker,  G. J. O. Beran,  K. Brandhorst,  
 S. T. Brown,  E. F. C. Byrd,  A. K. Chakraborty,  C.-L. Cheng,  
 Siu Hung Chien,  D. M. Chipman,  D. L. Crittenden,  H. Dachsel,  
 R. J. Doerksen,  A. D. Dutoi,  L. Fusti-Molnar,  W. A. Goddard III,  
 A. Golubeva-Zadorozhnaya,  S. R. Gwaltney,  G. Hawkins,  A. Heyden,  
 S. Hirata,  G. Kedziora,  F. J. Keil,  C. Kelley,  Jihan Kim,  R. A. King,  
 R. Z. Khaliullin,  P. P. Korambath,  W. Kurlancheek,  A. M. Lee,  M. S. Lee,  
 S. V. Levchenko,  Ching Yeh Lin,  D. Liotard,  R. C. Lochan,  I. Lotan,  
 P. E. Maslen,  N. Nair,  D. P. O'Neill,  D. Neuhauser,  E. Neuscamman,  
 C. M. Oana,  R. Olson,  B. Peters,  R. Peverati,  P. A. Pieniazek,  
 Y. M. Rhee,  J. Ritchie,  M. A. Rohrdanz,  E. Rosta,  N. J. Russ,  
 H. F. Schaefer III,  N. E. Schultz,  N. Shenvi,  A. C. Simmonett,  A. Sodt,  
 D. Stuck,  K. S. Thanthiriwatte,  V. Vanovschi,  Tao Wang,  A. Warshel,  
 C. F. Williams,  Q. Wu,  X. Xu,  W. Zhang

 Please cite Q-Chem as follows:
 Y. Shao et al., Mol. Phys. 113, 184-215 (2015)
 DOI: 10.1080/00268976.2014.952696

 Q-Chem 5.1.1 for Intel X86 EM64T Linux

 Parts of Q-Chem use Armadillo 8.300.2 (Tropical Shenanigans).
 http://arma.sourceforge.net/

 Q-Chem begins on Wed Mar 13 16:23:28 2019  

Host: 
0

     Scratch files written to /staging/scratch/2868761/qchem32590//
 Aug318 |scratch|qcdevops|jenkins|workspace|build_RNUM 6013   
Processing $rem in /usr/usc/qchem/5.1.1/config/preferences.
 MEM_TOTAL  2000 
Input Ideriv = 2
Curr. Ideriv = -1
Max.  Ideriv = 2

Checking the input file for inconsistencies... 	...done.

--------------------------------------------------------------
User input:
--------------------------------------------------------------

$comment
potential surface scanner
$end

$rem
JOBTYPE  PES_SCAN
UNRESTRICTED TRUE
SYM_IGNORE  TRUE
GEOM_OPT_MAX_CYCLES 400
SCF_MAX_CYCLES 400
METHOD   B3LYP
BASIS   6-31G**
PDB_PRINT 2
SCF_CONVERGENCE 6
THRESH 14
SCF_PRINT 1
$end
$molecule
0 1
F -0.486400 -1.298900 0.159500
F 1.889200 0.001700 -0.126500
C -0.435600 -0.028600 -0.332400
C 0.768200 0.660400 0.276200
C -1.735300 0.665500 0.023300
H -0.320900 -0.108600 -1.417700
H 0.851700 1.700600 -0.050500
H 0.742100 0.621000 1.368800
H -1.880200 0.688200 1.108400
H -1.756200 1.691300 -0.356400
H -2.582900 0.117800 -0.401000
$end
$scan
stre 1 3 1.000000 1.001000 0.100000
$end
--------------------------------------------------------------
 ----------------------------------------------------------------
             Standard Nuclear Orientation (Angstroms)
    I     Atom           X                Y                Z
 ----------------------------------------------------------------
    1      F      -0.4864000000    -1.2989000000     0.1595000000
    2      F       1.8892000000     0.0017000000    -0.1265000000
    3      C      -0.4356000000    -0.0286000000    -0.3324000000
    4      C       0.7682000000     0.6604000000     0.2762000000
    5      C      -1.7353000000     0.6655000000     0.0233000000
    6      H      -0.3209000000    -0.1086000000    -1.4177000000
    7      H       0.8517000000     1.7006000000    -0.0505000000
    8      H       0.7421000000     0.6210000000     1.3688000000
    9      H      -1.8802000000     0.6882000000     1.1084000000
   10      H      -1.7562000000     1.6913000000    -0.3564000000
   11      H      -2.5829000000     0.1178000000    -0.4010000000
 ----------------------------------------------------------------
 Nuclear Repulsion Energy =   192.1347219537 hartrees
 There are       21 alpha and       21 beta electrons
 Requested basis set is 6-31G(d,p)
 There are 38 shells and 105 basis functions

 Total QAlloc Memory Limit   2000 MB
 Mega-Array Size       188 MB
 MEM_STATIC part       192 MB
A total of 1 constraints
  
            1
    1   1.0100000
    2   1.0100000
    3   3.0100000
    4   1.0000000
    5   1.0010000
    6   0.1000000
    7   0.0000000
    8   0.0000000
    9   0.0000000
   10   0.0000000

                       Distance Matrix (Angstroms)
             F (  1)   F (  2)   C (  3)   C (  4)   C (  5)   H (  6)
   F (  2)  2.723386
   C (  3)  1.363161  2.334097
   C (  4)  2.329484  1.361137  1.514678
   C (  5)  2.331774  3.687827  1.515756  2.516247
   H (  6)  1.982868  2.562012  1.094272  2.155643  2.162461
   H (  7)  3.291141  1.992095  2.174107  1.093490  2.787373  2.552926
   H (  8)  2.580239  1.983757  2.168649  1.093622  2.819550  3.070320
   H (  9)  2.606081  4.025498  2.162539  2.776212  1.094967  3.073677
   H ( 10)  3.289353  4.024493  2.168552  2.799202  1.094018  2.534972
   H ( 11)  2.591623  4.482021  2.153378  3.461631  1.094729  2.490297
             H (  7)   H (  8)   H (  9)   H ( 10)
   H (  8)  1.786606
   H (  9)  3.135487  2.636054
   H ( 10)  2.625796  3.219217  1.779670
   H ( 11)  3.797971  3.800135  1.759952  1.778011
 
 A cutoff of  1.0D-14 yielded    720 shell pairs
 There are      5627 function pairs
 
 -------------------------------------------------------
 OpenMP Integral Computing Module                       
 Release: version 1.0, May 2013, Q-Chem Inc. Pittsburgh 
 -------------------------------------------------------
 Integral Job Info:
 Integral job number is                      11
 Integral operator is                         1
 short-range coefficients                     0
 long-range coefficients              100000000
 Omega coefficients                           0
 if combine SR and LR in K                    0
 Integral screening is                        0
 Integral computing path is                   2
 max size of driver memory is            800000
 size of driver memory is                593474
 size of scratch memory is              2361544
 max col of scratch BK array               1296
 max len of scratch array in speh3          155
 max len of scratch index in speh4           18
 max int batch size is                      520
 min int batch size is                       52
 fixed nKL is                                52
 max L of basis functions is                  2
 order of int derivative is                   0
 number of shells is                         38
 number of basis is                         105
 number of cartesian basis is               105
 number of contracted shell pairs           720
 number of primitive shell pairs           2672
 maxK2 (contraction) of shell pair           36
 max number of K2 of shell pair               1
 max number of CS2 of shell pair             62
 max number of PS2 of shell pair            246
 mem total for path MDJ                  519084
 -------------------------------------------------------
 Smallest overlap matrix eigenvalue = 3.28E-03

 Scale SEOQF with 1.000000e-01/1.000000e-01/1.000000e+00

 Standard Electronic Orientation quadrupole field applied
 Nucleus-field energy     =    -0.0000000029 hartrees
 Guess from superposition of atomic densities
 Warning:  Energy on first SCF cycle will be non-variational
 SAD guess density has 42.000000 electrons

 -----------------------------------------------------------------------
  General SCF calculation program by
  Eric Jon Sundstrom, Paul Horn, Yuezhi Mao, Dmitri Zuev, Alec White,
  David Stuck, Shaama M.S., Shane Yost, Joonho Lee, David Small,
  Daniel Levine, Susi Lehtola, Hugh Burton, Evgeny Epifanovsky
 -----------------------------------------------------------------------
 Exchange:     0.2000 Hartree-Fock + 0.0800 Slater + 0.7200 B88
 Correlation:  0.1900 VWN1RPA + 0.8100 LYP
 Using SG-1 standard quadrature grid
 using 12 threads for integral computing
 -------------------------------------------------------
 OpenMP Integral computing Module                
 Release: version 1.0, May 2013, Q-Chem Inc. Pittsburgh 
 -------------------------------------------------------
 -------------------------------------------------------
 OpenMP BLAS3 based DFT computing Module                
 Release: version 1.0, May 2013, Q-Chem Inc. Pittsburgh 
 -------------------------------------------------------
 A unrestricted SCF calculation will be
 performed using DIIS
 SCF converges when DIIS error is below 1.0e-06
 Alpha HF Exchange    Energy =  -3.79204471419278
 Beta HF Exchange     Energy =  -3.79204471419278
 DFT Correlation      Energy =  -1.85855766612101
 DFT Exchange         Energy = -29.67659817107451
 One-Electron (alpha) Energy = -407.45039050700956
 One-Electron (beta)  Energy = -407.45039050700956
 Total Coulomb        Energy = 343.63647256145197
 ---------------------------------------
  Cycle       Energy         DIIS error
 ---------------------------------------
    1    -318.2488317674      3.24e-02  
 Alpha HF Exchange    Energy =  -3.82233087723281
 Beta HF Exchange     Energy =  -3.82233087723281
 DFT Correlation      Energy =  -1.88331707906225
 DFT Exchange         Energy = -30.36980697835379
 One-Electron (alpha) Energy = -410.67174124900066
 One-Electron (beta)  Energy = -410.67174124900072
 Total Coulomb        Energy = 351.56441083182824
    2    -317.5421355273      3.69e-03  
 Alpha HF Exchange    Energy =  -3.75001015992327
 Beta HF Exchange     Energy =  -3.75001015992327
 DFT Correlation      Energy =  -1.86137912578709
 DFT Exchange         Energy = -29.79381884519565
 One-Electron (alpha) Energy = -407.49883684900431
 One-Electron (beta)  Energy = -407.49883684900419
 Total Coulomb        Energy = 344.48190615134274
    3    -317.5362638867      4.02e-03  
 Alpha HF Exchange    Energy =  -3.78805441808922
 Beta HF Exchange     Energy =  -3.78805441808922
 DFT Correlation      Energy =  -1.87225361837682
 DFT Exchange         Energy = -30.09241715338988
 One-Electron (alpha) Energy = -409.12599303817615
 One-Electron (beta)  Energy = -409.12599303817632
 Total Coulomb        Energy = 348.05185954410297
    4    -317.6061841894      4.54e-04  
 Alpha HF Exchange    Energy =  -3.78639761129064
 Beta HF Exchange     Energy =  -3.78639761129063
 DFT Correlation      Energy =  -1.87258215426006
 DFT Exchange         Energy = -30.08227124291857
 One-Electron (alpha) Energy = -409.15847828678784
 One-Electron (beta)  Energy = -409.15847828678773
 Total Coulomb        Energy = 348.10304878396613
    5    -317.6068344586      2.10e-04  
 Alpha HF Exchange    Energy =  -3.78678154737912
 Beta HF Exchange     Energy =  -3.78678154737912
 DFT Correlation      Energy =  -1.87236544179638
 DFT Exchange         Energy = -30.08414694569582
 One-Electron (alpha) Energy = -409.13131470552548
 One-Electron (beta)  Energy = -409.13131470552565
 Total Coulomb        Energy = 348.05095515639618
    6    -317.6070277861      2.63e-05  
 Alpha HF Exchange    Energy =  -3.78666834792540
 Beta HF Exchange     Energy =  -3.78666834792539
 DFT Correlation      Energy =  -1.87235138965975
 DFT Exchange         Energy = -30.08326480520493
 One-Electron (alpha) Energy = -409.12711931017191
 One-Electron (beta)  Energy = -409.12711931017174
 Total Coulomb        Energy = 348.04143912924997
    7    -317.6070304310      1.10e-05  
 Alpha HF Exchange    Energy =  -3.78671664435523
 Beta HF Exchange     Energy =  -3.78671664435523
 DFT Correlation      Energy =  -1.87236712873601
 DFT Exchange         Energy = -30.08366149407538
 One-Electron (alpha) Energy = -409.13049445057754
 One-Electron (beta)  Energy = -409.13049445057754
 Total Coulomb        Energy = 348.04869783067409
    8    -317.6070310312      9.75e-07  Convergence criterion met
 ---------------------------------------
 SCF time:   CPU 19.49s  wall 1.00s 
<S^2> =          0.000000000
 Alpha HF Exchange    Energy =  -3.78671664435523
 Beta HF Exchange     Energy =  -3.78671664435523
 DFT Correlation      Energy =  -1.87236712873601
 DFT Exchange         Energy = -30.08366149407538
 One-Electron (alpha) Energy = -409.13049445057754
 One-Electron (beta)  Energy = -409.13049445057754
 Total Coulomb        Energy = 348.04869783067409
 Nuclear repulsion Energy = 192.13472195078685
 SCF   energy in the final basis set =     -317.6070310312
 Total energy in the final basis set =     -317.6070310312
 
 --------------------------------------------------------------
 
                    Orbital Energies (a.u.)
 --------------------------------------------------------------
 
 Alpha MOs
 -- Occupied --
-24.674 -24.673 -10.265 -10.260 -10.191  -1.199  -1.184  -0.791
 -0.698  -0.613  -0.526  -0.502  -0.497  -0.463  -0.445  -0.408
 -0.397  -0.378  -0.337  -0.331  -0.312
 -- Virtual --
  0.091   0.103   0.114   0.150   0.166   0.179   0.181   0.199
  0.239   0.258   0.512   0.529   0.539   0.558   0.591   0.618
  0.641   0.662   0.715   0.796   0.847   0.861   0.869   0.893
  0.913   0.942   1.080   1.144   1.194   1.208   1.292   1.374
  1.387   1.389   1.414   1.416   1.526   1.609   1.638   1.740
  1.752   1.803   1.810   1.848   1.895   1.948   1.993   2.013
  2.023   2.029   2.058   2.071   2.086   2.105   2.122   2.212
  2.241   2.302   2.326   2.394   2.446   2.487   2.633   2.693
  2.696   2.734   2.796   2.841   2.893   2.912   2.919   3.068
  3.125   3.180   3.244   3.315   3.438   3.476   3.486   4.211
  4.316   4.496   4.600   4.652
 
 Beta MOs
 -- Occupied --
-24.674 -24.673 -10.265 -10.260 -10.191  -1.199  -1.184  -0.791
 -0.698  -0.613  -0.526  -0.502  -0.497  -0.463  -0.445  -0.408
 -0.397  -0.378  -0.337  -0.331  -0.312
 -- Virtual --
  0.091   0.103   0.114   0.150   0.166   0.179   0.181   0.199
  0.239   0.258   0.512   0.529   0.539   0.558   0.591   0.618
  0.641   0.662   0.715   0.796   0.847   0.861   0.869   0.893
  0.913   0.942   1.080   1.144   1.194   1.208   1.292   1.374
  1.387   1.389   1.414   1.416   1.526   1.609   1.638   1.740
  1.752   1.803   1.810   1.848   1.895   1.948   1.993   2.013
  2.023   2.029   2.058   2.071   2.086   2.105   2.122   2.212
  2.241   2.302   2.326   2.394   2.446   2.487   2.633   2.693
  2.696   2.734   2.796   2.841   2.893   2.912   2.919   3.068
  3.125   3.180   3.244   3.315   3.438   3.476   3.486   4.211
  4.316   4.496   4.600   4.652
 --------------------------------------------------------------
 
          Ground-State Mulliken Net Atomic Charges

     Atom                 Charge (a.u.)    Spin (a.u.)
  --------------------------------------------------------
      1 F                    -0.311107       0.000000
      2 F                    -0.310193       0.000000
      3 C                     0.217758      -0.000000
      4 C                     0.133750      -0.000000
      5 C                    -0.354811       0.000000
      6 H                     0.092573      -0.000000
      7 H                     0.084019      -0.000000
      8 H                     0.096168       0.000000
      9 H                     0.119163      -0.000000
     10 H                     0.106905      -0.000000
     11 H                     0.125775      -0.000000
  --------------------------------------------------------
  Sum of atomic charges =     0.000000
  Sum of spin   charges =    -0.000000

 -----------------------------------------------------------------
                    Cartesian Multipole Moments
 -----------------------------------------------------------------
    Charge (ESU x 10^10)
                -0.0000
    Dipole Moment (Debye)
         X      -1.4030      Y       2.0805      Z      -0.0638
       Tot       2.5102
    Quadrupole Moments (Debye-Ang)
        XX     -31.2948     XY       0.0130     YY     -29.8409
        XZ       0.8793     YZ       0.4749     ZZ     -27.7222
    Octopole Moments (Debye-Ang^2)
       XXX       4.4486    XXY      -3.6994    XYY       5.8805
       YYY      -8.3796    XXZ       0.1553    XYZ      -0.0977
       YYZ      -0.9433    XZZ       4.2132    YZZ      -3.9593
       ZZZ      -0.0582
    Hexadecapole Moments (Debye-Ang^3)
      XXXX    -322.3678   XXXY       8.8791   XXYY     -73.5927
      XYYY       6.1078   YYYY    -127.5276   XXXZ      -0.2002
      XXYZ      -0.1554   XYYZ      -0.2931   YYYZ      -4.1810
      XXZZ     -60.6447   XYZZ       2.4281   YYZZ     -30.9785
      XZZZ      -2.8213   YZZZ      -1.5534   ZZZZ     -52.3679
 -----------------------------------------------------------------
 Calculating analytic gradient of the SCF energy
 Gradient of SCF Energy
            1           2           3           4           5           6
    1  -0.0007120  -0.0212058   0.0063730   0.0048296   0.0058588  -0.0029890
    2   0.0245443   0.0106685  -0.0195959  -0.0036954  -0.0019710  -0.0031373
    3  -0.0087922   0.0073340  -0.0005564   0.0001915   0.0007879   0.0026986
            7           8           9          10          11
    1   0.0040297   0.0057274  -0.0017139   0.0008544  -0.0010522
    2  -0.0035753  -0.0012543  -0.0007729  -0.0002788  -0.0009319
    3   0.0000155  -0.0026150  -0.0000706   0.0001621   0.0008447
 Max gradient component =       2.454E-02
 RMS gradient           =       7.591E-03
 Gradient time:  CPU 10.61 s  wall 0.96 s
 Geometry Optimization Parameters
   NAtoms,    NIC,     NZ,  NCons,   NDum,   NFix, NCnnct, MaxDiis
       11      68       0       1       0       0       0       0


** CONSTRAINED OPTIMIZATION IN DELOCALIZED INTERNAL COORDINATES **
   Searching for a Minimum

   Optimization Cycle:   1

                       Coordinates (Angstroms)
     ATOM                X               Y               Z
      1  F        -0.4864000000   -1.2989000000    0.1595000000
      2  F         1.8892000000    0.0017000000   -0.1265000000
      3  C        -0.4356000000   -0.0286000000   -0.3324000000
      4  C         0.7682000000    0.6604000000    0.2762000000
      5  C        -1.7353000000    0.6655000000    0.0233000000
      6  H        -0.3209000000   -0.1086000000   -1.4177000000
      7  H         0.8517000000    1.7006000000   -0.0505000000
      8  H         0.7421000000    0.6210000000    1.3688000000
      9  H        -1.8802000000    0.6882000000    1.1084000000
     10  H        -1.7562000000    1.6913000000   -0.3564000000
     11  H        -2.5829000000    0.1178000000   -0.4010000000
   Point Group: c1    Number of degrees of freedom:    27


   Energy is   -317.607031031

              Constraints and their Current Values
                                        Value     Constraint
   Distance(Angs):        1   3             1.363161     1.000000

 Attempting to Generate Delocalized Internal Coordinates
**WARNING** Constraint Gradient Reduced for constraint   1

   Using Lagrange Multiplier Algorithm


 28 Hessian modes will be used to form the next step
  Hessian Eigenvalues:
    -0.772075    0.045000    0.045000    0.073792    0.082489    0.083926
     0.083980    0.084052    0.085207    0.112759    0.160000    0.160000
     0.160000    0.160000    0.160000    0.177486    0.223461    0.231280
     0.307790    0.308850    0.342449    0.342718    0.343235    0.343524
     0.343974    0.344124    0.527184    1.295211

 Minimum Search - Taking P-RFO Step
 Searching for Lamda that Maximizes Along the Constraint modes Only
 Value Taken    Lamda =   0.07571651


 ********************************************
 ** ERROR IN DETERMINING Lamda IN CONFormD **
 ********************************************


 ** Scaling Hessian by  3.365178 **


 28 Hessian modes will be used to form the next step
  Hessian Eigenvalues:
    -0.451990    0.151433    0.151433    0.248323    0.277590    0.282425
     0.282608    0.282849    0.286736    0.379455    0.538429    0.538429
     0.538429    0.538429    0.538429    0.597271    0.751986    0.778298
     1.035768    1.039335    1.152401    1.153308    1.155048    1.156021
     1.157535    1.158038    1.774067    2.212438

 Minimum Search - Taking P-RFO Step
 Searching for Lamda that Maximizes Along the Constraint modes Only
 Value Taken    Lamda =   0.13702039
 Searching for Lamda that Minimizes Along All other modes
 Value Taken    Lamda =  -0.00533135
 Step Taken.  Stepsize is  0.242700

                             Maximum     Tolerance    Cnvgd?
         Gradient            0.300000       0.000300      NO
         Displacement        0.420962       0.001200      NO
         Energy change     *********       0.000001      NO


 New Cartesian Coordinates Obtained by Inverse Iteration

 Displacement from previous Coordinates is:  0.223257
 ----------------------------------------------------------------
             Standard Nuclear Orientation (Angstroms)
    I     Atom           X                Y                Z
 ----------------------------------------------------------------
    1      F      -0.4811341271    -1.1937972170     0.1275230804
    2      F       1.9024434735    -0.0111177475    -0.1236228988
    3      C      -0.4370100655    -0.0431589507    -0.3225787343
    4      C       0.7717498731     0.6473766875     0.2773004184
    5      C      -1.7379765704     0.6567918174     0.0273577629
    6      H      -0.3182275007    -0.1240696858    -1.4086417480
    7      H       0.8435573329     1.6880780482    -0.0552518630
    8      H       0.7347740098     0.6146059293     1.3710374324
    9      H      -1.8813536537     0.6860088465     1.1124388687
   10      H      -1.7578359262     1.6807746558    -0.3577014947
   11      H      -2.5852868458     0.1089076163    -0.3961608240
 ----------------------------------------------------------------
 Nuclear Repulsion Energy =   195.6842946135 hartrees
 There are       21 alpha and       21 beta electrons

                       Distance Matrix (Angstroms)
             F (  1)   F (  2)   C (  3)   C (  4)   C (  5)   H (  6)
   F (  2)  2.672685
   C (  3)  1.236328  2.348117
   C (  4)  2.232056  1.368511  1.515848
   C (  5)  2.239278  3.704262  1.518190  2.522159
   H (  6)  1.879005  2.568153  1.095531  2.150716  2.165070
   H (  7)  3.177014  2.003292  2.169907  1.094900  2.781132  2.542693
   H (  8)  2.509000  1.997246  2.161959  1.094852  2.814560  3.062853
   H (  9)  2.542508  4.041158  2.162658  2.781709  1.094903  3.074970
   H ( 10)  3.182542  4.039175  2.172041  2.805342  1.094169  2.536614
   H ( 11)  2.529574  4.497600  2.154909  3.466006  1.094294  2.493783
             H (  7)   H (  8)   H (  9)   H ( 10)
   H (  8)  1.788429
   H (  9)  3.129342  2.629847
   H ( 10)  2.618926  3.215332  1.779362
   H ( 11)  3.790379  3.794934  1.761942  1.776772
 
 Applying Cartesian multipole field
    Component          Value
    ---------          -----
     (2,0,0)        1.00000E-11
     (0,2,0)        2.00000E-11
     (0,0,2)       -3.00000E-10
 Nucleus-field energy     =    -0.0000000029 hartrees
 Requested basis set is 6-31G(d,p)
 There are 38 shells and 105 basis functions
 A cutoff of  1.0D-14 yielded    720 shell pairs
 There are      5627 function pairs
 Smallest overlap matrix eigenvalue = 2.90E-03
 Guess from superposition of atomic densities
 Warning:  Energy on first SCF cycle will be non-variational
 SAD guess density has 42.000000 electrons

 -----------------------------------------------------------------------
  General SCF calculation program by
  Eric Jon Sundstrom, Paul Horn, Yuezhi Mao, Dmitri Zuev, Alec White,
  David Stuck, Shaama M.S., Shane Yost, Joonho Lee, David Small,
  Daniel Levine, Susi Lehtola, Hugh Burton, Evgeny Epifanovsky
 -----------------------------------------------------------------------
 Exchange:     0.2000 Hartree-Fock + 0.0800 Slater + 0.7200 B88
 Correlation:  0.1900 VWN1RPA + 0.8100 LYP
 Using SG-1 standard quadrature grid
 using 12 threads for integral computing
 -------------------------------------------------------
 OpenMP Integral computing Module                
 Release: version 1.0, May 2013, Q-Chem Inc. Pittsburgh 
 -------------------------------------------------------
 -------------------------------------------------------
 OpenMP BLAS3 based DFT computing Module                
 Release: version 1.0, May 2013, Q-Chem Inc. Pittsburgh 
 -------------------------------------------------------
 A unrestricted SCF calculation will be
 performed using DIIS
 SCF converges when DIIS error is below 1.0e-06
 Alpha HF Exchange    Energy =  -3.81023172800386
 Beta HF Exchange     Energy =  -3.81023172800386
 DFT Correlation      Energy =  -1.86258527369043
 DFT Exchange         Energy = -29.71599213312161
 One-Electron (alpha) Energy = -410.88711188839420
 One-Electron (beta)  Energy = -410.88711188839420
 Total Coulomb        Energy = 346.84655751814807
 ---------------------------------------
  Cycle       Energy         DIIS error
 ---------------------------------------
    1    -318.4424125109      3.46e-02  
 Alpha HF Exchange    Energy =  -3.82951667835131
 Beta HF Exchange     Energy =  -3.82951667835130
 DFT Correlation      Energy =  -1.88757712963185
 DFT Exchange         Energy = -30.42152813420494
 One-Electron (alpha) Energy = -414.11155403523213
 One-Electron (beta)  Energy = -414.11155403523213
 Total Coulomb        Energy = 354.98685495513405
    2    -317.5200971253      3.68e-03  
 Alpha HF Exchange    Energy =  -3.75872661582878
 Beta HF Exchange     Energy =  -3.75872661582878
 DFT Correlation      Energy =  -1.86523499329153
 DFT Exchange         Energy = -29.85334850959374
 One-Electron (alpha) Energy = -410.84378001190993
 One-Electron (beta)  Energy = -410.84378001190993
 Total Coulomb        Energy = 347.72214779711061
    3    -317.5171543507      3.86e-03  
 Alpha HF Exchange    Energy =  -3.79513377467755
 Beta HF Exchange     Energy =  -3.79513377467755
 DFT Correlation      Energy =  -1.87644672637253
 DFT Exchange         Energy = -30.14204945457049
 One-Electron (alpha) Energy = -412.53420249712173
 One-Electron (beta)  Energy = -412.53420249712184
 Total Coulomb        Energy = 351.40785614893360
    4    -317.5850179651      3.71e-04  
 Alpha HF Exchange    Energy =  -3.79376473684530
 Beta HF Exchange     Energy =  -3.79376473684530
 DFT Correlation      Energy =  -1.87658022181875
 DFT Exchange         Energy = -30.13325900618468
 One-Electron (alpha) Energy = -412.54352977325533
 One-Electron (beta)  Energy = -412.54352977325556
 Total Coulomb        Energy = 351.41470375305443
    5    -317.5854298846      1.87e-04  
 Alpha HF Exchange    Energy =  -3.79406665532075
 Beta HF Exchange     Energy =  -3.79406665532075
 DFT Correlation      Energy =  -1.87639662484775
 DFT Exchange         Energy = -30.13469557920926
 One-Electron (alpha) Energy = -412.51864626827347
 One-Electron (beta)  Energy = -412.51864626827359
 Total Coulomb        Energy = 351.36664622962428
    6    -317.5855772111      2.81e-05  
 Alpha HF Exchange    Energy =  -3.79396329727040
 Beta HF Exchange     Energy =  -3.79396329727040
 DFT Correlation      Energy =  -1.87639242239609
 DFT Exchange         Energy = -30.13392092344623
 One-Electron (alpha) Energy = -412.51653588386324
 One-Electron (beta)  Energy = -412.51653588386318
 Total Coulomb        Energy = 351.36143700031641
    7    -317.5855800972      1.05e-05  
 Alpha HF Exchange    Energy =  -3.79400562664555
 Beta HF Exchange     Energy =  -3.79400562664555
 DFT Correlation      Energy =  -1.87640516525117
 DFT Exchange         Energy = -30.13426453857103
 One-Electron (alpha) Energy = -412.51928048922628
 One-Electron (beta)  Energy = -412.51928048922622
 Total Coulomb        Energy = 351.36736670749536
    8    -317.5855806175      1.15e-06  
 Alpha HF Exchange    Energy =  -3.79400327262523
 Beta HF Exchange     Energy =  -3.79400327262523
 DFT Correlation      Energy =  -1.87640419313965
 DFT Exchange         Energy = -30.13424464651565
 One-Electron (alpha) Energy = -412.51906841619297
 One-Electron (beta)  Energy = -412.51906841619302
 Total Coulomb        Energy = 351.36691698273972
    9    -317.5855806240      2.10e-07  Convergence criterion met
 ---------------------------------------
 SCF time:   CPU 21.77s  wall 2.00s 
<S^2> =          0.000000000
 Alpha HF Exchange    Energy =  -3.79400327262523
 Beta HF Exchange     Energy =  -3.79400327262523
 DFT Correlation      Energy =  -1.87640419313965
 DFT Exchange         Energy = -30.13424464651565
 One-Electron (alpha) Energy = -412.51906841619297
 One-Electron (beta)  Energy = -412.51906841619302
 Total Coulomb        Energy = 351.36691698273972
 Nuclear repulsion Energy = 195.68429461054714
 SCF   energy in the final basis set =     -317.5855806240
 Total energy in the final basis set =     -317.5855806240
 
 --------------------------------------------------------------
 
                    Orbital Energies (a.u.)
 --------------------------------------------------------------
 
 Alpha MOs
 -- Occupied --
-24.690 -24.672 -10.260 -10.253 -10.185  -1.264  -1.185  -0.783
 -0.698  -0.622  -0.546  -0.519  -0.504  -0.469  -0.462  -0.408
 -0.401  -0.382  -0.335  -0.322  -0.303
 -- Virtual --
  0.093   0.111   0.123   0.157   0.170   0.181   0.186   0.223
  0.253   0.272   0.513   0.532   0.563   0.585   0.608   0.627
  0.642   0.657   0.713   0.797   0.848   0.863   0.871   0.895
  0.915   0.946   1.066   1.135   1.197   1.217   1.295   1.375
  1.387   1.392   1.407   1.417   1.528   1.631   1.654   1.719
  1.739   1.797   1.812   1.847   1.907   1.977   2.006   2.021
  2.032   2.044   2.062   2.085   2.112   2.118   2.168   2.232
  2.273   2.350   2.359   2.422   2.457   2.530   2.656   2.700
  2.732   2.741   2.839   2.855   2.903   2.958   2.986   3.076
  3.159   3.202   3.251   3.318   3.439   3.479   3.493   4.261
  4.331   4.510   4.639   4.830
 
 Beta MOs
 -- Occupied --
-24.690 -24.672 -10.260 -10.253 -10.185  -1.264  -1.185  -0.783
 -0.698  -0.622  -0.546  -0.519  -0.504  -0.469  -0.462  -0.408
 -0.401  -0.382  -0.335  -0.322  -0.303
 -- Virtual --
  0.093   0.111   0.123   0.157   0.170   0.181   0.186   0.223
  0.253   0.272   0.513   0.532   0.563   0.585   0.608   0.627
  0.642   0.657   0.713   0.797   0.848   0.863   0.871   0.895
  0.915   0.946   1.066   1.135   1.197   1.217   1.295   1.375
  1.387   1.392   1.407   1.417   1.528   1.631   1.654   1.719
  1.739   1.797   1.812   1.847   1.907   1.977   2.006   2.021
  2.032   2.044   2.062   2.085   2.112   2.118   2.168   2.232
  2.273   2.350   2.359   2.422   2.457   2.530   2.656   2.700
  2.732   2.741   2.839   2.855   2.903   2.958   2.986   3.076
  3.159   3.202   3.251   3.318   3.439   3.479   3.493   4.261
  4.331   4.510   4.639   4.830
 --------------------------------------------------------------
 
          Ground-State Mulliken Net Atomic Charges

     Atom                 Charge (a.u.)    Spin (a.u.)
  --------------------------------------------------------
      1 F                    -0.227420       0.000000
      2 F                    -0.314520       0.000000
      3 C                     0.214241       0.000000
      4 C                     0.121518      -0.000000
      5 C                    -0.364805       0.000000
      6 H                     0.065061       0.000000
      7 H                     0.079625       0.000000
      8 H                     0.089791       0.000000
      9 H                     0.112785       0.000000
     10 H                     0.103327      -0.000000
     11 H                     0.120396       0.000000
  --------------------------------------------------------
  Sum of atomic charges =     0.000000
  Sum of spin   charges =     0.000000

 -----------------------------------------------------------------
                    Cartesian Multipole Moments
 -----------------------------------------------------------------
    Charge (ESU x 10^10)
                 0.0000
    Dipole Moment (Debye)
         X      -1.4463      Y       1.5402      Z       0.0920
       Tot       2.1148
    Quadrupole Moments (Debye-Ang)
        XX     -31.6581     XY       0.2777     YY     -29.4154
        XZ       0.7827     YZ       0.4070     ZZ     -27.9863
    Octopole Moments (Debye-Ang^2)
       XXX       4.5365    XXY      -4.5004    XYY       5.5268
       YYY     -10.5797    XXZ       0.1492    XYZ      -0.1032
       YYZ      -0.8486    XZZ       4.1831    YZZ      -4.4437
       ZZZ       0.5392
    Hexadecapole Moments (Debye-Ang^3)
      XXXX    -327.2456   XXXY      10.6640   XXYY     -72.8156
      XYYY       7.6860   YYYY    -118.1178   XXXZ      -0.3007
      XXYZ      -0.5680   XYYZ      -0.3818   YYYZ      -5.1014
      XXZZ     -61.3270   XYZZ       2.8447   YYZZ     -29.4390
      XZZZ      -3.0922   YZZZ      -2.5651   ZZZZ     -53.4426
 -----------------------------------------------------------------
 Calculating analytic gradient of the SCF energy
 Gradient of SCF Energy
            1           2           3           4           5           6
    1   0.0050577  -0.0146426  -0.0006572   0.0021149   0.0062218  -0.0028082
    2   0.1657864   0.0090939  -0.1303112  -0.0163241  -0.0127704  -0.0113442
    3  -0.0632059   0.0051988   0.0462515   0.0028616   0.0034864   0.0084598
            7           8           9          10          11
    1   0.0012368   0.0038880  -0.0015823   0.0021468  -0.0009758
    2  -0.0026807  -0.0004457  -0.0003723  -0.0005429  -0.0000887
    3  -0.0010471  -0.0020206  -0.0005002  -0.0003995   0.0009152
 Max gradient component =       1.658E-01
 RMS gradient           =       3.958E-02
 Gradient time:  CPU 8.46 s  wall 0.73 s
 Geometry Optimization Parameters
   NAtoms,    NIC,     NZ,  NCons,   NDum,   NFix, NCnnct, MaxDiis
       11      68       0       1       0       0       0       0

 Cartesian Hessian Update
 Hessian Updated using BFGS Update


** CONSTRAINED OPTIMIZATION IN DELOCALIZED INTERNAL COORDINATES **
   Searching for a Minimum

   Optimization Cycle:   2

                       Coordinates (Angstroms)
     ATOM                X               Y               Z
      1  F        -0.4811341271   -1.1937972170    0.1275230804
      2  F         1.9024434735   -0.0111177475   -0.1236228988
      3  C        -0.4370100655   -0.0431589507   -0.3225787343
      4  C         0.7717498731    0.6473766875    0.2773004184
      5  C        -1.7379765704    0.6567918174    0.0273577629
      6  H        -0.3182275007   -0.1240696858   -1.4086417480
      7  H         0.8435573329    1.6880780482   -0.0552518630
      8  H         0.7347740098    0.6146059293    1.3710374324
      9  H        -1.8813536537    0.6860088465    1.1124388687
     10  H        -1.7578359262    1.6807746558   -0.3577014947
     11  H        -2.5852868458    0.1089076163   -0.3961608240
   Point Group: c1    Number of degrees of freedom:    27


   Energy is   -317.585580624

              Constraints and their Current Values
                                        Value     Constraint
   Distance(Angs):        1   3             1.236328     1.000000
 Hessian Updated using BFGS Update
**WARNING** Constraint Gradient Reduced for constraint   1

   Using Lagrange Multiplier Algorithm


 25 Hessian modes will be used to form the next step
  Hessian Eigenvalues:
    -0.731645    0.151431    0.151439    0.250111    0.277593    0.282201
     0.282622    0.282801    0.286893    0.379328    0.537498    0.539097
     0.597260    0.752330    0.779838    1.032474    1.038719    1.152322
     1.152447    1.153370    1.156019    1.157447    1.157973    1.377461
     1.778978

 Minimum Search - Taking P-RFO Step
 Searching for Lamda that Maximizes Along the Constraint modes Only
 Value Taken    Lamda =   0.01260884
 Searching for Lamda that Minimizes Along All other modes
 Value Taken    Lamda =  -0.09952555
 Calculated Step too Large.  Step scaled by  0.995722
 Step Taken.  Stepsize is  0.300000

                             Maximum     Tolerance    Cnvgd?
         Gradient            0.300000       0.000300      NO
         Displacement        0.281881       0.001200      NO
         Energy change      0.021450       0.000001      NO


 New Cartesian Coordinates Obtained by Inverse Iteration

 Displacement from previous Coordinates is:  0.234017
 ----------------------------------------------------------------
             Standard Nuclear Orientation (Angstroms)
    I     Atom           X                Y                Z
 ----------------------------------------------------------------
    1      F      -0.4752516050    -1.0897253531     0.0894132219
    2      F       1.9200560216    -0.0202236269    -0.1214668027
    3      C      -0.4390797660    -0.0780191579    -0.3069023610
    4      C       0.7741689183     0.6360584593     0.2782468954
    5      C      -1.7402744385     0.6494608734     0.0322439752
    6      H      -0.3142415291    -0.1408388832    -1.4007273767
    7      H       0.8292456737     1.6778155119    -0.0607095408
    8      H       0.7260934770     0.6107535023     1.3737281497
    9      H      -1.8822430653     0.6861489483     1.1175593479
   10      H      -1.7552486005     1.6723711620    -0.3569085907
   11      H      -2.5895250862     0.1065985639    -0.3927769183
 ----------------------------------------------------------------
 Nuclear Repulsion Energy =   199.9837774248 hartrees
 There are       21 alpha and       21 beta electrons

                       Distance Matrix (Angstroms)
             F (  1)   F (  2)   C (  3)   C (  4)   C (  5)   H (  6)
   F (  2)  2.631692
   C (  3)  1.087163  2.367118
   C (  4)  2.138934  1.379686  1.524559
   C (  5)  2.151353  3.724261  1.528841  2.526484
   H (  6)  1.773930  2.577429  1.102717  2.146430  2.170611
   H (  7)  3.063255  2.019132  2.179958  1.096897  2.769221  2.531939
   H (  8)  2.446288  2.014767  2.157905  1.096828  2.807855  3.056925
   H (  9)  2.488059  4.060988  2.166971  2.786302  1.095176  3.079660
   H ( 10)  3.076812  4.053168  2.190586  2.806300  1.094536  2.540431
   H ( 11)  2.476661  4.519515  2.160063  3.470596  1.093878  2.500821
             H (  7)   H (  8)   H (  9)   H ( 10)
   H (  8)  1.790774
   H (  9)  3.118315  2.621970
   H ( 10)  2.601418  3.206118  1.778431
   H ( 11)  3.777166  3.790520  1.765571  1.774527
 
 Applying Cartesian multipole field
    Component          Value
    ---------          -----
     (2,0,0)        1.00000E-11
     (0,2,0)        2.00000E-11
     (0,0,2)       -3.00000E-10
 Nucleus-field energy     =    -0.0000000029 hartrees
 Requested basis set is 6-31G(d,p)
 There are 38 shells and 105 basis functions
 A cutoff of  1.0D-14 yielded    722 shell pairs
 There are      5633 function pairs
 Smallest overlap matrix eigenvalue = 2.36E-03
 Guess from superposition of atomic densities
 Warning:  Energy on first SCF cycle will be non-variational
 SAD guess density has 42.000000 electrons

 -----------------------------------------------------------------------
  General SCF calculation program by
  Eric Jon Sundstrom, Paul Horn, Yuezhi Mao, Dmitri Zuev, Alec White,
  David Stuck, Shaama M.S., Shane Yost, Joonho Lee, David Small,
  Daniel Levine, Susi Lehtola, Hugh Burton, Evgeny Epifanovsky
 -----------------------------------------------------------------------
 Exchange:     0.2000 Hartree-Fock + 0.0800 Slater + 0.7200 B88
 Correlation:  0.1900 VWN1RPA + 0.8100 LYP
 Using SG-1 standard quadrature grid
 using 12 threads for integral computing
 -------------------------------------------------------
 OpenMP Integral computing Module                
 Release: version 1.0, May 2013, Q-Chem Inc. Pittsburgh 
 -------------------------------------------------------
 -------------------------------------------------------
 OpenMP BLAS3 based DFT computing Module                
 Release: version 1.0, May 2013, Q-Chem Inc. Pittsburgh 
 -------------------------------------------------------
 A unrestricted SCF calculation will be
 performed using DIIS
 SCF converges when DIIS error is below 1.0e-06
 Alpha HF Exchange    Energy =  -3.83619020960447
 Beta HF Exchange     Energy =  -3.83619020960447
 DFT Correlation      Energy =  -1.86737069069237
 DFT Exchange         Energy = -29.77375691209471
 One-Electron (alpha) Energy = -414.93245184162612
 One-Electron (beta)  Energy = -414.93245184162612
 Total Coulomb        Energy = 350.46823141160928
 ---------------------------------------
  Cycle       Energy         DIIS error
 ---------------------------------------
    1    -318.7264028718      3.87e-02  
 Alpha HF Exchange    Energy =  -3.84164211191364
 Beta HF Exchange     Energy =  -3.84164211191364
 DFT Correlation      Energy =  -1.89311823764126
 DFT Exchange         Energy = -30.51429448329209
 One-Electron (alpha) Energy = -418.19227339810044
 One-Electron (beta)  Energy = -418.19227339810050
 Total Coulomb        Energy = 359.06909043554901
    2    -317.4223758835      3.79e-03  
 Alpha HF Exchange    Energy =  -3.76861985490263
 Beta HF Exchange     Energy =  -3.76861985490263
 DFT Correlation      Energy =  -1.86950713857818
 DFT Exchange         Energy = -29.92522046698295
 One-Electron (alpha) Energy = -414.67195687552424
 One-Electron (beta)  Energy = -414.67195687552430
 Total Coulomb        Energy = 351.27272729036486
    3    -317.4193763542      3.92e-03  
 Alpha HF Exchange    Energy =  -3.80559908565024
 Beta HF Exchange     Energy =  -3.80559908565024
 DFT Correlation      Energy =  -1.88151973061404
 DFT Exchange         Energy = -30.22034266304560
 One-Electron (alpha) Energy = -416.51185170260231
 One-Electron (beta)  Energy = -416.51185170260214
 Total Coulomb        Energy = 355.26123343177966
    4    -317.4917531165      3.54e-04  
 Alpha HF Exchange    Energy =  -3.80447884335278
 Beta HF Exchange     Energy =  -3.80447884335278
 DFT Correlation      Energy =  -1.88151847826756
 DFT Exchange         Energy = -30.21296258778953
 One-Electron (alpha) Energy = -416.50530906349059
 One-Electron (beta)  Energy = -416.50530906349047
 Total Coulomb        Energy = 355.23812600016430
    5    -317.4921534577      1.76e-04  
 Alpha HF Exchange    Energy =  -3.80467815924442
 Beta HF Exchange     Energy =  -3.80467815924442
 DFT Correlation      Energy =  -1.88135721346510
 DFT Exchange         Energy = -30.21376442240522
 One-Electron (alpha) Energy = -416.48102419893166
 One-Electron (beta)  Energy = -416.48102419893166
 Total Coulomb        Energy = 355.19046976130818
    6    -317.4922791690      3.19e-05  
 Alpha HF Exchange    Energy =  -3.80457320789934
 Beta HF Exchange     Energy =  -3.80457320789934
 DFT Correlation      Energy =  -1.88136281978299
 DFT Exchange         Energy = -30.21301253651712
 One-Electron (alpha) Energy = -416.48099142807752
 One-Electron (beta)  Energy = -416.48099142807740
 Total Coulomb        Energy = 355.18944433730888
    7    -317.4922828691      1.09e-05  
 Alpha HF Exchange    Energy =  -3.80461993132665
 Beta HF Exchange     Energy =  -3.80461993132664
 DFT Correlation      Energy =  -1.88137200374916
 DFT Exchange         Energy = -30.21337357787788
 One-Electron (alpha) Energy = -416.48312857335605
 One-Electron (beta)  Energy = -416.48312857335588
 Total Coulomb        Energy = 355.19418175480445
    8    -317.4922834143      1.51e-06  
 Alpha HF Exchange    Energy =  -3.80461541093420
 Beta HF Exchange     Energy =  -3.80461541093419
 DFT Correlation      Energy =  -1.88137105685617
 DFT Exchange         Energy = -30.21333842531471
 One-Electron (alpha) Energy = -416.48288858560653
 One-Electron (beta)  Energy = -416.48288858560625
 Total Coulomb        Energy = 355.19365662745361
    9    -317.4922834259      2.29e-07  Convergence criterion met
 ---------------------------------------
 SCF time:   CPU 21.08s  wall 1.00s 
<S^2> =         -0.000000000
 Alpha HF Exchange    Energy =  -3.80461541093420
 Beta HF Exchange     Energy =  -3.80461541093419
 DFT Correlation      Energy =  -1.88137105685617
 DFT Exchange         Energy = -30.21333842531471
 One-Electron (alpha) Energy = -416.48288858560653
 One-Electron (beta)  Energy = -416.48288858560625
 Total Coulomb        Energy = 355.19365662745361
 Nuclear repulsion Energy = 199.98377742187415
 SCF   energy in the final basis set =     -317.4922834259
 Total energy in the final basis set =     -317.4922834259
 
 --------------------------------------------------------------
 
                    Orbital Energies (a.u.)
 --------------------------------------------------------------
 
 Alpha MOs
 -- Occupied --
-24.719 -24.669 -10.262 -10.244 -10.176  -1.377  -1.179  -0.773
 -0.703  -0.649  -0.592  -0.561  -0.520  -0.475  -0.465  -0.408
 -0.399  -0.384  -0.332  -0.304  -0.287
 -- Virtual --
  0.095   0.114   0.129   0.162   0.173   0.183   0.190   0.237
  0.262   0.296   0.513   0.528   0.566   0.601   0.613   0.621
  0.651   0.699   0.759   0.821   0.852   0.863   0.876   0.908
  0.916   0.954   1.034   1.130   1.204   1.229   1.301   1.375
  1.381   1.396   1.399   1.426   1.533   1.657   1.675   1.689
  1.724   1.795   1.814   1.849   1.917   1.992   2.007   2.022
  2.037   2.050   2.068   2.091   2.121   2.132   2.224   2.243
  2.327   2.382   2.430   2.455   2.500   2.590   2.666   2.716
  2.739   2.782   2.852   2.907   2.929   3.011   3.048   3.094
  3.188   3.247   3.322   3.378   3.463   3.479   3.530   4.267
  4.337   4.517   4.630   5.328
 
 Beta MOs
 -- Occupied --
-24.719 -24.669 -10.262 -10.244 -10.176  -1.377  -1.179  -0.773
 -0.703  -0.649  -0.592  -0.561  -0.520  -0.475  -0.465  -0.408
 -0.399  -0.384  -0.332  -0.304  -0.287
 -- Virtual --
  0.095   0.114   0.129   0.162   0.173   0.183   0.190   0.237
  0.262   0.296   0.513   0.528   0.566   0.601   0.613   0.621
  0.651   0.699   0.759   0.821   0.852   0.863   0.876   0.908
  0.916   0.954   1.034   1.130   1.204   1.229   1.301   1.375
  1.381   1.396   1.399   1.426   1.533   1.657   1.675   1.689
  1.724   1.795   1.814   1.849   1.917   1.992   2.007   2.022
  2.037   2.050   2.068   2.091   2.121   2.132   2.224   2.243
  2.327   2.382   2.430   2.455   2.500   2.590   2.666   2.716
  2.739   2.782   2.852   2.907   2.929   3.011   3.048   3.094
  3.188   3.247   3.322   3.378   3.463   3.479   3.530   4.267
  4.337   4.517   4.630   5.328
 --------------------------------------------------------------
 
          Ground-State Mulliken Net Atomic Charges

     Atom                 Charge (a.u.)    Spin (a.u.)
  --------------------------------------------------------
      1 F                    -0.045383      -0.000000
      2 F                    -0.321210       0.000000
      3 C                     0.164775      -0.000000
      4 C                     0.095664       0.000000
      5 C                    -0.388916       0.000000
      6 H                     0.018023      -0.000000
      7 H                     0.076889      -0.000000
      8 H                     0.081501      -0.000000
      9 H                     0.104284      -0.000000
     10 H                     0.101504      -0.000000
     11 H                     0.112869      -0.000000
  --------------------------------------------------------
  Sum of atomic charges =    -0.000000
  Sum of spin   charges =     0.000000

 -----------------------------------------------------------------
                    Cartesian Multipole Moments
 -----------------------------------------------------------------
    Charge (ESU x 10^10)
                -0.0000
    Dipole Moment (Debye)
         X      -1.5055      Y       0.8281      Z       0.3340
       Tot       1.7504
    Quadrupole Moments (Debye-Ang)
        XX     -32.2486     XY       0.6246     YY     -28.8378
        XZ       0.6639     YZ       0.3024     ZZ     -28.4711
    Octopole Moments (Debye-Ang^2)
       XXX       4.8537    XXY      -5.4243    XYY       5.0965
       YYY     -12.7593    XXZ       0.0801    XYZ      -0.0927
       YYZ      -0.7897    XZZ       4.1826    YZZ      -4.9344
       ZZZ       1.4634
    Hexadecapole Moments (Debye-Ang^3)
      XXXX    -334.5037   XXXY      12.5442   XXYY     -72.2981
      XYYY       9.1995   YYYY    -109.4308   XXXZ      -0.2070
      XXYZ      -1.1144   XYYZ      -0.4214   YYYZ      -6.1378
      XXZZ     -62.3780   XYZZ       3.2429   YYZZ     -28.1371
      XZZZ      -3.4131   YZZZ      -3.8440   ZZZZ     -55.6592
 -----------------------------------------------------------------
 Calculating analytic gradient of the SCF energy
 Gradient of SCF Energy
            1           2           3           4           5           6
    1   0.0190103  -0.0068665  -0.0159992  -0.0029021   0.0079756  -0.0026678
    2   0.5208456   0.0067131  -0.4540722  -0.0292511  -0.0235547  -0.0205777
    3  -0.2023863   0.0024057   0.1770383   0.0050184   0.0057625   0.0164605
            7           8           9          10          11
    1  -0.0011681   0.0013670  -0.0009801   0.0025875  -0.0003567
    2  -0.0010517   0.0003603   0.0001039  -0.0003356   0.0008202
    3  -0.0017863  -0.0015049  -0.0010542  -0.0006918   0.0007381
 Max gradient component =       5.208E-01
 RMS gradient           =       1.294E-01
 Gradient time:  CPU 8.58 s  wall 0.76 s
 Geometry Optimization Parameters
   NAtoms,    NIC,     NZ,  NCons,   NDum,   NFix, NCnnct, MaxDiis
       11      68       0       1       0       0       0       0

 Cartesian Hessian Update
 Hessian Updated using BFGS Update


** CONSTRAINED OPTIMIZATION IN DELOCALIZED INTERNAL COORDINATES **
   Searching for a Minimum

   Optimization Cycle:   3

                       Coordinates (Angstroms)
     ATOM                X               Y               Z
      1  F        -0.4752516050   -1.0897253531    0.0894132219
      2  F         1.9200560216   -0.0202236269   -0.1214668027
      3  C        -0.4390797660   -0.0780191579   -0.3069023610
      4  C         0.7741689183    0.6360584593    0.2782468954
      5  C        -1.7402744385    0.6494608734    0.0322439752
      6  H        -0.3142415291   -0.1408388832   -1.4007273767
      7  H         0.8292456737    1.6778155119   -0.0607095408
      8  H         0.7260934770    0.6107535023    1.3737281497
      9  H        -1.8822430653    0.6861489483    1.1175593479
     10  H        -1.7552486005    1.6723711620   -0.3569085907
     11  H        -2.5895250862    0.1065985639   -0.3927769183
   Point Group: c1    Number of degrees of freedom:    27


   Energy is   -317.492283426

              Constraints and their Current Values
                                        Value     Constraint
   Distance(Angs):        1   3             1.087163     1.000000
 Hessian Updated using BFGS Update

   Using Lagrange Multiplier Algorithm


 26 Hessian modes will be used to form the next step
  Hessian Eigenvalues:
    -0.525155    0.151431    0.151441    0.248683    0.277594    0.282144
     0.282617    0.282884    0.286916    0.379338    0.536952    0.538429
     0.539048    0.597290    0.752431    0.778075    1.023614    1.038099
     1.149619    1.152411    1.153320    1.156022    1.157499    1.158037
     1.735741    2.002231

 Minimum Search - Taking P-RFO Step
 Searching for Lamda that Maximizes Along the Constraint modes Only
 Value Taken    Lamda =   0.08603888
 Searching for Lamda that Minimizes Along All other modes
 Value Taken    Lamda =  -0.01103411
 Step Taken.  Stepsize is  0.223870

                             Maximum     Tolerance    Cnvgd?
         Gradient            0.189817       0.000300      NO
         Displacement        0.336567       0.001200      NO
         Energy change      0.093297       0.000001      NO


 New Cartesian Coordinates Obtained by Inverse Iteration

 Displacement from previous Coordinates is:  0.121433
 ----------------------------------------------------------------
             Standard Nuclear Orientation (Angstroms)
    I     Atom           X                Y                Z
 ----------------------------------------------------------------
    1      F      -0.4745347171    -1.0701967737     0.0741087769
    2      F       1.9315553765    -0.0135724003    -0.1248290034
    3      C      -0.4409503700    -0.1233890222    -0.2901782166
    4      C       0.7729405151     0.6346230511     0.2775372912
    5      C      -1.7392893869     0.6487303459     0.0346450839
    6      H      -0.3110417195    -0.1379207568    -1.3976136466
    7      H       0.8083995477     1.6769925463    -0.0651980788
    8      H       0.7253352793     0.6145327088     1.3747837288
    9      H      -1.8854554729     0.6895236987     1.1199605352
   10      H      -1.7395701199     1.6719604193    -0.3543987899
   11      H      -2.5936889324     0.1191161830    -0.3971176806
 ----------------------------------------------------------------
 Nuclear Repulsion Energy =   201.5644993362 hartrees
 There are       21 alpha and       21 beta electrons

                       Distance Matrix (Angstroms)
             F (  1)   F (  2)   C (  3)   C (  4)   C (  5)   H (  6)
   F (  2)  2.635394
   C (  3)  1.015026  2.380795
   C (  4)  2.122260  1.387243  1.539615
   C (  5)  2.134449  3.733521  1.545109  2.523984
   H (  6)  1.749810  2.581605  1.115124  2.139620  2.170271
   H (  7)  3.035190  2.030528  2.202922  1.097843  2.749184  2.514436
   H (  8)  2.443309  2.024431  2.162602  1.098462  2.805622  3.053924
   H (  9)  2.486186  4.075956  2.176215  2.789222  1.095873  3.082470
   H ( 10)  3.050141  4.046095  2.216713  2.790721  1.094694  2.530743
   H ( 11)  2.475345  4.535370  2.168992  3.472046  1.094033  2.505502
             H (  7)   H (  8)   H (  9)   H ( 10)
   H (  8)  1.791443
   H (  9)  3.104279  2.624269
   H ( 10)  2.564335  3.191236  1.777695
   H ( 11)  3.756508  3.794864  1.768753  1.772757
 
 Applying Cartesian multipole field
    Component          Value
    ---------          -----
     (2,0,0)        1.00000E-11
     (0,2,0)        2.00000E-11
     (0,0,2)       -3.00000E-10
 Nucleus-field energy     =    -0.0000000028 hartrees
 Requested basis set is 6-31G(d,p)
 There are 38 shells and 105 basis functions
 A cutoff of  1.0D-14 yielded    721 shell pairs
 There are      5629 function pairs
 Smallest overlap matrix eigenvalue = 2.14E-03
 Guess from superposition of atomic densities
 Warning:  Energy on first SCF cycle will be non-variational
 SAD guess density has 42.000000 electrons

 -----------------------------------------------------------------------
  General SCF calculation program by
  Eric Jon Sundstrom, Paul Horn, Yuezhi Mao, Dmitri Zuev, Alec White,
  David Stuck, Shaama M.S., Shane Yost, Joonho Lee, David Small,
  Daniel Levine, Susi Lehtola, Hugh Burton, Evgeny Epifanovsky
 -----------------------------------------------------------------------
 Exchange:     0.2000 Hartree-Fock + 0.0800 Slater + 0.7200 B88
 Correlation:  0.1900 VWN1RPA + 0.8100 LYP
 Using SG-1 standard quadrature grid
 using 12 threads for integral computing
 -------------------------------------------------------
 OpenMP Integral computing Module                
 Release: version 1.0, May 2013, Q-Chem Inc. Pittsburgh 
 -------------------------------------------------------
 -------------------------------------------------------
 OpenMP BLAS3 based DFT computing Module                
 Release: version 1.0, May 2013, Q-Chem Inc. Pittsburgh 
 -------------------------------------------------------
 A unrestricted SCF calculation will be
 performed using DIIS
 SCF converges when DIIS error is below 1.0e-06
 Alpha HF Exchange    Energy =  -3.84791302468835
 Beta HF Exchange     Energy =  -3.84791302468835
 DFT Correlation      Energy =  -1.86907787946778
 DFT Exchange         Energy = -29.80159958297117
 One-Electron (alpha) Energy = -416.31723573663561
 One-Electron (beta)  Energy = -416.31723573663561
 Total Coulomb        Energy = 351.57974587085835
 ---------------------------------------
  Cycle       Energy         DIIS error
 ---------------------------------------
    1    -318.8567297808      4.12e-02  
 Alpha HF Exchange    Energy =  -3.84781133163419
 Beta HF Exchange     Energy =  -3.84781133163418
 DFT Correlation      Energy =  -1.89522070136684
 DFT Exchange         Energy = -30.56448261192808
 One-Electron (alpha) Energy = -419.57170925119749
 One-Electron (beta)  Energy = -419.57170925119721
 Total Coulomb        Energy = 360.40629251387327
    2    -317.3279526317      3.89e-03  
 Alpha HF Exchange    Energy =  -3.77305132207393
 Beta HF Exchange     Energy =  -3.77305132207392
 DFT Correlation      Energy =  -1.87092029107167
 DFT Exchange         Energy = -29.96013809669275
 One-Electron (alpha) Energy = -415.93341955425979
 One-Electron (beta)  Energy = -415.93341955425967
 Total Coulomb        Energy = 352.35485527078612
    3    -317.3246455363      4.00e-03  
 Alpha HF Exchange    Energy =  -3.81068875773428
 Beta HF Exchange     Energy =  -3.81068875773428
 DFT Correlation      Energy =  -1.88337487056094
 DFT Exchange         Energy = -30.26122809132844
 One-Electron (alpha) Energy = -417.84326489390673
 One-Electron (beta)  Energy = -417.84326489390679
 Total Coulomb        Energy = 356.48708335032239
    4    -317.4009275815      3.64e-04  
 Alpha HF Exchange    Energy =  -3.80962560159613
 Beta HF Exchange     Energy =  -3.80962560159613
 DFT Correlation      Energy =  -1.88331373885270
 DFT Exchange         Energy = -30.25413522737453
 One-Electron (alpha) Energy = -417.83062765858642
 One-Electron (beta)  Energy = -417.83062765858637
 Total Coulomb        Energy = 356.45208039251509
    5    -317.4013757607      1.74e-04  
 Alpha HF Exchange    Energy =  -3.80977824442911
 Beta HF Exchange     Energy =  -3.80977824442911
 DFT Correlation      Energy =  -1.88315151196075
 DFT Exchange         Energy = -30.25461048668480
 One-Electron (alpha) Energy = -417.80517468987836
 One-Electron (beta)  Energy = -417.80517468987836
 Total Coulomb        Energy = 356.40167013149647
    6    -317.4014984024      3.47e-05  
 Alpha HF Exchange    Energy =  -3.80966174053889
 Beta HF Exchange     Energy =  -3.80966174053889
 DFT Correlation      Energy =  -1.88316131187327
 DFT Exchange         Energy = -30.25379420883419
 One-Electron (alpha) Energy = -417.80578177498779
 One-Electron (beta)  Energy = -417.80578177498774
 Total Coulomb        Energy = 356.40184041104908
    7    -317.4015028073      1.17e-05  
 Alpha HF Exchange    Energy =  -3.80971520323044
 Beta HF Exchange     Energy =  -3.80971520323044
 DFT Correlation      Energy =  -1.88316962814754
 DFT Exchange         Energy = -30.25419728160193
 One-Electron (alpha) Energy = -417.80787076062529
 One-Electron (beta)  Energy = -417.80787076062541
 Total Coulomb        Energy = 356.40653609430353
    8    -317.4015034098      1.69e-06  
 Alpha HF Exchange    Energy =  -3.80970974712344
 Beta HF Exchange     Energy =  -3.80970974712344
 DFT Correlation      Energy =  -1.88316860996873
 DFT Exchange         Energy = -30.25415513437167
 One-Electron (alpha) Energy = -417.80759418293684
 One-Electron (beta)  Energy = -417.80759418293684
 Total Coulomb        Energy = 356.40592884692495
    9    -317.4015034242      2.50e-07  Convergence criterion met
 ---------------------------------------
 SCF time:   CPU 21.30s  wall 2.00s 
<S^2> =         -0.000000000
 Alpha HF Exchange    Energy =  -3.80970974712344
 Beta HF Exchange     Energy =  -3.80970974712344
 DFT Correlation      Energy =  -1.88316860996873
 DFT Exchange         Energy = -30.25415513437167
 One-Electron (alpha) Energy = -417.80759418293684
 One-Electron (beta)  Energy = -417.80759418293684
 Total Coulomb        Energy = 356.40592884692495
 Nuclear repulsion Energy = 201.56449933338428
 SCF   energy in the final basis set =     -317.4015034242
 Total energy in the final basis set =     -317.4015034242
 
 --------------------------------------------------------------
 
                    Orbital Energies (a.u.)
 --------------------------------------------------------------
 
 Alpha MOs
 -- Occupied --
-24.743 -24.667 -10.271 -10.239 -10.171  -1.446  -1.174  -0.769
 -0.709  -0.672  -0.627  -0.589  -0.527  -0.474  -0.464  -0.407
 -0.396  -0.383  -0.331  -0.293  -0.276
 -- Virtual --
  0.096   0.116   0.133   0.164   0.175   0.183   0.192   0.242
  0.264   0.297   0.514   0.525   0.561   0.598   0.606   0.610
  0.650   0.694   0.779   0.844   0.853   0.874   0.884   0.915
  0.935   0.981   1.031   1.130   1.207   1.229   1.307   1.364
  1.376   1.390   1.406   1.434   1.539   1.637   1.673   1.680
  1.727   1.800   1.818   1.854   1.921   1.990   2.005   2.023
  2.039   2.048   2.072   2.095   2.122   2.134   2.230   2.250
  2.347   2.385   2.435   2.461   2.513   2.634   2.659   2.731
  2.741   2.798   2.849   2.903   2.997   3.037   3.070   3.102
  3.203   3.253   3.328   3.430   3.482   3.504   3.631   4.268
  4.331   4.521   4.628   5.674
 
 Beta MOs
 -- Occupied --
-24.743 -24.667 -10.271 -10.239 -10.171  -1.446  -1.174  -0.769
 -0.709  -0.672  -0.627  -0.589  -0.527  -0.474  -0.464  -0.407
 -0.396  -0.383  -0.331  -0.293  -0.276
 -- Virtual --
  0.096   0.116   0.133   0.164   0.175   0.183   0.192   0.242
  0.264   0.297   0.514   0.525   0.561   0.598   0.606   0.610
  0.650   0.694   0.779   0.844   0.853   0.874   0.884   0.915
  0.935   0.981   1.031   1.130   1.207   1.229   1.307   1.364
  1.376   1.390   1.406   1.434   1.539   1.637   1.673   1.680
  1.727   1.800   1.818   1.854   1.921   1.990   2.005   2.023
  2.039   2.048   2.072   2.095   2.122   2.134   2.230   2.250
  2.347   2.385   2.435   2.461   2.513   2.634   2.659   2.731
  2.741   2.798   2.849   2.903   2.997   3.037   3.070   3.102
  3.203   3.253   3.328   3.430   3.482   3.504   3.631   4.268
  4.331   4.521   4.628   5.674
 --------------------------------------------------------------
 
          Ground-State Mulliken Net Atomic Charges

     Atom                 Charge (a.u.)    Spin (a.u.)
  --------------------------------------------------------
      1 F                     0.081110       0.000000
      2 F                    -0.326024      -0.000000
      3 C                     0.123830      -0.000000
      4 C                     0.076220       0.000000
      5 C                    -0.407972      -0.000000
      6 H                    -0.011553       0.000000
      7 H                     0.078540      -0.000000
      8 H                     0.076322       0.000000
      9 H                     0.099014      -0.000000
     10 H                     0.102860       0.000000
     11 H                     0.107653      -0.000000
  --------------------------------------------------------
  Sum of atomic charges =    -0.000000
  Sum of spin   charges =    -0.000000

 -----------------------------------------------------------------
                    Cartesian Multipole Moments
 -----------------------------------------------------------------
    Charge (ESU x 10^10)
                -0.0000
    Dipole Moment (Debye)
         X      -1.5404      Y       0.4075      Z       0.4893
       Tot       1.6668
    Quadrupole Moments (Debye-Ang)
        XX     -32.7218     XY       0.8222     YY     -28.4129
        XZ       0.6118     YZ       0.1921     ZZ     -28.8612
    Octopole Moments (Debye-Ang^2)
       XXX       5.2233    XXY      -5.7882    XYY       4.8611
       YYY     -13.2836    XXZ      -0.0166    XYZ      -0.0520
       YYZ      -0.8092    XZZ       4.2151    YZZ      -5.0234
       ZZZ       1.9567
    Hexadecapole Moments (Debye-Ang^3)
      XXXX    -339.4279   XXXY      12.8826   XXYY     -72.3600
      XYYY       9.4004   YYYY    -107.2634   XXXZ       0.2107
      XXYZ      -1.4582   XYYZ      -0.3416   YYYZ      -6.6510
      XXZZ     -63.0822   XYZZ       3.2535   YYZZ     -27.9861
      XZZZ      -3.4157   YZZZ      -4.6108   ZZZZ     -57.3451
 -----------------------------------------------------------------
 Calculating analytic gradient of the SCF energy
 Gradient of SCF Energy
            1           2           3           4           5           6
    1   0.0302752  -0.0035705  -0.0291264  -0.0037330   0.0080351  -0.0020230
    2   0.8246180   0.0045659  -0.7642657  -0.0265867  -0.0216143  -0.0193087
    3  -0.3168402   0.0008390   0.2957901   0.0035289   0.0045496   0.0161370
            7           8           9          10          11
    1  -0.0011466  -0.0005194   0.0000161   0.0012760   0.0005164
    2   0.0006510   0.0003284   0.0001442   0.0005296   0.0009382
    3  -0.0011733  -0.0014711  -0.0012608  -0.0003590   0.0002599
 Max gradient component =       8.246E-01
 RMS gradient           =       2.100E-01
 Gradient time:  CPU 8.51 s  wall 0.73 s
 Geometry Optimization Parameters
   NAtoms,    NIC,     NZ,  NCons,   NDum,   NFix, NCnnct, MaxDiis
       11      68       0       1       0       0       0       0

 Cartesian Hessian Update
 Hessian Updated using BFGS Update


** CONSTRAINED OPTIMIZATION IN DELOCALIZED INTERNAL COORDINATES **
   Searching for a Minimum

   Optimization Cycle:   4

                       Coordinates (Angstroms)
     ATOM                X               Y               Z
      1  F        -0.4745347171   -1.0701967737    0.0741087769
      2  F         1.9315553765   -0.0135724003   -0.1248290034
      3  C        -0.4409503700   -0.1233890222   -0.2901782166
      4  C         0.7729405151    0.6346230511    0.2775372912
      5  C        -1.7392893869    0.6487303459    0.0346450839
      6  H        -0.3110417195   -0.1379207568   -1.3976136466
      7  H         0.8083995477    1.6769925463   -0.0651980788
      8  H         0.7253352793    0.6145327088    1.3747837288
      9  H        -1.8854554729    0.6895236987    1.1199605352
     10  H        -1.7395701199    1.6719604193   -0.3543987899
     11  H        -2.5936889324    0.1191161830   -0.3971176806
   Point Group: c1    Number of degrees of freedom:    27


   Energy is   -317.401503424

              Constraints and their Current Values
                                        Value     Constraint
   Distance(Angs):        1   3             1.015026     1.000000
 Hessian Updated using BFGS Update

   Using Lagrange Multiplier Algorithm


 27 Hessian modes will be used to form the next step
  Hessian Eigenvalues:
    -0.337226    0.151384    0.151434    0.217795    0.277587    0.282003
     0.282603    0.282832    0.286626    0.379354    0.535770    0.538428
     0.538430    0.538504    0.597217    0.751032    0.766530    0.987335
     1.037746    1.141434    1.152413    1.153306    1.156027    1.157482
     1.158013    1.755440    3.250194

 Minimum Search - Taking P-RFO Step
 Searching for Lamda that Maximizes Along the Constraint modes Only
 Value Taken    Lamda =   0.01645453
 Searching for Lamda that Minimizes Along All other modes
 Value Taken    Lamda =  -0.01088609
 Step Taken.  Stepsize is  0.141105

                             Maximum     Tolerance    Cnvgd?
         Gradient            0.178056       0.000300      NO
         Displacement        0.197876       0.001200      NO
         Energy change      0.090780       0.000001      NO


 New Cartesian Coordinates Obtained by Inverse Iteration

 Displacement from previous Coordinates is:  0.103861
 ----------------------------------------------------------------
             Standard Nuclear Orientation (Angstroms)
    I     Atom           X                Y                Z
 ----------------------------------------------------------------
    1      F      -0.4758259305    -1.0925354259     0.0735678719
    2      F       1.9368283112    -0.0024519064    -0.1289312045
    3      C      -0.4419608646    -0.1558022759    -0.2798925426
    4      C       0.7705139606     0.6370485627     0.2769668809
    5      C      -1.7376771496     0.6503892026     0.0354074005
    6      H      -0.3095695646    -0.1259263987    -1.3973882106
    7      H       0.7903427178     1.6785844585    -0.0686587509
    8      H       0.7304256687     0.6206394960     1.3756686468
    9      H      -1.8904145117     0.6933099926     1.1205282863
   10      H      -1.7215734308     1.6734564041    -0.3528381626
   11      H      -2.5973892065     0.1336878903    -0.4027302154
 ----------------------------------------------------------------
 Nuclear Repulsion Energy =   201.1497493096 hartrees
 There are       21 alpha and       21 beta electrons

                       Distance Matrix (Angstroms)
             F (  1)   F (  2)   C (  3)   C (  4)   C (  5)   H (  6)
   F (  2)  2.655219
   C (  3)  1.001773  2.388502
   C (  4)  2.141540  1.390684  1.552031
   C (  5)  2.152095  3.735666  1.558281  2.519832
   H (  6)  1.767961  2.582737  1.125707  2.133583  2.166809
   H (  7)  3.050003  2.035668  2.219947  1.097564  2.731099  2.496315
   H (  8)  2.466876  2.026690  2.172150  1.099555  2.808686  3.054308
   H (  9)  2.507276  4.085709  2.186364  2.792007  1.096658  3.083849
   H ( 10)  3.063400  4.030224  2.233588  2.771515  1.094377  2.514482
   H ( 11)  2.496300  4.544516  2.178248  3.472482  1.094555  2.508159
             H (  7)   H (  8)   H (  9)   H ( 10)
   H (  8)  1.791346
   H (  9)  3.093766  2.634232
   H ( 10)  2.527945  3.179380  1.777640
   H ( 11)  3.738320  3.804494  1.770115  1.772126
 
 Applying Cartesian multipole field
    Component          Value
    ---------          -----
     (2,0,0)        1.00000E-11
     (0,2,0)        2.00000E-11
     (0,0,2)       -3.00000E-10
 Nucleus-field energy     =    -0.0000000028 hartrees
 Requested basis set is 6-31G(d,p)
 There are 38 shells and 105 basis functions
 A cutoff of  1.0D-14 yielded    721 shell pairs
 There are      5629 function pairs
 Smallest overlap matrix eigenvalue = 2.13E-03
 Guess from superposition of atomic densities
 Warning:  Energy on first SCF cycle will be non-variational
 SAD guess density has 42.000000 electrons

 -----------------------------------------------------------------------
  General SCF calculation program by
  Eric Jon Sundstrom, Paul Horn, Yuezhi Mao, Dmitri Zuev, Alec White,
  David Stuck, Shaama M.S., Shane Yost, Joonho Lee, David Small,
  Daniel Levine, Susi Lehtola, Hugh Burton, Evgeny Epifanovsky
 -----------------------------------------------------------------------
 Exchange:     0.2000 Hartree-Fock + 0.0800 Slater + 0.7200 B88
 Correlation:  0.1900 VWN1RPA + 0.8100 LYP
 Using SG-1 standard quadrature grid
 using 12 threads for integral computing
 -------------------------------------------------------
 OpenMP Integral computing Module                
 Release: version 1.0, May 2013, Q-Chem Inc. Pittsburgh 
 -------------------------------------------------------
 -------------------------------------------------------
 OpenMP BLAS3 based DFT computing Module                
 Release: version 1.0, May 2013, Q-Chem Inc. Pittsburgh 
 -------------------------------------------------------
 A unrestricted SCF calculation will be
 performed using DIIS
 SCF converges when DIIS error is below 1.0e-06
 Alpha HF Exchange    Energy =  -3.84693695205748
 Beta HF Exchange     Energy =  -3.84693695205748
 DFT Correlation      Energy =  -1.86863791555155
 DFT Exchange         Energy = -29.80083750636737
 One-Electron (alpha) Energy = -415.87117879561953
 One-Electron (beta)  Energy = -415.87117879561953
 Total Coulomb        Energy = 351.10369964725783
 ---------------------------------------
  Cycle       Energy         DIIS error
 ---------------------------------------
    1    -318.8522579632      4.14e-02  
 Alpha HF Exchange    Energy =  -3.84718723232591
 Beta HF Exchange     Energy =  -3.84718723232591
 DFT Correlation      Energy =  -1.89466074846429
 DFT Exchange         Energy = -30.56155089067052
 One-Electron (alpha) Energy = -419.07929675722909
 One-Electron (beta)  Energy = -419.07929675722932
 Total Coulomb        Energy = 359.85103178054970
    2    -317.3083985309      3.90e-03  
 Alpha HF Exchange    Energy =  -3.77300431309456
 Beta HF Exchange     Energy =  -3.77300431309456
 DFT Correlation      Energy =  -1.87051470742178
 DFT Exchange         Energy = -29.96131971504976
 One-Electron (alpha) Energy = -415.49484706525135
 One-Electron (beta)  Energy = -415.49484706525141
 Total Coulomb        Energy = 351.91289419650076
    3    -317.3048936758      4.00e-03  
 Alpha HF Exchange    Energy =  -3.81018760576126
 Beta HF Exchange     Energy =  -3.81018760576126
 DFT Correlation      Energy =  -1.88287480194543
 DFT Exchange         Energy = -30.25901958179409
 One-Electron (alpha) Energy = -417.36890676334752
 One-Electron (beta)  Energy = -417.36890676334781
 Total Coulomb        Energy = 355.96862984935694
    4    -317.3817039658      3.74e-04  
 Alpha HF Exchange    Energy =  -3.80923091111723
 Beta HF Exchange     Energy =  -3.80923091111722
 DFT Correlation      Energy =  -1.88283313706287
 DFT Exchange         Energy = -30.25275699405061
 One-Electron (alpha) Energy = -417.36304741780975
 One-Electron (beta)  Energy = -417.36304741780964
 Total Coulomb        Energy = 355.94822147922480
    5    -317.3821760029      1.77e-04  
 Alpha HF Exchange    Energy =  -3.80934714796459
 Beta HF Exchange     Energy =  -3.80934714796459
 DFT Correlation      Energy =  -1.88266218972636
 DFT Exchange         Energy = -30.25294786839373
 One-Electron (alpha) Energy = -417.33565352624896
 One-Electron (beta)  Energy = -417.33565352624890
 Total Coulomb        Energy = 355.89356011359490
    6    -317.3823019861      3.48e-05  
 Alpha HF Exchange    Energy =  -3.80922036525852
 Beta HF Exchange     Energy =  -3.80922036525853
 DFT Correlation      Energy =  -1.88267043947235
 DFT Exchange         Energy = -30.25205626474017
 One-Electron (alpha) Energy = -417.33568776889103
 One-Electron (beta)  Energy = -417.33568776889126
 Total Coulomb        Energy = 355.89248724030875
    7    -317.3823064254      1.22e-05  
 Alpha HF Exchange    Energy =  -3.80928047019869
 Beta HF Exchange     Energy =  -3.80928047019869
 DFT Correlation      Energy =  -1.88267957867235
 DFT Exchange         Energy = -30.25250730807747
 One-Electron (alpha) Energy = -417.33807782221589
 One-Electron (beta)  Energy = -417.33807782221578
 Total Coulomb        Energy = 355.89784709738893
    8    -317.3823070674      1.72e-06  
 Alpha HF Exchange    Energy =  -3.80927428083575
 Beta HF Exchange     Energy =  -3.80927428083575
 DFT Correlation      Energy =  -1.88267851126502
 DFT Exchange         Energy = -30.25245991768208
 One-Electron (alpha) Energy = -417.33776799574571
 One-Electron (beta)  Energy = -417.33776799574582
 Total Coulomb        Energy = 355.89716659327405
    9    -317.3823070820      2.91e-07  Convergence criterion met
 ---------------------------------------
 SCF time:   CPU 21.64s  wall 2.00s 
<S^2> =         -0.000000000
 Alpha HF Exchange    Energy =  -3.80927428083575
 Beta HF Exchange     Energy =  -3.80927428083575
 DFT Correlation      Energy =  -1.88267851126502
 DFT Exchange         Energy = -30.25245991768208
 One-Electron (alpha) Energy = -417.33776799574571
 One-Electron (beta)  Energy = -417.33776799574582
 Total Coulomb        Energy = 355.89716659327405
 Nuclear repulsion Energy = 201.14974930681345
 SCF   energy in the final basis set =     -317.3823070820
 Total energy in the final basis set =     -317.3823070820
 
 --------------------------------------------------------------
 
                    Orbital Energies (a.u.)
 --------------------------------------------------------------
 
 Alpha MOs
 -- Occupied --
-24.753 -24.665 -10.276 -10.238 -10.170  -1.463  -1.171  -0.767
 -0.709  -0.679  -0.636  -0.595  -0.529  -0.473  -0.463  -0.407
 -0.395  -0.383  -0.330  -0.290  -0.273
 -- Virtual --
  0.096   0.117   0.135   0.164   0.174   0.184   0.194   0.240
  0.262   0.293   0.515   0.526   0.556   0.595   0.602   0.605
  0.651   0.691   0.783   0.843   0.855   0.877   0.885   0.916
  0.939   0.984   1.039   1.131   1.207   1.224   1.312   1.354
  1.372   1.387   1.409   1.438   1.543   1.624   1.663   1.670
  1.725   1.801   1.821   1.857   1.923   1.988   2.003   2.022
  2.040   2.044   2.073   2.098   2.123   2.128   2.221   2.252
  2.343   2.378   2.427   2.457   2.498   2.643   2.648   2.732
  2.740   2.799   2.844   2.897   3.002   3.052   3.068   3.094
  3.204   3.253   3.331   3.429   3.485   3.508   3.658   4.270
  4.328   4.521   4.627   5.739
 
 Beta MOs
 -- Occupied --
-24.753 -24.665 -10.276 -10.238 -10.170  -1.463  -1.171  -0.767
 -0.709  -0.679  -0.636  -0.595  -0.529  -0.473  -0.463  -0.407
 -0.395  -0.383  -0.330  -0.290  -0.273
 -- Virtual --
  0.096   0.117   0.135   0.164   0.174   0.184   0.194   0.240
  0.262   0.293   0.515   0.526   0.556   0.595   0.602   0.605
  0.651   0.691   0.783   0.843   0.855   0.877   0.885   0.916
  0.939   0.984   1.039   1.131   1.207   1.224   1.312   1.354
  1.372   1.387   1.409   1.438   1.543   1.624   1.663   1.670
  1.725   1.801   1.821   1.857   1.923   1.988   2.003   2.022
  2.040   2.044   2.073   2.098   2.123   2.128   2.221   2.252
  2.343   2.378   2.427   2.457   2.498   2.643   2.648   2.732
  2.740   2.799   2.844   2.897   3.002   3.052   3.068   3.094
[...]
      9  H        -1.9028357555    0.7149462206    1.1353952595
     10  H        -1.6988482635    1.6524807496   -0.3654880620
     11  H        -2.6199504211    0.1383743854   -0.3785940437
   Point Group: c1    Number of degrees of freedom:    27


   Energy is   -317.381952762

              Constraints and their Current Values
                                        Value     Constraint
   Distance(Angs):        1   3             1.000000     1.000000
 Hessian Updated using BFGS Update

 26 Hessian modes will be used to form the next step
  Hessian Eigenvalues:
     0.004159    0.059519    0.122728    0.144066    0.155586    0.277231
     0.278806    0.283111    0.316979    0.380072    0.481540    0.515724
     0.538252    0.538760    0.594064    0.637907    0.672057    0.776368
     1.001375    1.111337    1.139828    1.151925    1.153794    1.154705
     1.157349    1.643221

 Minimum Search - Taking Simple RFO Step
 Searching for Lamda that Minimizes Along All modes
 Value Taken    Lamda =   0.00000000
 Step Taken.  Stepsize is  0.003227

                             Maximum     Tolerance    Cnvgd?
         Gradient           0.000353      0.000300      NO
         Displacement       0.001353      0.001200      NO
         Energy change     -0.000001      0.000001      NO


 New Cartesian Coordinates Obtained by Inverse Iteration

 Displacement from previous Coordinates is:  0.004936
 ----------------------------------------------------------------
             Standard Nuclear Orientation (Angstroms)
    I     Atom           X                Y                Z
 ----------------------------------------------------------------
    1      F      -0.4639564893    -1.1499966195     0.0211694737
    2      F       1.9471600858    -0.0224144175    -0.0809397390
    3      C      -0.4400616608    -0.1969224875    -0.2806231730
    4      C       0.7695662894     0.6379693063     0.2869726309
    5      C      -1.7462012167     0.6440036872     0.0505146900
    6      H      -0.3131097693    -0.0394964677    -1.4081104140
    7      H       0.7818496542     1.6547320289    -0.1167211481
    8      H       0.7383642560     0.6765104924     1.3869994330
    9      H      -1.9019768257     0.7150266140     1.1355699354
   10      H      -1.6980158024     1.6525900964    -0.3655340438
   11      H      -2.6199185212     0.1383977668    -0.3775976450
 ----------------------------------------------------------------
 Nuclear Repulsion Energy =   199.4358885900 hartrees
 There are       21 alpha and       21 beta electrons

                       Distance Matrix (Angstroms)
             F (  1)   F (  2)   C (  3)   C (  4)   C (  5)   H (  6)
   F (  2)  2.663710
   C (  3)  1.000000  2.401906
   C (  4)  2.188390  1.399355  1.575566
   C (  5)  2.205323  3.755304  1.588335  2.526863
   H (  6)  1.816262  2.621163  1.145481  2.122370  2.156041
   H (  7)  3.072059  2.042559  2.224535  1.094041  2.727743  2.395210
   H (  8)  2.578215  2.025964  2.220932  1.101144  2.821403  3.070977
   H (  9)  2.605399  4.103605  2.230348  2.804139  1.098479  3.092590
   H ( 10)  3.086573  4.021684  2.238382  2.746667  1.092092  2.422413
   H ( 11)  2.543059  4.579528  2.207628  3.489962  1.096494  2.532779
             H (  7)   H (  8)   H (  9)   H ( 10)
   H (  8)  1.794431
   H (  9)  3.107121  2.652565
   H ( 10)  2.492317  3.155955  1.781555
   H ( 11)  3.733544  3.831636  1.771332  1.772802
 
 Applying Cartesian multipole field
    Component          Value
    ---------          -----
     (2,0,0)        1.00000E-11
     (0,2,0)        2.00000E-11
     (0,0,2)       -3.00000E-10
 Nucleus-field energy     =    -0.0000000027 hartrees
 Requested basis set is 6-31G(d,p)
 There are 38 shells and 105 basis functions
 A cutoff of  1.0D-14 yielded    720 shell pairs
 There are      5623 function pairs
 Smallest overlap matrix eigenvalue = 2.20E-03
 Guess from superposition of atomic densities
 Warning:  Energy on first SCF cycle will be non-variational
 SAD guess density has 42.000000 electrons

 -----------------------------------------------------------------------
  General SCF calculation program by
  Eric Jon Sundstrom, Paul Horn, Yuezhi Mao, Dmitri Zuev, Alec White,
  David Stuck, Shaama M.S., Shane Yost, Joonho Lee, David Small,
  Daniel Levine, Susi Lehtola, Hugh Burton, Evgeny Epifanovsky
 -----------------------------------------------------------------------
 Exchange:     0.2000 Hartree-Fock + 0.0800 Slater + 0.7200 B88
 Correlation:  0.1900 VWN1RPA + 0.8100 LYP
 Using SG-1 standard quadrature grid
 using 12 threads for integral computing
 -------------------------------------------------------
 OpenMP Integral computing Module                
 Release: version 1.0, May 2013, Q-Chem Inc. Pittsburgh 
 -------------------------------------------------------
 -------------------------------------------------------
 OpenMP BLAS3 based DFT computing Module                
 Release: version 1.0, May 2013, Q-Chem Inc. Pittsburgh 
 -------------------------------------------------------
 A unrestricted SCF calculation will be
 performed using DIIS
 SCF converges when DIIS error is below 1.0e-06
 Alpha HF Exchange    Energy =  -3.83882902731846
 Beta HF Exchange     Energy =  -3.83882902731846
 DFT Correlation      Energy =  -1.86667399300097
 DFT Exchange         Energy = -29.78534706427282
 One-Electron (alpha) Energy = -414.18360061841111
 One-Electron (beta)  Energy = -414.18360061841111
 Total Coulomb        Energy = 349.48113939782849
 ---------------------------------------
  Cycle       Energy         DIIS error
 ---------------------------------------
    1    -318.7798523636      4.07e-02  
 Alpha HF Exchange    Energy =  -3.84267857382136
 Beta HF Exchange     Energy =  -3.84267857382136
 DFT Correlation      Energy =  -1.89224012540993
 DFT Exchange         Energy = -30.53012845254705
 One-Electron (alpha) Energy = -417.27907725913695
 One-Electron (beta)  Energy = -417.27907725913707
 Total Coulomb        Energy = 357.92114215154669
    2    -317.3088495050      3.87e-03  
 Alpha HF Exchange    Energy =  -3.77061020355020
 Beta HF Exchange     Energy =  -3.77061020355020
 DFT Correlation      Energy =  -1.86883360321848
 DFT Exchange         Energy = -29.94654615244912
 One-Electron (alpha) Energy = -413.88967684304464
 One-Electron (beta)  Energy = -413.88967684304470
 Total Coulomb        Energy = 350.39577294641936
    3    -317.3042923151      4.00e-03  
 Alpha HF Exchange    Energy =  -3.80638531230598
 Beta HF Exchange     Energy =  -3.80638531230598
 DFT Correlation      Energy =  -1.88070089654902
 DFT Exchange         Energy = -30.23297884766653
 One-Electron (alpha) Energy = -415.63417236920066
 One-Electron (beta)  Energy = -415.63417236920094
 Total Coulomb        Energy = 354.17763057376897
    4    -317.3812759461      3.98e-04  
 Alpha HF Exchange    Energy =  -3.80574119857843
 Beta HF Exchange     Energy =  -3.80574119857843
 DFT Correlation      Energy =  -1.88077229635972
 DFT Exchange         Energy = -30.22931304527246
 One-Electron (alpha) Energy = -415.65367163372912
 One-Electron (beta)  Energy = -415.65367163372912
 Total Coulomb        Energy = 354.21120973121583
    5    -317.3818126877      1.84e-04  
 Alpha HF Exchange    Energy =  -3.80577850489229
 Beta HF Exchange     Energy =  -3.80577850489229
 DFT Correlation      Energy =  -1.88057433863414
 DFT Exchange         Energy = -30.22885976195321
 One-Electron (alpha) Energy = -415.62113123038176
 One-Electron (beta)  Energy = -415.62113123038182
 Total Coulomb        Energy = 354.14541682755686
    6    -317.3819481562      3.51e-05  
 Alpha HF Exchange    Energy =  -3.80562785805414
 Beta HF Exchange     Energy =  -3.80562785805414
 DFT Correlation      Energy =  -1.88057581246749
 DFT Exchange         Energy = -30.22777936347444
 One-Electron (alpha) Energy = -415.61924479204833
 One-Electron (beta)  Energy = -415.61924479204816
 Total Coulomb        Energy = 354.14025924096745
    7    -317.3819526478      1.33e-05  
 Alpha HF Exchange    Energy =  -3.80570265234764
 Beta HF Exchange     Energy =  -3.80570265234764
 DFT Correlation      Energy =  -1.88058832807573
 DFT Exchange         Energy = -30.22834213338204
 One-Electron (alpha) Energy = -415.62254861253865
 One-Electron (beta)  Energy = -415.62254861253871
 Total Coulomb        Energy = 354.14759101713395
    8    -317.3819533867      1.83e-06  
 Alpha HF Exchange    Energy =  -3.80569489947149
 Beta HF Exchange     Energy =  -3.80569489947149
 DFT Correlation      Energy =  -1.88058708724961
 DFT Exchange         Energy = -30.22828375948091
 One-Electron (alpha) Energy = -415.62217359625799
 One-Electron (beta)  Energy = -415.62217359625777
 Total Coulomb        Energy = 354.14676584843841
    9    -317.3819534024      4.31e-07  Convergence criterion met
 ---------------------------------------
 SCF time:   CPU 21.58s  wall 2.00s 
<S^2> =         -0.000000000
 Alpha HF Exchange    Energy =  -3.80569489947149
 Beta HF Exchange     Energy =  -3.80569489947149
 DFT Correlation      Energy =  -1.88058708724961
 DFT Exchange         Energy = -30.22828375948091
 One-Electron (alpha) Energy = -415.62217359625799
 One-Electron (beta)  Energy = -415.62217359625777
 Total Coulomb        Energy = 354.14676584843841
 Nuclear repulsion Energy = 199.43588858735126
 SCF   energy in the final basis set =     -317.3819534024
 Total energy in the final basis set =     -317.3819534024
 
 --------------------------------------------------------------
 
                    Orbital Energies (a.u.)
 --------------------------------------------------------------
 
 Alpha MOs
 -- Occupied --
-24.764 -24.662 -10.284 -10.239 -10.171  -1.470  -1.166  -0.764
 -0.704  -0.683  -0.638  -0.601  -0.530  -0.469  -0.462  -0.406
 -0.394  -0.382  -0.329  -0.286  -0.271
 -- Virtual --
  0.094   0.115   0.136   0.164   0.173   0.182   0.195   0.233
  0.258   0.284   0.517   0.527   0.547   0.585   0.595   0.599
  0.655   0.690   0.786   0.845   0.860   0.880   0.888   0.916
  0.939   0.980   1.044   1.135   1.202   1.216   1.313   1.344
  1.354   1.383   1.415   1.449   1.543   1.610   1.653   1.659
  1.709   1.802   1.820   1.856   1.920   1.980   1.995   2.013
  2.036   2.042   2.068   2.100   2.112   2.126   2.202   2.255
  2.328   2.361   2.393   2.441   2.464   2.627   2.651   2.721
  2.729   2.789   2.829   2.876   2.987   3.052   3.064   3.083
  3.196   3.248   3.340   3.419   3.485   3.501   3.649   4.270
  4.320   4.520   4.620   5.698
 
 Beta MOs
 -- Occupied --
-24.764 -24.662 -10.284 -10.239 -10.171  -1.470  -1.166  -0.764
 -0.704  -0.683  -0.638  -0.601  -0.530  -0.469  -0.462  -0.406
 -0.394  -0.382  -0.329  -0.286  -0.271
 -- Virtual --
  0.094   0.115   0.136   0.164   0.173   0.182   0.195   0.233
  0.258   0.284   0.517   0.527   0.547   0.585   0.595   0.599
  0.655   0.690   0.786   0.845   0.860   0.880   0.888   0.916
  0.939   0.980   1.044   1.135   1.202   1.216   1.313   1.344
  1.354   1.383   1.415   1.449   1.543   1.610   1.653   1.659
  1.709   1.802   1.820   1.856   1.920   1.980   1.995   2.013
  2.036   2.042   2.068   2.100   2.112   2.126   2.202   2.255
  2.328   2.361   2.393   2.441   2.464   2.627   2.651   2.721
  2.729   2.789   2.829   2.876   2.987   3.052   3.064   3.083
  3.196   3.248   3.340   3.419   3.485   3.501   3.649   4.270
  4.320   4.520   4.620   5.698
 --------------------------------------------------------------
 
          Ground-State Mulliken Net Atomic Charges

     Atom                 Charge (a.u.)    Spin (a.u.)
  --------------------------------------------------------
      1 F                     0.125158       0.000000
      2 F                    -0.333839      -0.000000
      3 C                     0.111926      -0.000000
      4 C                     0.063281       0.000000
      5 C                    -0.419581       0.000000
      6 H                    -0.017258       0.000000
      7 H                     0.085486      -0.000000
      8 H                     0.077415      -0.000000
      9 H                     0.097405      -0.000000
     10 H                     0.106573       0.000000
     11 H                     0.103436      -0.000000
  --------------------------------------------------------
  Sum of atomic charges =    -0.000000
  Sum of spin   charges =     0.000000

 -----------------------------------------------------------------
                    Cartesian Multipole Moments
 -----------------------------------------------------------------
    Charge (ESU x 10^10)
                -0.0000
    Dipole Moment (Debye)
         X      -1.5710      Y       0.2328      Z       0.4946
       Tot       1.6634
    Quadrupole Moments (Debye-Ang)
        XX     -33.2330     XY       1.0020     YY     -28.0909
        XZ       0.5132     YZ       0.0589     ZZ     -29.0660
    Octopole Moments (Debye-Ang^2)
       XXX       5.2222    XXY      -5.3199    XYY       4.7573
       YYY     -11.7157    XXZ      -0.3021    XYZ       0.0369
       YYZ      -0.9578    XZZ       4.2988    YZZ      -4.3847
       ZZZ       1.8841
    Hexadecapole Moments (Debye-Ang^3)
      XXXX    -345.1490   XXXY      12.8355   XXYY     -73.6319
      XYYY       9.2559   YYYY    -111.3872   XXXZ      -0.9680
      XXYZ      -1.9188   XYYZ      -0.6307   YYYZ      -7.8498
      XXZZ     -63.8986   XYZZ       3.1531   YYZZ     -28.7294
      XZZZ      -4.3669   YZZZ      -5.7527   ZZZZ     -58.5235
 -----------------------------------------------------------------
 Calculating analytic gradient of the SCF energy
 Gradient of SCF Energy
            1           2           3           4           5           6
    1   0.0224298   0.0001710  -0.0223428  -0.0002094   0.0000549  -0.0000278
    2   0.8936661  -0.0000656  -0.8934744   0.0001526  -0.0001191  -0.0000537
    3  -0.2829516  -0.0000531   0.2829297  -0.0000826   0.0000361  -0.0000856
            7           8           9          10          11
    1  -0.0000202   0.0000655  -0.0000293  -0.0000430  -0.0000485
    2  -0.0000623   0.0000106  -0.0000091  -0.0000412  -0.0000039
    3   0.0000308   0.0000933   0.0000637   0.0000300  -0.0000107
 Max gradient component =       8.937E-01
 RMS gradient           =       2.308E-01
 Gradient time:  CPU 8.54 s  wall 0.73 s
 Geometry Optimization Parameters
   NAtoms,    NIC,     NZ,  NCons,   NDum,   NFix, NCnnct, MaxDiis
       11      68       0       1       0       0       0       0

 Cartesian Hessian Update
 Hessian Updated using BFGS Update


** CONSTRAINED OPTIMIZATION IN DELOCALIZED INTERNAL COORDINATES **
   Searching for a Minimum

   Optimization Cycle:  20

                       Coordinates (Angstroms)
     ATOM                X               Y               Z
      1  F        -0.4639564893   -1.1499966195    0.0211694737
      2  F         1.9471600858   -0.0224144175   -0.0809397390
      3  C        -0.4400616608   -0.1969224875   -0.2806231730
      4  C         0.7695662894    0.6379693063    0.2869726309
      5  C        -1.7462012167    0.6440036872    0.0505146900
      6  H        -0.3131097693   -0.0394964677   -1.4081104140
      7  H         0.7818496542    1.6547320289   -0.1167211481
      8  H         0.7383642560    0.6765104924    1.3869994330
      9  H        -1.9019768257    0.7150266140    1.1355699354
     10  H        -1.6980158024    1.6525900964   -0.3655340438
     11  H        -2.6199185212    0.1383977668   -0.3775976450
   Point Group: c1    Number of degrees of freedom:    27


   Energy is   -317.381953402

              Constraints and their Current Values
                                        Value     Constraint
   Distance(Angs):        1   3             1.000000     1.000000
 Hessian Updated using BFGS Update

 26 Hessian modes will be used to form the next step
  Hessian Eigenvalues:
     0.004091    0.061698    0.116268    0.142187    0.157663    0.263033
     0.277934    0.283292    0.300583    0.380234    0.413667    0.514198
     0.538248    0.538850    0.594140    0.628578    0.671253    0.775791
     1.001985    1.096111    1.138784    1.151363    1.153662    1.154711
     1.156731    1.591579

 Minimum Search - Taking Simple RFO Step
 Searching for Lamda that Minimizes Along All modes
 Value Taken    Lamda =   0.00000000
 Step Taken.  Stepsize is  0.001983

                             Maximum     Tolerance    Cnvgd?
         Gradient           0.000135      0.000300     YES
         Displacement       0.001478      0.001200      NO
         Energy change     -0.000001      0.000001     YES


                       Distance Matrix (Angstroms)
             F (  1)   F (  2)   C (  3)   C (  4)   C (  5)   H (  6)
   F (  2)  2.663710
   C (  3)  1.000000  2.401906
   C (  4)  2.188390  1.399355  1.575566
   C (  5)  2.205323  3.755304  1.588335  2.526863
   H (  6)  1.816262  2.621163  1.145481  2.122370  2.156041
   H (  7)  3.072059  2.042559  2.224535  1.094041  2.727743  2.395210
   H (  8)  2.578215  2.025964  2.220932  1.101144  2.821403  3.070977
   H (  9)  2.605399  4.103605  2.230348  2.804139  1.098479  3.092590
   H ( 10)  3.086573  4.021684  2.238382  2.746667  1.092092  2.422413
   H ( 11)  2.543059  4.579528  2.207628  3.489962  1.096494  2.532779
             H (  7)   H (  8)   H (  9)   H ( 10)
   H (  8)  1.794431
   H (  9)  3.107121  2.652565
   H ( 10)  2.492317  3.155955  1.781555
   H ( 11)  3.733544  3.831636  1.771332  1.772802
 
 Final energy is   -317.381953402400     


 ******************************
 **  OPTIMIZATION CONVERGED  **
 ******************************

                       Coordinates (Angstroms)
     ATOM                X               Y               Z
      1  F        -0.4639564893   -1.1499966195    0.0211694737
      2  F         1.9471600858   -0.0224144175   -0.0809397390
      3  C        -0.4400616608   -0.1969224875   -0.2806231730
      4  C         0.7695662894    0.6379693063    0.2869726309
      5  C        -1.7462012167    0.6440036872    0.0505146900
      6  H        -0.3131097693   -0.0394964677   -1.4081104140
      7  H         0.7818496542    1.6547320289   -0.1167211481
      8  H         0.7383642560    0.6765104924    1.3869994330
      9  H        -1.9019768257    0.7150266140    1.1355699354
     10  H        -1.6980158024    1.6525900964   -0.3655340438
     11  H        -2.6199185212    0.1383977668   -0.3775976450

Z-matrix Print:
$molecule
0 1
F 
C  1 1.000000
H  2 1.145481 1 115.510925
C  2 1.575566 1 114.497789 3 -117.189654 0
H  4 1.094041 2 111.602193 1 176.771856 0
H  4 1.101144 2 110.896172 1 -60.648486 0
F  4 1.399355 2 107.535072 1 56.789260 0
C  2 1.588335 1 114.962609 3 119.696798 0
H  8 1.092092 2 111.916113 1 -175.705283 0
H  8 1.096494 2 109.252295 1 -55.900420 0
H  8 1.098479 2 110.902569 1 62.547414 0
$end

PES scan, value:    1.0000 energy: -317.3819534024
------- Summary of potential scan: ------ 
    1.0000      -317.3819534024
----------------------------------------- 
Archival summary:
1\1\hpc0244\JobtypUnspecified\ProcedureUnspecified\6-31G**\236\knomura\WedMar1316:24:282019WedMar1316:24:282019\0\\#,JobtypUnspecified,ProcedureUnspecified,6-31G**,\\0,1\F\C,1,1\H,2,1.14548,1,115.511\C,2,1.57557,1,114.498,3,-117.19,0\H,4,1.09404,2,111.602,1,176.772,0\H,4,1.10114,2,110.896,1,-60.6485,0\F,4,1.39935,2,107.535,1,56.7893,0\C,2,1.58834,1,114.963,3,119.697,0\H,8,1.09209,2,111.916,1,-175.705,0\H,8,1.09649,2,109.252,1,-55.9004,0\H,8,1.09848,2,110.903,1,62.5474,0\\\@

 Total job time:  60.17s(wall), 683.98s(cpu) 
 Wed Mar 13 16:24:28 2019

        *************************************************************
        *                                                           *
        *  Thank you very much for using Q-Chem.  Have a nice day.  *
        *                                                           *
        *************************************************************


