
Running Job 1 of 1 halogens/Flourine/03/F_1_3.xyz.data/inputs/bond_triplet_3.4.in
qchem halogens/Flourine/03/F_1_3.xyz.data/inputs/bond_triplet_3.4.in_1980.0 /staging/scratch/2868761/qchem1980/ 1
/usr/usc/qchem/5.1.1/exe/qcprog.exe_s halogens/Flourine/03/F_1_3.xyz.data/inputs/bond_triplet_3.4.in_1980.0 /staging/scratch/2868761/qchem1980/
Check license passed

                  Welcome to Q-Chem
     A Quantum Leap Into The Future Of Chemistry


 Q-Chem 5.1, Q-Chem, Inc., Pleasanton, CA (2018)

 Yihan Shao,  Zhengting Gan,  E. Epifanovsky,  A. T. B. Gilbert,  M. Wormit,  
 J. Kussmann,  A. W. Lange,  A. Behn,  Jia Deng,  Xintian Feng,  D. Ghosh,  
 M. Goldey,  P. R. Horn,  L. D. Jacobson,  I. Kaliman,  T. Kus,  A. Landau,  
 Jie Liu,  E. I. Proynov,  R. M. Richard,  R. P. Steele,  E. J. Sundstrom,  
 H. L. Woodcock III,  P. M. Zimmerman,  D. Zuev,  B. Albrecht,  E. Alguire,  
 S. A. Baeppler,  D. Barton,  Z. Benda,  Y. A. Bernard,  E. J. Berquist,  
 K. B. Bravaya,  H. Burton,  D. Casanova,  Chun-Min Chang,  Yunqing Chen,  
 A. Chien,  K. D. Closser,  M. P. Coons,  S. Coriani,  S. Dasgupta,  
 A. L. Dempwolff,  M. Diedenhofen,  Hainam Do,  R. G. Edgar,  Po-Tung Fang,  
 S. Faraji,  S. Fatehi,  Qingguo Feng,  K. D. Fenk,  J. Fosso-Tande,  
 Qinghui Ge,  A. Ghysels,  G. Gidofalvi,  J. Gomes,  J. Gonthier,  A. Gunina,  
 D. Hait,  M. W. D. Hanson-Heine,  P. H. P. Harbach,  A. W. Hauser,  
 J. E. Herr,  E. G. Hohenstein,  Z. C. Holden,  Kerwin Hui,  B. C. Huynh,  
 T.-C. Jagau,  Hyunjun Ji,  B. Kaduk,  K. Khistyaev,  Jaehoon Kim,  
 P. Klunzinger,  K. Koh,  D. Kosenkov,  L. Koulias,  T. Kowalczyk,  
 C. M. Krauter,  A. Kunitsa,  Ka Un Lao,  A. Laurent,  K. V. Lawler,  
 Joonho Lee,  D. Lefrancois,  S. Lehtola,  D. S. Levine,  Yi-Pei Li,  
 You-Sheng Lin,  Fenglai Liu,  E. Livshits,  A. Luenser,  P. Manohar,  
 E. Mansoor,  S. F. Manzer,  Shan-Ping Mao,  Yuezhi Mao,  N. Mardirossian,  
 A. V. Marenich,  T. Markovich,  L. A. Martinez-Martinez,  S. A. Maurer,  
 N. J. Mayhall,  S. C. McKenzie,  J.-M. Mewes,  A. F. Morrison,  
 J. W. Mullinax,  K. Nanda,  T. S. Nguyen-Beck,  R. Olivares-Amaya,  
 J. A. Parkhill,  T. M. Perrine,  F. Plasser,  P. Pokhilko,  S. Prager,  
 A. Prociuk,  E. Ramos,  D. R. Rehn,  F. Rob,  M. Schneider,  N. Sergueev,  
 S. M. Sharada,  S. Sharma,  D. W. Small,  T. Stauch,  T. Stein,  
 Yu-Chuan Su,  A. J. W. Thom,  A. Tkatchenko,  T. Tsuchimochi,  N. M. Tubman,  
 L. Vogt,  M. L. Vidal,  O. Vydrov,  M. A. Watson,  J. Wenzel,  
 M. de Wergifosse,  T. A. Wesolowski,  A. White,  J. Witte,  A. Yamada,  
 Jun Yang,  K. Yao,  S. Yeganeh,  S. R. Yost,  Zhi-Qiang You,  A. Zech,  
 Igor Ying Zhang,  Xing Zhang,  Yan Zhao,  Ying Zhu,  B. R. Brooks,  
 G. K. L. Chan,  C. J. Cramer,  M. S. Gordon,  W. J. Hehre,  A. Klamt,  
 M. W. Schmidt,  C. D. Sherrill,  D. G. Truhlar,  A. Aspuru-Guzik,  R. Baer,  
 A. T. Bell,  N. A. Besley,  Jeng-Da Chai,  A. E. DePrince, III,  
 R. A. DiStasio Jr.,  A. Dreuw,  B. D. Dunietz,  T. R. Furlani,  
 Chao-Ping Hsu,  Yousung Jung,  Jing Kong,  D. S. Lambrecht,  WanZhen Liang,  
 C. Ochsenfeld,  V. A. Rassolov,  L. V. Slipchenko,  J. E. Subotnik,  
 T. Van Voorhis,  J. M. Herbert,  A. I. Krylov,  P. M. W. Gill,  M. Head-Gordon

 Contributors to earlier versions of Q-Chem not listed above: 
 R. D. Adamson,  B. Austin,  J. Baker,  G. J. O. Beran,  K. Brandhorst,  
 S. T. Brown,  E. F. C. Byrd,  A. K. Chakraborty,  C.-L. Cheng,  
 Siu Hung Chien,  D. M. Chipman,  D. L. Crittenden,  H. Dachsel,  
 R. J. Doerksen,  A. D. Dutoi,  L. Fusti-Molnar,  W. A. Goddard III,  
 A. Golubeva-Zadorozhnaya,  S. R. Gwaltney,  G. Hawkins,  A. Heyden,  
 S. Hirata,  G. Kedziora,  F. J. Keil,  C. Kelley,  Jihan Kim,  R. A. King,  
 R. Z. Khaliullin,  P. P. Korambath,  W. Kurlancheek,  A. M. Lee,  M. S. Lee,  
 S. V. Levchenko,  Ching Yeh Lin,  D. Liotard,  R. C. Lochan,  I. Lotan,  
 P. E. Maslen,  N. Nair,  D. P. O'Neill,  D. Neuhauser,  E. Neuscamman,  
 C. M. Oana,  R. Olson,  B. Peters,  R. Peverati,  P. A. Pieniazek,  
 Y. M. Rhee,  J. Ritchie,  M. A. Rohrdanz,  E. Rosta,  N. J. Russ,  
 H. F. Schaefer III,  N. E. Schultz,  N. Shenvi,  A. C. Simmonett,  A. Sodt,  
 D. Stuck,  K. S. Thanthiriwatte,  V. Vanovschi,  Tao Wang,  A. Warshel,  
 C. F. Williams,  Q. Wu,  X. Xu,  W. Zhang

 Please cite Q-Chem as follows:
 Y. Shao et al., Mol. Phys. 113, 184-215 (2015)
 DOI: 10.1080/00268976.2014.952696

 Q-Chem 5.1.1 for Intel X86 EM64T Linux

 Parts of Q-Chem use Armadillo 8.300.2 (Tropical Shenanigans).
 http://arma.sourceforge.net/

 Q-Chem begins on Wed Mar 13 17:30:50 2019  

Host: 
0

     Scratch files written to /staging/scratch/2868761/qchem1980//
 Aug318 |scratch|qcdevops|jenkins|workspace|build_RNUM 6013   
Processing $rem in /usr/usc/qchem/5.1.1/config/preferences.
 MEM_TOTAL  2000 
Input Ideriv = 2
Curr. Ideriv = -1
Max.  Ideriv = 2

Checking the input file for inconsistencies... 	...done.

--------------------------------------------------------------
User input:
--------------------------------------------------------------

$comment
potential surface scanner
$end

$rem
JOBTYPE  PES_SCAN
UNRESTRICTED TRUE
SYM_IGNORE  TRUE
GEOM_OPT_MAX_CYCLES 400
SCF_MAX_CYCLES 400
METHOD   B3LYP
BASIS   6-31G**
PDB_PRINT 2
SCF_CONVERGENCE 6
THRESH 14
SCF_PRINT 1
$end
$molecule
0 3
F 0.031513 -0.042939 2.514792
F 0.998412 -1.112943 -0.833905
C -0.446636 0.813031 -0.845073
C 0.766237 0.152023 -0.380749
C -1.738062 0.784464 -0.091757
H -0.440178 1.234943 -1.852775
H 1.703735 0.687255 -0.218991
H 0.433990 -0.114537 1.670470
H -2.397282 -0.015569 -0.466638
H -1.568525 0.600986 0.971533
H -2.289507 1.723685 -0.215205
$end
$scan
stre 1 3 3.400000 3.401000 0.100000
$end
--------------------------------------------------------------
 ----------------------------------------------------------------
             Standard Nuclear Orientation (Angstroms)
    I     Atom           X                Y                Z
 ----------------------------------------------------------------
    1      F       0.0315130000    -0.0429390000     2.5147920000
    2      F       0.9984120000    -1.1129430000    -0.8339050000
    3      C      -0.4466360000     0.8130310000    -0.8450730000
    4      C       0.7662370000     0.1520230000    -0.3807490000
    5      C      -1.7380620000     0.7844640000    -0.0917570000
    6      H      -0.4401780000     1.2349430000    -1.8527750000
    7      H       1.7037350000     0.6872550000    -0.2189910000
    8      H       0.4339900000    -0.1145370000     1.6704700000
    9      H      -2.3972820000    -0.0155690000    -0.4666380000
   10      H      -1.5685250000     0.6009860000     0.9715330000
   11      H      -2.2895070000     1.7236850000    -0.2152050000
 ----------------------------------------------------------------
 Nuclear Repulsion Energy =   167.9780850587 hartrees
 There are       22 alpha and       20 beta electrons
 Requested basis set is 6-31G(d,p)
 There are 38 shells and 105 basis functions

 Total QAlloc Memory Limit   2000 MB
 Mega-Array Size       188 MB
 MEM_STATIC part       192 MB
A total of 1 constraints
  
            1
    1   1.0100000
    2   1.0100000
    3   3.0100000
    4   3.4000000
    5   3.4010000
    6   0.1000000
    7   0.0000000
    8   0.0000000
    9   0.0000000
   10   0.0000000

                       Distance Matrix (Angstroms)
             F (  1)   F (  2)   C (  3)   C (  4)   C (  5)   H (  6)
   F (  2)  3.646035
   C (  3)  3.500001  2.407834
   C (  4)  2.993658  1.363596  1.457254
   C (  5)  3.257313  3.411631  1.495354  2.599040
   H (  6)  4.575054  2.936019  1.092481  2.189752  2.233522
   H (  7)  3.286804  2.028870  2.243188  1.091578  3.445520  2.750559
   H (  8)  0.938080  2.754502  2.822028  2.094980  2.937934  3.872792
   H (  9)  3.845610  3.587458  2.152861  3.169119  1.102343  2.704702
   H ( 10)  2.314392  3.575797  2.145613  2.735205  1.092242  3.106732
   H ( 11)  3.995119  4.386304  2.149930  3.440218  1.096115  2.518039
             H (  7)   H (  8)   H (  9)   H ( 10)
   H (  8)  2.413542
   H (  9)  4.168169  3.548680
   H ( 10)  3.483170  2.238426  1.770682
   H ( 11)  4.125552  3.788438  1.760636  1.785669
 
 A cutoff of  1.0D-14 yielded    708 shell pairs
 There are      5573 function pairs
 
 -------------------------------------------------------
 OpenMP Integral Computing Module                       
 Release: version 1.0, May 2013, Q-Chem Inc. Pittsburgh 
 -------------------------------------------------------
 Integral Job Info:
 Integral job number is                      11
 Integral operator is                         1
 short-range coefficients                     0
 long-range coefficients              100000000
 Omega coefficients                           0
 if combine SR and LR in K                    0
 Integral screening is                        0
 Integral computing path is                   2
 max size of driver memory is            800000
 size of driver memory is                593474
 size of scratch memory is              2361544
 max col of scratch BK array               1296
 max len of scratch array in speh3          155
 max len of scratch index in speh4           18
 max int batch size is                      520
 min int batch size is                       52
 fixed nKL is                                52
 max L of basis functions is                  2
 order of int derivative is                   0
 number of shells is                         38
 number of basis is                         105
 number of cartesian basis is               105
 number of contracted shell pairs           708
 number of primitive shell pairs           2524
 maxK2 (contraction) of shell pair           36
 max number of K2 of shell pair               1
 max number of CS2 of shell pair             64
 max number of PS2 of shell pair            264
 mem total for path MDJ                  519084
 -------------------------------------------------------
 Smallest overlap matrix eigenvalue = 4.89E-03

 Scale SEOQF with 1.000000e-01/1.000000e-01/1.000000e-01

 Standard Electronic Orientation quadrupole field applied
 Nucleus-field energy     =    -0.0000000047 hartrees
 Guess from superposition of atomic densities
 Warning:  Energy on first SCF cycle will be non-variational
 SAD guess density has 42.000000 electrons

 -----------------------------------------------------------------------
  General SCF calculation program by
  Eric Jon Sundstrom, Paul Horn, Yuezhi Mao, Dmitri Zuev, Alec White,
  David Stuck, Shaama M.S., Shane Yost, Joonho Lee, David Small,
  Daniel Levine, Susi Lehtola, Hugh Burton, Evgeny Epifanovsky
 -----------------------------------------------------------------------
 Exchange:     0.2000 Hartree-Fock + 0.0800 Slater + 0.7200 B88
 Correlation:  0.1900 VWN1RPA + 0.8100 LYP
 Using SG-1 standard quadrature grid
 using 12 threads for integral computing
 -------------------------------------------------------
 OpenMP Integral computing Module                
 Release: version 1.0, May 2013, Q-Chem Inc. Pittsburgh 
 -------------------------------------------------------
 -------------------------------------------------------
 OpenMP BLAS3 based DFT computing Module                
 Release: version 1.0, May 2013, Q-Chem Inc. Pittsburgh 
 -------------------------------------------------------
 A unrestricted SCF calculation will be
 performed using DIIS
 SCF converges when DIIS error is below 1.0e-06
 Alpha HF Exchange    Energy =  -3.75063896186622
 Beta HF Exchange     Energy =  -3.75063896186622
 DFT Correlation      Energy =  -1.84143443529955
 DFT Exchange         Energy = -29.60304335090945
 One-Electron (alpha) Energy = -383.29570543274110
 One-Electron (beta)  Energy = -383.29570543274110
 Total Coulomb        Energy = 319.65474460883473
 ---------------------------------------
  Cycle       Energy         DIIS error
 ---------------------------------------
    1    -317.9043369125      2.94e-02  
 Alpha HF Exchange    Energy =  -3.91678456221177
 Beta HF Exchange     Energy =  -3.71343301381979
 DFT Correlation      Energy =  -1.86003883051132
 DFT Exchange         Energy = -30.32609087461687
 One-Electron (alpha) Energy = -398.99038837622834
 One-Electron (beta)  Energy = -374.04577435632717
 Total Coulomb        Energy = 327.47530124897276
    2    -317.3991237107      4.24e-03  
 Alpha HF Exchange    Energy =  -3.83796705124918
 Beta HF Exchange     Energy =  -3.62873578743979
 DFT Correlation      Energy =  -1.83449280356362
 DFT Exchange         Energy = -29.67453273161546
 One-Electron (alpha) Energy = -395.78347419147900
 One-Electron (beta)  Energy = -370.65960901712583
 Total Coulomb        Energy = 320.06181896506695
    3    -317.3789075633      5.03e-03  
 Alpha HF Exchange    Energy =  -3.88120893819797
 Beta HF Exchange     Energy =  -3.67611437934643
 DFT Correlation      Energy =  -1.84630737354194
 DFT Exchange         Energy = -30.02585535643081
 One-Electron (alpha) Energy = -397.51388975404029
 One-Electron (beta)  Energy = -372.37005996537022
 Total Coulomb        Energy = 323.85358012060289
    4    -317.4817705922      4.85e-04  
 Alpha HF Exchange    Energy =  -3.88161050064056
 Beta HF Exchange     Energy =  -3.67375371240675
 DFT Correlation      Energy =  -1.84675320321549
 DFT Exchange         Energy = -30.02093935823221
 One-Electron (alpha) Energy = -397.62436107944808
 One-Electron (beta)  Energy = -372.37691625677769
 Total Coulomb        Energy = 323.96365800182224
    5    -317.4825910548      2.79e-04  
 Alpha HF Exchange    Energy =  -3.88212675002776
 Beta HF Exchange     Energy =  -3.67494656422355
 DFT Correlation      Energy =  -1.84640293932580
 DFT Exchange         Energy = -30.02564486706699
 One-Electron (alpha) Energy = -397.60762891744042
 One-Electron (beta)  Energy = -372.35721841624758
 Total Coulomb        Energy = 323.93293998126342
    6    -317.4829434190      8.50e-05  
 Alpha HF Exchange    Energy =  -3.88185937269502
 Beta HF Exchange     Energy =  -3.67455679144228
 DFT Correlation      Energy =  -1.84627065161158
 DFT Exchange         Energy = -30.02292233569919
 One-Electron (alpha) Energy = -397.59672790507233
 One-Electron (beta)  Energy = -372.33549976680166
 Total Coulomb        Energy = 323.89678093805048
    7    -317.4829708312      2.70e-05  
 Alpha HF Exchange    Energy =  -3.88199112891465
 Beta HF Exchange     Energy =  -3.67464687987782
 DFT Correlation      Energy =  -1.84628160294249
 DFT Exchange         Energy = -30.02374241839087
 One-Electron (alpha) Energy = -397.60611243319835
 One-Electron (beta)  Energy = -372.33855919143798
 Total Coulomb        Energy = 323.91027402678242
    8    -317.4829745739      7.45e-06  
 Alpha HF Exchange    Energy =  -3.88201948206752
 Beta HF Exchange     Energy =  -3.67464857322850
 DFT Correlation      Energy =  -1.84627297483334
 DFT Exchange         Energy = -30.02384510992826
 One-Electron (alpha) Energy = -397.60760352916066
 One-Electron (beta)  Energy = -372.33733979898631
 Total Coulomb        Energy = 323.91066948549133
    9    -317.4829749286      3.91e-06  
 Alpha HF Exchange    Energy =  -3.88200319426960
 Beta HF Exchange     Energy =  -3.67464030930502
 DFT Correlation      Energy =  -1.84626638872476
 DFT Exchange         Energy = -30.02373713700390
 One-Electron (alpha) Energy = -397.60699820141065
 One-Electron (beta)  Energy = -372.33634692617096
 Total Coulomb        Energy = 323.90893208497943
   10    -317.4829750178      7.55e-07  Convergence criterion met
 ---------------------------------------
 SCF time:   CPU 23.54s  wall 2.00s 
<S^2> =          2.004420564
 Alpha HF Exchange    Energy =  -3.88200319426960
 Beta HF Exchange     Energy =  -3.67464030930502
 DFT Correlation      Energy =  -1.84626638872476
 DFT Exchange         Energy = -30.02373713700390
 One-Electron (alpha) Energy = -397.60699820141065
 One-Electron (beta)  Energy = -372.33634692617096
 Total Coulomb        Energy = 323.90893208497943
 Nuclear repulsion Energy = 167.97808505407917
 SCF   energy in the final basis set =     -317.4829750178
 Total energy in the final basis set =     -317.4829750178
 
 --------------------------------------------------------------
 
                    Orbital Energies (a.u.)
 --------------------------------------------------------------
 
 Alpha MOs
 -- Occupied --
-24.717 -24.655 -10.289 -10.226 -10.194  -1.226  -1.158  -0.806
 -0.705  -0.602  -0.526  -0.519  -0.497  -0.474  -0.429  -0.424
 -0.398  -0.372  -0.369  -0.359  -0.232  -0.229
 -- Virtual --
  0.106   0.116   0.122   0.137   0.154   0.167   0.198   0.259
  0.311   0.488   0.498   0.509   0.556   0.568   0.594   0.686
  0.706   0.731   0.760   0.802   0.841   0.854   0.871   0.895
  0.918   1.006   1.086   1.173   1.181   1.196   1.260   1.319
  1.340   1.374   1.445   1.522   1.545   1.611   1.620   1.660
  1.686   1.769   1.803   1.809   1.829   1.873   1.879   1.888
  1.911   1.961   2.003   2.029   2.066   2.086   2.156   2.230
  2.268   2.356   2.391   2.421   2.516   2.559   2.613   2.631
  2.651   2.729   2.743   2.772   2.838   2.852   2.975   3.018
  3.180   3.326   3.354   3.434   3.450   3.708   4.006   4.075
  4.316   4.460   4.592
 
 Beta MOs
 -- Occupied --
-24.711 -24.654 -10.276 -10.212 -10.194  -1.210  -1.154  -0.776
 -0.685  -0.578  -0.511  -0.505  -0.484  -0.443  -0.415  -0.410
 -0.390  -0.368  -0.365  -0.352
 -- Virtual --
 -0.089  -0.080   0.115   0.135   0.138   0.149   0.166   0.178
  0.218   0.278   0.331   0.501   0.511   0.527   0.580   0.587
  0.637   0.709   0.724   0.742   0.772   0.813   0.850   0.865
  0.882   0.905   0.923   1.030   1.094   1.177   1.193   1.206
  1.272   1.340   1.345   1.378   1.473   1.536   1.566   1.616
  1.630   1.681   1.703   1.784   1.817   1.827   1.857   1.877
  1.885   1.894   1.920   1.992   2.028   2.036   2.074   2.092
  2.173   2.251   2.289   2.369   2.412   2.441   2.541   2.574
  2.627   2.650   2.661   2.730   2.754   2.775   2.846   2.861
  2.986   3.029   3.186   3.339   3.366   3.441   3.454   3.710
  4.011   4.101   4.324   4.481   4.609
 --------------------------------------------------------------
 
          Ground-State Mulliken Net Atomic Charges

     Atom                 Charge (a.u.)    Spin (a.u.)
  --------------------------------------------------------
      1 F                    -0.362919       0.028805
      2 F                    -0.248615       0.128792
      3 C                    -0.091755       0.943977
      4 C                     0.080344       0.829959
      5 C                    -0.360506      -0.053527
      6 H                     0.119893       0.005717
      7 H                     0.120767      -0.009044
      8 H                     0.344621       0.032216
      9 H                     0.134110       0.061730
     10 H                     0.140113       0.006908
     11 H                     0.123948       0.024466
  --------------------------------------------------------
  Sum of atomic charges =    -0.000000
  Sum of spin   charges =     2.000000

 -----------------------------------------------------------------
                    Cartesian Multipole Moments
 -----------------------------------------------------------------
    Charge (ESU x 10^10)
                -0.0000
    Dipole Moment (Debye)
         X       0.0120      Y       1.3035      Z      -2.0754
       Tot       2.4509
    Quadrupole Moments (Debye-Ang)
        XX     -26.7765     XY       0.6768     YY     -29.8767
        XZ       1.3786     YZ      -1.4724     ZZ     -35.5974
    Octopole Moments (Debye-Ang^2)
       XXX      16.7276    XXY      -3.7213    XYY       3.9876
       YYY     -18.9178    XXZ      -0.9287    XYZ      -0.6457
       YYZ      -1.4791    XZZ       6.0447    YZZ      -4.7061
       ZZZ     -24.8959
    Hexadecapole Moments (Debye-Ang^3)
      XXXX    -234.8622   XXXY      50.8125   XXYY     -58.0287
      XYYY      48.0043   YYYY    -122.9533   XXXZ       6.2546
      XXYZ       1.2652   XYYZ       3.1898   YYYZ       5.1472
      XXZZ     -88.1448   XYZZ      16.2897   YYZZ     -67.2967
      XZZZ       4.4818   YZZZ       3.6066   ZZZZ    -332.6412
 -----------------------------------------------------------------
 Calculating analytic gradient of the SCF energy
 Gradient of SCF Energy
            1           2           3           4           5           6
    1   0.0000123  -0.0000341  -0.0000978   0.0000174  -0.0001437   0.0000090
    2  -0.0003024  -0.0000205   0.0002296  -0.0000258  -0.0000036   0.0000183
    3   0.0010341   0.0000437  -0.0009694  -0.0000553  -0.0000602   0.0000005
            7           8           9          10          11
    1   0.0000027   0.0001510   0.0000347  -0.0000263   0.0000748
    2  -0.0000314   0.0001155   0.0000072  -0.0000300   0.0000430
    3  -0.0000060  -0.0000449   0.0000093   0.0000462   0.0000022
 Max gradient component =       1.034E-03
 RMS gradient           =       2.609E-04
 Gradient time:  CPU 8.19 s  wall 0.73 s
 Geometry Optimization Parameters
   NAtoms,    NIC,     NZ,  NCons,   NDum,   NFix, NCnnct, MaxDiis
       11      75       0       1       0       0       0       0


** CONSTRAINED OPTIMIZATION IN DELOCALIZED INTERNAL COORDINATES **
   Searching for a Minimum

   Optimization Cycle:   1

                       Coordinates (Angstroms)
     ATOM                X               Y               Z
      1  F         0.0315130000   -0.0429390000    2.5147920000
      2  F         0.9984120000   -1.1129430000   -0.8339050000
      3  C        -0.4466360000    0.8130310000   -0.8450730000
      4  C         0.7662370000    0.1520230000   -0.3807490000
      5  C        -1.7380620000    0.7844640000   -0.0917570000
      6  H        -0.4401780000    1.2349430000   -1.8527750000
      7  H         1.7037350000    0.6872550000   -0.2189910000
      8  H         0.4339900000   -0.1145370000    1.6704700000
      9  H        -2.3972820000   -0.0155690000   -0.4666380000
     10  H        -1.5685250000    0.6009860000    0.9715330000
     11  H        -2.2895070000    1.7236850000   -0.2152050000
   Point Group: c1    Number of degrees of freedom:    27


   Energy is   -317.482975018

              Constraints and their Current Values
                                        Value     Constraint
   Distance(Angs):        1   3             3.500001     3.400000

 Attempting to Generate Delocalized Internal Coordinates

   Using Lagrange Multiplier Algorithm


 28 Hessian modes will be used to form the next step
  Hessian Eigenvalues:
    -0.994884    0.032374    0.045108    0.045151    0.045253    0.045721
     0.065031    0.073707    0.083744    0.088305    0.094579    0.109845
     0.126672    0.128831    0.141692    0.158586    0.159135    0.170133
     0.307764    0.326123    0.334244    0.341155    0.345275    0.346310
     0.349995    0.515391    0.522272    1.005143

 Minimum Search - Taking P-RFO Step
 Searching for Lamda that Maximizes Along the Constraint modes Only
 Value Taken    Lamda =   0.01753539
 Searching for Lamda that Minimizes Along All other modes
 Value Taken    Lamda =  -0.01756044
 Step Taken.  Stepsize is  0.185720

                             Maximum     Tolerance    Cnvgd?
         Gradient            0.188974       0.000300      NO
         Displacement        0.185715       0.001200      NO
         Energy change     *********       0.000001      NO


 New Cartesian Coordinates Obtained by Inverse Iteration

 Displacement from previous Coordinates is:  0.168798
 ----------------------------------------------------------------
             Standard Nuclear Orientation (Angstroms)
    I     Atom           X                Y                Z
 ----------------------------------------------------------------
    1      F       0.0100263763    -0.0220417173     2.4551972669
    2      F       1.0110717876    -1.1131499462    -0.8405568435
    3      C      -0.4413321082     0.8003842211    -0.8146071656
    4      C       0.7749989117     0.1480814763    -0.3790535865
    5      C      -1.7395798350     0.7821314919    -0.0794527797
    6      H      -0.4366108704     1.2247250916    -1.8212879973
    7      H       1.7121005671     0.6853575940    -0.2217540676
    8      H       0.4255086207    -0.1082349897     1.6490314112
    9      H      -2.3995822199    -0.0143512020    -0.4605655289
   10      H      -1.5771449872     0.6037445482     0.9727721391
   11      H      -2.2857592427     1.7237524320    -0.2080208480
 ----------------------------------------------------------------
 Nuclear Repulsion Energy =   169.1775892498 hartrees
 There are       22 alpha and       20 beta electrons

                       Distance Matrix (Angstroms)
             F (  1)   F (  2)   C (  3)   C (  4)   C (  5)   H (  6)
   F (  2)  3.613116
   C (  3)  3.401725  2.402449
   C (  4)  2.940596  1.363606  1.447296
   C (  5)  3.183122  3.425997  1.492056  2.610534
   H (  6)  4.476856  2.919465  1.092471  2.169608  2.219821
   H (  7)  3.250160  2.027064  2.236510  1.091590  3.455968  2.732469
   H (  8)  0.911020  2.747870  2.765234  2.073878  2.909986  3.816169
   H (  9)  3.782584  3.603375  2.150322  3.179779  1.102377  2.690749
   H ( 10)  2.260156  3.596492  2.126843  2.750935  1.079530  3.081105
   H ( 11)  3.925705  4.395135  2.149992  3.446771  1.096126  2.504198
             H (  7)   H (  8)   H (  9)   H ( 10)
   H (  8)  2.405192
   H (  9)  4.177626  3.527088
   H ( 10)  3.500384  2.230440  1.764342
   H ( 11)  4.130537  3.762419  1.760039  1.775056
 
 Applying Cartesian multipole field
    Component          Value
    ---------          -----
     (2,0,0)        1.00000E-11
     (0,2,0)        2.00000E-11
     (0,0,2)       -3.00000E-11
 Nucleus-field energy     =    -0.0000000043 hartrees
 Requested basis set is 6-31G(d,p)
 There are 38 shells and 105 basis functions
 A cutoff of  1.0D-14 yielded    709 shell pairs
 There are      5577 function pairs
 Smallest overlap matrix eigenvalue = 4.75E-03
 Guess from superposition of atomic densities
 Warning:  Energy on first SCF cycle will be non-variational
 SAD guess density has 42.000000 electrons

 -----------------------------------------------------------------------
  General SCF calculation program by
  Eric Jon Sundstrom, Paul Horn, Yuezhi Mao, Dmitri Zuev, Alec White,
  David Stuck, Shaama M.S., Shane Yost, Joonho Lee, David Small,
  Daniel Levine, Susi Lehtola, Hugh Burton, Evgeny Epifanovsky
 -----------------------------------------------------------------------
 Exchange:     0.2000 Hartree-Fock + 0.0800 Slater + 0.7200 B88
 Correlation:  0.1900 VWN1RPA + 0.8100 LYP
 Using SG-1 standard quadrature grid
 using 12 threads for integral computing
 -------------------------------------------------------
 OpenMP Integral computing Module                
 Release: version 1.0, May 2013, Q-Chem Inc. Pittsburgh 
 -------------------------------------------------------
 -------------------------------------------------------
 OpenMP BLAS3 based DFT computing Module                
 Release: version 1.0, May 2013, Q-Chem Inc. Pittsburgh 
 -------------------------------------------------------
 A unrestricted SCF calculation will be
 performed using DIIS
 SCF converges when DIIS error is below 1.0e-06
 Alpha HF Exchange    Energy =  -3.75538797687989
 Beta HF Exchange     Energy =  -3.75538797687989
 DFT Correlation      Energy =  -1.84273406075605
 DFT Exchange         Energy = -29.61377168081254
 One-Electron (alpha) Energy = -384.45053237997234
 One-Electron (beta)  Energy = -384.45053237997234
 Total Coulomb        Energy = 320.74735021697109
 ---------------------------------------
  Cycle       Energy         DIIS error
 ---------------------------------------
    1    -317.9434069928      2.98e-02  
 Alpha HF Exchange    Energy =  -3.91988728070344
 Beta HF Exchange     Energy =  -3.71585215445580
 DFT Correlation      Energy =  -1.86150047601140
 DFT Exchange         Energy = -30.34586234713083
 One-Electron (alpha) Energy = -400.23860204845880
 One-Electron (beta)  Energy = -375.18852584554827
 Total Coulomb        Energy = 328.69437269023757
    2    -317.3982682166      4.25e-03  
 Alpha HF Exchange    Energy =  -3.84123564106698
 Beta HF Exchange     Energy =  -3.63196403020800
 DFT Correlation      Energy =  -1.83605394613943
 DFT Exchange         Energy = -29.69691168738024
 One-Electron (alpha) Energy = -397.00473209875724
 One-Electron (beta)  Energy = -371.79579397208096
 Total Coulomb        Energy = 321.24774840823829
    3    -317.3813537219      4.93e-03  
 Alpha HF Exchange    Energy =  -3.88404409495365
 Beta HF Exchange     Energy =  -3.67858451446215
 DFT Correlation      Energy =  -1.84777530691706
 DFT Exchange         Energy = -30.04422220968267
 One-Electron (alpha) Energy = -398.74101879891379
 One-Electron (beta)  Energy = -373.50101711056351
 Total Coulomb        Energy = 325.03819441322059
    4    -317.4808783768      4.72e-04  
 Alpha HF Exchange    Energy =  -3.88439186213573
 Beta HF Exchange     Energy =  -3.67621829583996
 DFT Correlation      Energy =  -1.84818192016116
 DFT Exchange         Energy = -30.03901414215969
 One-Electron (alpha) Energy = -398.84544812255660
 One-Electron (beta)  Energy = -373.50444308877059
 Total Coulomb        Energy = 325.13846751949427
    5    -317.4816406666      2.77e-04  
 Alpha HF Exchange    Energy =  -3.88489166413145
 Beta HF Exchange     Energy =  -3.67741983577209
 DFT Correlation      Energy =  -1.84784428680137
 DFT Exchange         Energy = -30.04371799217633
 One-Electron (alpha) Energy = -398.82895252019983
 One-Electron (beta)  Energy = -373.48562186675855
 Total Coulomb        Energy = 325.10887529666422
    6    -317.4819836237      8.38e-05  
 Alpha HF Exchange    Energy =  -3.88461948086489
 Beta HF Exchange     Energy =  -3.67703893370361
 DFT Correlation      Energy =  -1.84771064677971
 DFT Exchange         Energy = -30.04100182318791
 One-Electron (alpha) Energy = -398.81793089268439
 One-Electron (beta)  Energy = -373.46406797220186
 Total Coulomb        Energy = 325.07276999155476
    7    -317.4820105124      2.58e-05  
 Alpha HF Exchange    Energy =  -3.88475179595525
 Beta HF Exchange     Energy =  -3.67712666901205
 DFT Correlation      Energy =  -1.84772385270508
 DFT Exchange         Energy = -30.04182622606926
 One-Electron (alpha) Energy = -398.82749849721154
 One-Electron (beta)  Energy = -373.46731308298513
 Total Coulomb        Energy = 325.08663685183842
    8    -317.4820140266      6.92e-06  
 Alpha HF Exchange    Energy =  -3.88477363944818
 Beta HF Exchange     Energy =  -3.67712902145583
 DFT Correlation      Energy =  -1.84771356067116
 DFT Exchange         Energy = -30.04190219063542
 One-Electron (alpha) Energy = -398.82862433575417
 One-Electron (beta)  Energy = -373.46591170457907
 Total Coulomb        Energy = 325.08645086101870
    9    -317.4820143460      3.70e-06  
 Alpha HF Exchange    Energy =  -3.88475861121875
 Beta HF Exchange     Energy =  -3.67712177819550
 DFT Correlation      Energy =  -1.84770805226071
 DFT Exchange         Energy = -30.04180551410682
 One-Electron (alpha) Energy = -398.82813010533965
 One-Electron (beta)  Energy = -373.46507059370691
 Total Coulomb        Energy = 325.08499098541444
   10    -317.4820144239      7.67e-07  Convergence criterion met
 ---------------------------------------
 SCF time:   CPU 23.35s  wall 2.00s 
<S^2> =          2.004374246
 Alpha HF Exchange    Energy =  -3.88475861121875
 Beta HF Exchange     Energy =  -3.67712177819550
 DFT Correlation      Energy =  -1.84770805226071
 DFT Exchange         Energy = -30.04180551410682
 One-Electron (alpha) Energy = -398.82813010533965
 One-Electron (beta)  Energy = -373.46507059370691
 Total Coulomb        Energy = 325.08499098541444
 Nuclear repulsion Energy = 169.17758924549230
 SCF   energy in the final basis set =     -317.4820144239
 Total energy in the final basis set =     -317.4820144239
 
 --------------------------------------------------------------
 
                    Orbital Energies (a.u.)
 --------------------------------------------------------------
 
 Alpha MOs
 -- Occupied --
-24.716 -24.656 -10.287 -10.224 -10.192  -1.224  -1.168  -0.807
 -0.707  -0.602  -0.527  -0.522  -0.498  -0.473  -0.430  -0.424
 -0.398  -0.374  -0.372  -0.360  -0.230  -0.227
 -- Virtual --
  0.106   0.120   0.127   0.140   0.158   0.169   0.205   0.261
  0.319   0.487   0.498   0.508   0.559   0.569   0.597   0.690
  0.704   0.730   0.766   0.803   0.845   0.855   0.874   0.896
  0.927   1.020   1.088   1.172   1.183   1.198   1.266   1.321
  1.343   1.377   1.448   1.519   1.549   1.612   1.621   1.661
  1.695   1.777   1.805   1.811   1.831   1.872   1.885   1.888
  1.914   1.969   2.009   2.030   2.067   2.096   2.156   2.234
  2.271   2.361   2.395   2.423   2.519   2.586   2.624   2.654
  2.665   2.753   2.760   2.803   2.853   2.862   2.987   3.023
  3.188   3.331   3.357   3.434   3.470   3.746   4.036   4.081
  4.325   4.467   4.596
 
 Beta MOs
 -- Occupied --
-24.709 -24.655 -10.274 -10.211 -10.192  -1.209  -1.165  -0.776
 -0.686  -0.577  -0.516  -0.505  -0.484  -0.442  -0.416  -0.410
 -0.390  -0.372  -0.367  -0.353
 -- Virtual --
 -0.087  -0.079   0.115   0.140   0.141   0.154   0.168   0.182
  0.224   0.280   0.339   0.498   0.513   0.527   0.583   0.588
  0.639   0.715   0.719   0.742   0.777   0.814   0.853   0.866
  0.886   0.906   0.931   1.042   1.097   1.176   1.195   1.208
  1.277   1.342   1.348   1.381   1.477   1.533   1.569   1.618
  1.632   1.681   1.711   1.792   1.819   1.829   1.857   1.873
  1.892   1.895   1.925   1.998   2.033   2.039   2.075   2.102
  2.173   2.255   2.293   2.373   2.418   2.443   2.547   2.602
  2.644   2.664   2.675   2.761   2.765   2.806   2.859   2.872
  2.997   3.034   3.194   3.344   3.369   3.442   3.473   3.747
  4.041   4.107   4.333   4.486   4.614
 --------------------------------------------------------------
 
          Ground-State Mulliken Net Atomic Charges

     Atom                 Charge (a.u.)    Spin (a.u.)
  --------------------------------------------------------
      1 F                    -0.349473       0.026541
      2 F                    -0.249535       0.129259
      3 C                    -0.091065       0.939015
      4 C                     0.077275       0.831039
      5 C                    -0.360458      -0.052616
      6 H                     0.118408       0.009619
      7 H                     0.119936      -0.009560
      8 H                     0.336000       0.033288
      9 H                     0.133136       0.062170
     10 H                     0.142456       0.007078
     11 H                     0.123319       0.024167
  --------------------------------------------------------
  Sum of atomic charges =     0.000000
  Sum of spin   charges =     2.000000

 -----------------------------------------------------------------
                    Cartesian Multipole Moments
 -----------------------------------------------------------------
    Charge (ESU x 10^10)
                 0.0000
    Dipole Moment (Debye)
         X       0.0213      Y       1.2733      Z      -1.9353
       Tot       2.3167
    Quadrupole Moments (Debye-Ang)
        XX     -26.7659     XY       0.6938     YY     -29.8536
        XZ       1.4439     YZ      -1.5072     ZZ     -35.2047
    Octopole Moments (Debye-Ang^2)
       XXX      16.6006    XXY      -3.6659    XYY       3.9377
       YYY     -18.8866    XXZ      -0.7578    XYZ      -0.7166
       YYZ      -1.2490    XZZ       6.2122    YZZ      -4.9937
       ZZZ     -22.7211
    Hexadecapole Moments (Debye-Ang^3)
      XXXX    -235.9279   XXXY      50.8148   XXYY     -58.1000
      XYYY      47.9944   YYYY    -121.9716   XXXZ       8.1002
      XXYZ       0.6873   XYYZ       3.7613   YYYZ       3.4360
      XXZZ     -86.4246   XYZZ      16.3328   YYZZ     -65.3854
      XZZZ       6.7916   YZZZ       1.7001   ZZZZ    -316.8866
 -----------------------------------------------------------------
 Calculating analytic gradient of the SCF energy
 Gradient of SCF Energy
            1           2           3           4           5           6
    1   0.0137831   0.0000490   0.0032405  -0.0038614   0.0009916   0.0000383
    2  -0.0029464   0.0007652  -0.0040985   0.0024334  -0.0003019  -0.0004118
    3  -0.0275899   0.0006611   0.0058179  -0.0040445   0.0048320   0.0009005
            7           8           9          10          11
    1   0.0002844  -0.0139963  -0.0000287  -0.0001071  -0.0003932
    2  -0.0002594   0.0030938   0.0000914   0.0016999  -0.0000658
    3   0.0001416   0.0269836  -0.0000460  -0.0081948   0.0005385
 Max gradient component =       2.759E-02
 RMS gradient           =       7.956E-03
 Gradient time:  CPU 8.07 s  wall 0.69 s
 Geometry Optimization Parameters
   NAtoms,    NIC,     NZ,  NCons,   NDum,   NFix, NCnnct, MaxDiis
       11      75       0       1       0       0       0       0

 Cartesian Hessian Update
 Hessian Updated using BFGS Update


** CONSTRAINED OPTIMIZATION IN DELOCALIZED INTERNAL COORDINATES **
   Searching for a Minimum

   Optimization Cycle:   2

                       Coordinates (Angstroms)
     ATOM                X               Y               Z
      1  F         0.0100263763   -0.0220417173    2.4551972669
      2  F         1.0110717876   -1.1131499462   -0.8405568435
      3  C        -0.4413321082    0.8003842211   -0.8146071656
      4  C         0.7749989117    0.1480814763   -0.3790535865
      5  C        -1.7395798350    0.7821314919   -0.0794527797
      6  H        -0.4366108704    1.2247250916   -1.8212879973
      7  H         1.7121005671    0.6853575940   -0.2217540676
      8  H         0.4255086207   -0.1082349897    1.6490314112
      9  H        -2.3995822199   -0.0143512020   -0.4605655289
     10  H        -1.5771449872    0.6037445482    0.9727721391
     11  H        -2.2857592427    1.7237524320   -0.2080208480
   Point Group: c1    Number of degrees of freedom:    27


   Energy is   -317.482014424

              Constraints and their Current Values
                                        Value     Constraint
   Distance(Angs):        1   3             3.401725     3.400000
 Hessian Updated using BFGS Update

   Using Lagrange Multiplier Algorithm


 28 Hessian modes will be used to form the next step
  Hessian Eigenvalues:
    -0.972145    0.032455    0.045110    0.045147    0.045262    0.045728
     0.066099    0.073816    0.083801    0.088534    0.094737    0.109863
     0.126690    0.128916    0.141848    0.158605    0.159160    0.173242
     0.315122    0.334242    0.334758    0.341156    0.345389    0.346312
     0.360640    0.522261    0.754230    1.071243

 Minimum Search - Taking P-RFO Step
 Searching for Lamda that Maximizes Along the Constraint modes Only
 Value Taken    Lamda =   0.00007131
 Searching for Lamda that Minimizes Along All other modes
 Value Taken    Lamda =  -0.00102526
 Step Taken.  Stepsize is  0.045245

                             Maximum     Tolerance    Cnvgd?
         Gradient            0.017213       0.000300      NO
         Displacement        0.023989       0.001200      NO
         Energy change      0.000961       0.000001      NO


 New Cartesian Coordinates Obtained by Inverse Iteration

 Displacement from previous Coordinates is:  0.036536
 ----------------------------------------------------------------
             Standard Nuclear Orientation (Angstroms)
    I     Atom           X                Y                Z
 ----------------------------------------------------------------
    1      F       0.0003774999    -0.0158323788     2.4550920217
    2      F       1.0114445155    -1.1149991454    -0.8421250928
    3      C      -0.4410928245     0.8023849769    -0.8153250396
    4      C       0.7768897245     0.1462340939    -0.3782010365
    5      C      -1.7387602303     0.7808902287    -0.0776196171
    6      H      -0.4369728423     1.2281522040    -1.8223716126
    7      H       1.7139352849     0.6831565022    -0.2202191452
    8      H       0.4253931522    -0.1066336251     1.6383754094
    9      H      -2.3983409792    -0.0157856149    -0.4591721179
   10      H      -1.5744484596     0.6003093763     0.9797740781
   11      H      -2.2847278410     1.7225223823    -0.2065058475
 ----------------------------------------------------------------
 Nuclear Repulsion Energy =   169.0381511091 hartrees
 There are       22 alpha and       20 beta electrons

                       Distance Matrix (Angstroms)
             F (  1)   F (  2)   C (  3)   C (  4)   C (  5)   H (  6)
   F (  2)  3.619677
   C (  3)  3.400001  2.405607
   C (  4)  2.942242  1.364167  1.450894
   C (  5)  3.173956  3.426732  1.492854  2.611825
   H (  6)  4.476100  2.923894  1.093361  2.174773  2.222353
   H (  7)  3.253023  2.028207  2.238864  1.091466  3.457021  2.736845
   H (  8)  0.925154  2.741011  2.756403  2.062540  2.901017  3.808162
   H (  9)  3.774491  3.602993  2.151062  3.180393  1.102416  2.693076
   H ( 10)  2.244164  3.598394  2.132536  2.753011  1.085214  3.088698
   H ( 11)  3.915059  4.395485  2.148559  3.447849  1.096067  2.503921
             H (  7)   H (  8)   H (  9)   H ( 10)
   H (  8)  2.395513
   H (  9)  4.178090  3.518726
   H ( 10)  3.501473  2.221011  1.768880
   H ( 11)  4.131559  3.754218  1.760245  1.780764
 
 Applying Cartesian multipole field
    Component          Value
    ---------          -----
     (2,0,0)        1.00000E-11
     (0,2,0)        2.00000E-11
     (0,0,2)       -3.00000E-11
 Nucleus-field energy     =    -0.0000000043 hartrees
 Requested basis set is 6-31G(d,p)
 There are 38 shells and 105 basis functions
 A cutoff of  1.0D-14 yielded    709 shell pairs
 There are      5577 function pairs
 Smallest overlap matrix eigenvalue = 4.78E-03
 Guess from superposition of atomic densities
 Warning:  Energy on first SCF cycle will be non-variational
 SAD guess density has 42.000000 electrons

 -----------------------------------------------------------------------
  General SCF calculation program by
  Eric Jon Sundstrom, Paul Horn, Yuezhi Mao, Dmitri Zuev, Alec White,
  David Stuck, Shaama M.S., Shane Yost, Joonho Lee, David Small,
  Daniel Levine, Susi Lehtola, Hugh Burton, Evgeny Epifanovsky
 -----------------------------------------------------------------------
 Exchange:     0.2000 Hartree-Fock + 0.0800 Slater + 0.7200 B88
 Correlation:  0.1900 VWN1RPA + 0.8100 LYP
 Using SG-1 standard quadrature grid
 using 12 threads for integral computing
 -------------------------------------------------------
 OpenMP Integral computing Module                
 Release: version 1.0, May 2013, Q-Chem Inc. Pittsburgh 
 -------------------------------------------------------
 -------------------------------------------------------
 OpenMP BLAS3 based DFT computing Module                
 Release: version 1.0, May 2013, Q-Chem Inc. Pittsburgh 
 -------------------------------------------------------
 A unrestricted SCF calculation will be
 performed using DIIS
 SCF converges when DIIS error is below 1.0e-06
 Alpha HF Exchange    Energy =  -3.75348644511259
 Beta HF Exchange     Energy =  -3.75348644511259
 DFT Correlation      Energy =  -1.84244849488489
 DFT Exchange         Energy = -29.60928987392817
 One-Electron (alpha) Energy = -384.33375881101659
 One-Electron (beta)  Energy = -384.33375881101659
 Total Coulomb        Energy = 320.66011253534310
 ---------------------------------------
  Cycle       Energy         DIIS error
 ---------------------------------------
    1    -317.9279652410      2.96e-02  
 Alpha HF Exchange    Energy =  -3.91841329064790
 Beta HF Exchange     Energy =  -3.71447678711569
 DFT Correlation      Energy =  -1.86107588386115
 DFT Exchange         Energy = -30.33592545475844
 One-Electron (alpha) Energy = -400.09346720748601
 One-Electron (beta)  Energy = -375.05739780856925
 Total Coulomb        Energy = 328.54355147887156
    2    -317.3990538488      4.24e-03  
 Alpha HF Exchange    Energy =  -3.83987321822756
 Beta HF Exchange     Energy =  -3.63028155153890
 DFT Correlation      Energy =  -1.83568954408645
 DFT Exchange         Energy = -29.68696686101207
 One-Electron (alpha) Energy = -396.87780357752206
 One-Electron (beta)  Energy = -371.67216970511993
 Total Coulomb        Energy = 321.12414127912604
    3    -317.3804920736      4.98e-03  
 Alpha HF Exchange    Energy =  -3.88278854169350
 Beta HF Exchange     Energy =  -3.67723724296811
 DFT Correlation      Energy =  -1.84739156865171
 DFT Exchange         Energy = -30.03551475616020
 One-Electron (alpha) Energy = -398.60674195085448
 One-Electron (beta)  Energy = -373.37591783004234
 Total Coulomb        Energy = 324.90590183469476
    4    -317.4815389509      4.83e-04  
 Alpha HF Exchange    Energy =  -3.88316023542639
 Beta HF Exchange     Energy =  -3.67486443818211
 DFT Correlation      Energy =  -1.84782370158597
 DFT Exchange         Energy = -30.03044121118877
 One-Electron (alpha) Energy = -398.71517685266076
 One-Electron (beta)  Energy = -373.38200505931502
 Total Coulomb        Energy = 325.01297109866846
    5    -317.4823492949      2.77e-04  
 Alpha HF Exchange    Energy =  -3.88367248986681
 Beta HF Exchange     Energy =  -3.67606065492795
 DFT Correlation      Energy =  -1.84747962195526
 DFT Exchange         Energy = -30.03514993094180
 One-Electron (alpha) Energy = -398.69847902089333
 One-Electron (beta)  Energy = -373.36233408105562
 Total Coulomb        Energy = 324.98232873724959
    6    -317.4826959576      8.49e-05  
 Alpha HF Exchange    Energy =  -3.88340087575939
 Beta HF Exchange     Energy =  -3.67567146980278
 DFT Correlation      Energy =  -1.84734643611294
 DFT Exchange         Energy = -30.03240792721884
 One-Electron (alpha) Energy = -398.68750706672341
 One-Electron (beta)  Energy = -373.34061828030661
 Total Coulomb        Energy = 324.94607749450739
    7    -317.4827234567      2.65e-05  
 Alpha HF Exchange    Energy =  -3.88353268494797
 Beta HF Exchange     Energy =  -3.67576027229652
 DFT Correlation      Energy =  -1.84735825338276
 DFT Exchange         Energy = -30.03322761985698
 One-Electron (alpha) Energy = -398.69696454682173
 One-Electron (beta)  Energy = -373.34371216028109
 Total Coulomb        Energy = 324.95967732439050
    8    -317.4827271084      7.26e-06  
 Alpha HF Exchange    Energy =  -3.88355862541224
 Beta HF Exchange     Energy =  -3.67576256581683
 DFT Correlation      Energy =  -1.84734900413397
 DFT Exchange         Energy = -30.03332152380389
 One-Electron (alpha) Energy = -398.69831959103647
 One-Electron (beta)  Energy = -373.34242299791606
 Total Coulomb        Energy = 324.95985575474060
    9    -317.4827274486      3.85e-06  
 Alpha HF Exchange    Energy =  -3.88354286769944
 Beta HF Exchange     Energy =  -3.67575457419822
 DFT Correlation      Energy =  -1.84734283762279
 DFT Exchange         Energy = -30.03321757950722
 One-Electron (alpha) Energy = -398.69776608010181
 One-Electron (beta)  Energy = -373.34148081303852
 Total Coulomb        Energy = 324.95822611321205
   10    -317.4827275342      7.60e-07  Convergence criterion met
 ---------------------------------------
 SCF time:   CPU 23.20s  wall 2.00s 
<S^2> =          2.004395379
 Alpha HF Exchange    Energy =  -3.88354286769944
 Beta HF Exchange     Energy =  -3.67575457419822
 DFT Correlation      Energy =  -1.84734283762279
 DFT Exchange         Energy = -30.03321757950722
 One-Electron (alpha) Energy = -398.69776608010181
 One-Electron (beta)  Energy = -373.34148081303852
 Total Coulomb        Energy = 324.95822611321205
 Nuclear repulsion Energy = 169.03815110476083
 SCF   energy in the final basis set =     -317.4827275342
 Total energy in the final basis set =     -317.4827275342
 
 --------------------------------------------------------------
 
                    Orbital Energies (a.u.)
 --------------------------------------------------------------
 
 Alpha MOs
 -- Occupied --
-24.717 -24.656 -10.288 -10.225 -10.193  -1.225  -1.163  -0.807
 -0.706  -0.602  -0.526  -0.521  -0.497  -0.473  -0.430  -0.423
 -0.398  -0.373  -0.371  -0.359  -0.231  -0.228
 -- Virtual --
  0.106   0.119   0.125   0.139   0.157   0.168   0.203   0.260
  0.316   0.487   0.498   0.508   0.559   0.569   0.597   0.690
  0.703   0.730   0.764   0.800   0.844   0.854   0.873   0.896
  0.925   1.018   1.088   1.173   1.183   1.199   1.266   1.321
  1.343   1.378   1.447   1.519   1.547   1.611   1.620   1.661
  1.693   1.776   1.804   1.811   1.830   1.873   1.883   1.888
  1.914   1.967   2.007   2.030   2.067   2.091   2.155   2.233
  2.269   2.360   2.393   2.422   2.517   2.575   2.620   2.647
  2.654   2.744   2.747   2.790   2.848   2.857   2.983   3.020
  3.185   3.329   3.355   3.433   3.461   3.726   4.027   4.079
  4.322   4.465   4.595
 
 Beta MOs
 -- Occupied --
-24.710 -24.655 -10.275 -10.212 -10.193  -1.210  -1.159  -0.776
 -0.686  -0.577  -0.513  -0.505  -0.483  -0.442  -0.416  -0.410
 -0.389  -0.370  -0.366  -0.352
 -- Virtual --
 -0.088  -0.080   0.115   0.139   0.140   0.152   0.168   0.181
  0.222   0.279   0.336   0.499   0.512   0.526   0.583   0.588
  0.639   0.713   0.720   0.742   0.775   0.811   0.852   0.865
  0.885   0.906   0.929   1.040   1.096   1.177   1.196   1.208
  1.278   1.342   1.348   1.382   1.475   1.533   1.567   1.616
  1.631   1.681   1.709   1.791   1.818   1.829   1.857   1.875
  1.891   1.895   1.925   1.997   2.032   2.038   2.075   2.097
  2.172   2.253   2.292   2.372   2.415   2.442   2.544   2.590
  2.637   2.660   2.664   2.745   2.760   2.793   2.856   2.867
  2.993   3.031   3.192   3.342   3.367   3.440   3.465   3.728
  4.032   4.105   4.330   4.485   4.612
 --------------------------------------------------------------
 
          Ground-State Mulliken Net Atomic Charges

     Atom                 Charge (a.u.)    Spin (a.u.)
  --------------------------------------------------------
      1 F                    -0.355332       0.029104
      2 F                    -0.249035       0.129186
      3 C                    -0.090940       0.940225
      4 C                     0.076423       0.828427
      5 C                    -0.361224      -0.052953
      6 H                     0.118841       0.008808
      7 H                     0.120976      -0.009478
      8 H                     0.340716       0.033381
      9 H                     0.133154       0.062108
     10 H                     0.143066       0.007164
     11 H                     0.123356       0.024027
  --------------------------------------------------------
  Sum of atomic charges =     0.000000
  Sum of spin   charges =     2.000000

 -----------------------------------------------------------------
                    Cartesian Multipole Moments
 -----------------------------------------------------------------
    Charge (ESU x 10^10)
                 0.0000
    Dipole Moment (Debye)
         X       0.0447      Y       1.2668      Z      -1.9640
       Tot       2.3375
    Quadrupole Moments (Debye-Ang)
        XX     -26.7770     XY       0.6969     YY     -29.8717
        XZ       1.4654     YZ      -1.5348     ZZ     -35.2612
    Octopole Moments (Debye-Ang^2)
       XXX      16.7420    XXY      -3.6857    XYY       3.9699
       YYY     -18.9357    XXZ      -0.7929    XYZ      -0.7049
       YYZ      -1.3027    XZZ       6.2795    YZZ      -5.0295
       ZZZ     -22.9174
    Hexadecapole Moments (Debye-Ang^3)
      XXXX    -235.9914   XXXY      50.8677   XXYY     -58.1442
      XYYY      48.0026   YYYY    -122.1278   XXXZ       8.5425
      XXYZ       0.5892   XYYZ       3.9323   YYYZ       3.1355
      XXZZ     -86.4736   XYZZ      16.3157   YYZZ     -65.4333
      XZZZ       7.3579   YZZZ       1.2819   ZZZZ    -317.2555
 -----------------------------------------------------------------
 Calculating analytic gradient of the SCF energy
 Gradient of SCF Energy
            1           2           3           4           5           6
    1   0.0061949   0.0001368   0.0018610  -0.0020152   0.0001718  -0.0000919
    2  -0.0013768  -0.0000197  -0.0029632   0.0020302   0.0001498  -0.0001146
    3  -0.0130917   0.0003616   0.0049315  -0.0030682   0.0018981   0.0002069
            7           8           9          10          11
    1   0.0001391  -0.0065354  -0.0000671   0.0004368  -0.0002307
    2  -0.0001920   0.0015352   0.0000742   0.0009082  -0.0000312
    3   0.0001870   0.0126324  -0.0000920  -0.0042550   0.0002893
 Max gradient component =       1.309E-02
 RMS gradient           =       3.868E-03
 Gradient time:  CPU 8.17 s  wall 0.71 s
 Geometry Optimization Parameters
   NAtoms,    NIC,     NZ,  NCons,   NDum,   NFix, NCnnct, MaxDiis
       11      75       0       1       0       0       0       0

 Cartesian Hessian Update
 Hessian Updated using BFGS Update


** CONSTRAINED OPTIMIZATION IN DELOCALIZED INTERNAL COORDINATES **
   Searching for a Minimum

   Optimization Cycle:   3

                       Coordinates (Angstroms)
     ATOM                X               Y               Z
      1  F         0.0003774999   -0.0158323788    2.4550920217
      2  F         1.0114445155   -1.1149991454   -0.8421250928
      3  C        -0.4410928245    0.8023849769   -0.8153250396
      4  C         0.7768897245    0.1462340939   -0.3782010365
      5  C        -1.7387602303    0.7808902287   -0.0776196171
      6  H        -0.4369728423    1.2281522040   -1.8223716126
      7  H         1.7139352849    0.6831565022   -0.2202191452
      8  H         0.4253931522   -0.1066336251    1.6383754094
      9  H        -2.3983409792   -0.0157856149   -0.4591721179
     10  H        -1.5744484596    0.6003093763    0.9797740781
     11  H        -2.2847278410    1.7225223823   -0.2065058475
   Point Group: c1    Number of degrees of freedom:    27


   Energy is   -317.482727534

              Constraints and their Current Values
                                        Value     Constraint
   Distance(Angs):        1   3             3.400001     3.400000
 Hessian Updated using BFGS Update

 26 Hessian modes will be used to form the next step
  Hessian Eigenvalues:
     0.032518    0.045109    0.045138    0.045236    0.045707    0.062298
     0.073405    0.083833    0.088078    0.094161    0.109817    0.126693
     0.128824    0.140671    0.158050    0.158645    0.162187    0.298944
     0.327990    0.334249    0.341153    0.345382    0.346313    0.347032
     0.519692    0.546260

 Minimum Search - Taking Simple RFO Step
 Searching for Lamda that Minimizes Along All modes
 Value Taken    Lamda =  -0.00048673
 Step Taken.  Stepsize is  0.053575

                             Maximum     Tolerance    Cnvgd?
         Gradient           0.007189      0.000300      NO
         Displacement       0.024356      0.001200      NO
         Energy change     -0.000713      0.000001      NO


 New Cartesian Coordinates Obtained by Inverse Iteration

 Displacement from previous Coordinates is:  0.042237
 ----------------------------------------------------------------
             Standard Nuclear Orientation (Angstroms)
    I     Atom           X                Y                Z
 ----------------------------------------------------------------
    1      F      -0.0055879471    -0.0091522821     2.4529010235
    2      F       1.0079152154    -1.1161496424    -0.8422868163
    3      C      -0.4408417194     0.8069754953    -0.8188711335
    4      C       0.7765250656     0.1438549351    -0.3739486783
    5      C      -1.7373161915     0.7792262422    -0.0755856839
    6      H      -0.4346516071     1.2333246292    -1.8258042727
    7      H       1.7141296003     0.6796586379    -0.2160762741
    8      H       0.4266288721    -0.1049335074     1.6262736427
    9      H      -2.3950454452    -0.0187192509    -0.4574582740
   10      H      -1.5738316186     0.5962027470     0.9876640990
   11      H      -2.2842272246     1.7201109962    -0.2051056326
 ----------------------------------------------------------------
 Nuclear Repulsion Energy =   168.9713197124 hartrees
 There are       22 alpha and       20 beta electrons

                       Distance Matrix (Angstroms)
             F (  1)   F (  2)   C (  3)   C (  4)   C (  5)   H (  6)
   F (  2)  3.620897
   C (  3)  3.400001  2.407874
   C (  4)  2.937038  1.363999  1.455908
   C (  5)  3.164438  3.422948  1.494687  2.610003
   H (  6)  4.476066  2.927172  1.093493  2.182150  2.228543
   H (  7)  3.248897  2.028745  2.241310  1.091381  3.455739  2.741356
   H (  8)  0.937709  2.730246  2.750057  2.045779  2.891491  3.801260
   H (  9)  3.765606  3.596191  2.152046  3.176832  1.102339  2.698727
   H ( 10)  2.229969  3.598095  2.142816  2.753686  1.091203  3.101493
   H ( 11)  3.904811  4.391876  2.146764  3.446926  1.095970  2.506901
             H (  7)   H (  8)   H (  9)   H ( 10)
   H (  8)  2.380650
   H (  9)  4.175083  3.508734
   H ( 10)  3.502377  2.213878  1.772258
   H ( 11)  4.131527  3.746128  1.760538  1.786206
 
 Applying Cartesian multipole field
    Component          Value
    ---------          -----
     (2,0,0)        1.00000E-11
     (0,2,0)        2.00000E-11
     (0,0,2)       -3.00000E-11
 Nucleus-field energy     =    -0.0000000043 hartrees
 Requested basis set is 6-31G(d,p)
 There are 38 shells and 105 basis functions
 A cutoff of  1.0D-14 yielded    710 shell pairs
 There are      5589 function pairs
 Smallest overlap matrix eigenvalue = 4.82E-03
 Guess from superposition of atomic densities
 Warning:  Energy on first SCF cycle will be non-variational
 SAD guess density has 42.000000 electrons

 -----------------------------------------------------------------------
  General SCF calculation program by
  Eric Jon Sundstrom, Paul Horn, Yuezhi Mao, Dmitri Zuev, Alec White,
  David Stuck, Shaama M.S., Shane Yost, Joonho Lee, David Small,
  Daniel Levine, Susi Lehtola, Hugh Burton, Evgeny Epifanovsky
 -----------------------------------------------------------------------
 Exchange:     0.2000 Hartree-Fock + 0.0800 Slater + 0.7200 B88
 Correlation:  0.1900 VWN1RPA + 0.8100 LYP
 Using SG-1 standard quadrature grid
 using 12 threads for integral computing
 -------------------------------------------------------
 OpenMP Integral computing Module                
 Release: version 1.0, May 2013, Q-Chem Inc. Pittsburgh 
 -------------------------------------------------------
 -------------------------------------------------------
 OpenMP BLAS3 based DFT computing Module                
 Release: version 1.0, May 2013, Q-Chem Inc. Pittsburgh 
 -------------------------------------------------------
 A unrestricted SCF calculation will be
 performed using DIIS
 SCF converges when DIIS error is below 1.0e-06
 Alpha HF Exchange    Energy =  -3.75165080444407
 Beta HF Exchange     Energy =  -3.75165080444407
 DFT Correlation      Energy =  -1.84219374438212
 DFT Exchange         Energy = -29.60502581999231
 One-Electron (alpha) Energy = -384.28713600543136
 One-Electron (beta)  Energy = -384.28713600543136
 Total Coulomb        Energy = 320.64091429373309
 ---------------------------------------
  Cycle       Energy         DIIS error
 ---------------------------------------
    1    -317.9125591823      2.94e-02  
 Alpha HF Exchange    Energy =  -3.91708237288269
 Beta HF Exchange     Energy =  -3.71316735945318
 DFT Correlation      Energy =  -1.86066143810187
 DFT Exchange         Energy = -30.32662460909528
 One-Electron (alpha) Energy = -400.02196850787777
 One-Electron (beta)  Energy = -374.99276879405977
 Total Coulomb        Energy = 328.46157058162322
    2    -317.3993827918      4.23e-03  
 Alpha HF Exchange    Energy =  -3.83870819491853
 Beta HF Exchange     Energy =  -3.62868536165648
 DFT Correlation      Energy =  -1.83535527485169
 DFT Exchange         Energy = -29.67794809824808
 One-Electron (alpha) Energy = -396.82757971774993
 One-Electron (beta)  Energy = -371.61692119063207
 Total Coulomb        Energy = 321.07472723968908
    3    -317.3791508903      5.02e-03  
 Alpha HF Exchange    Energy =  -3.88169585679898
 Beta HF Exchange     Energy =  -3.67594557062060
 DFT Correlation      Energy =  -1.84702476876414
 DFT Exchange         Energy = -30.02747008040686
 One-Electron (alpha) Energy = -398.54761314475695
 One-Electron (beta)  Energy = -373.31772456095837
 Total Coulomb        Energy = 324.84439411793869
    4    -317.4817601563      4.93e-04  
 Alpha HF Exchange    Energy =  -3.88209263149475
 Beta HF Exchange     Energy =  -3.67357409315969
 DFT Correlation      Energy =  -1.84748037126722
 DFT Exchange         Energy = -30.02256062987369
 One-Electron (alpha) Energy = -398.65983774872848
 One-Electron (beta)  Energy = -373.32639740584409
 Total Coulomb        Energy = 324.95800779954402
    5    -317.4826153728      2.78e-04  
 Alpha HF Exchange    Energy =  -3.88261815414761
 Beta HF Exchange     Energy =  -3.67476286519087
 DFT Correlation      Energy =  -1.84713004650243
 DFT Exchange         Energy = -30.02727230379972
 One-Electron (alpha) Energy = -398.64298998895543
 One-Electron (beta)  Energy = -373.30589366796528
 Total Coulomb        Energy = 324.92638155668271
    6    -317.4829657618      8.57e-05  
 Alpha HF Exchange    Energy =  -3.88234653398657
 Beta HF Exchange     Energy =  -3.67436511443561
 DFT Correlation      Energy =  -1.84699726560321
 DFT Exchange         Energy = -30.02450117410981
 One-Electron (alpha) Energy = -398.63205834808088
 One-Electron (beta)  Energy = -373.28402195540019
 Total Coulomb        Energy = 324.88997701783973
    7    -317.4829936657      2.72e-05  
 Alpha HF Exchange    Energy =  -3.88247830513361
 Beta HF Exchange     Energy =  -3.67445536546089
 DFT Correlation      Energy =  -1.84700780381976
 DFT Exchange         Energy = -30.02531965203039
 One-Electron (alpha) Energy = -398.64140698382334
 One-Electron (beta)  Energy = -373.28699359915402
 Total Coulomb        Energy = 324.90334454939517
    8    -317.4829974520      7.59e-06  
 Alpha HF Exchange    Energy =  -3.88250799326185
 Beta HF Exchange     Energy =  -3.67445724653089
 DFT Correlation      Energy =  -1.84699953066058
 DFT Exchange         Energy = -30.02542884209884
 One-Electron (alpha) Energy = -398.64297398440050
 One-Electron (beta)  Energy = -373.28580889517622
 Total Coulomb        Energy = 324.90385896950170
    9    -317.4829978146      3.96e-06  
 Alpha HF Exchange    Energy =  -3.88249174085593
 Beta HF Exchange     Energy =  -3.67444857580282
 DFT Correlation      Energy =  -1.84699278003792
 DFT Exchange         Energy = -30.02531894594719
 One-Electron (alpha) Energy = -398.64236753860189
 One-Electron (beta)  Energy = -373.28477582935568
 Total Coulomb        Energy = 324.90207779600331
   10    -317.4829979065      7.55e-07  Convergence criterion met
 ---------------------------------------
 SCF time:   CPU 23.16s  wall 2.00s 
<S^2> =          2.004416730
 Alpha HF Exchange    Energy =  -3.88249174085593
 Beta HF Exchange     Energy =  -3.67444857580282
 DFT Correlation      Energy =  -1.84699278003792
 DFT Exchange         Energy = -30.02531894594719
 One-Electron (alpha) Energy = -398.64236753860189
 One-Electron (beta)  Energy = -373.28477582935568
 Total Coulomb        Energy = 324.90207779600331
 Nuclear repulsion Energy = 168.97131970805697
 SCF   energy in the final basis set =     -317.4829979065
 Total energy in the final basis set =     -317.4829979065
 
 --------------------------------------------------------------
 
                    Orbital Energies (a.u.)
 --------------------------------------------------------------
 
 Alpha MOs
 -- Occupied --
-24.717 -24.656 -10.289 -10.225 -10.193  -1.226  -1.159  -0.806
 -0.706  -0.602  -0.526  -0.520  -0.496  -0.473  -0.430  -0.423
 -0.398  -0.372  -0.369  -0.358  -0.232  -0.229
 -- Virtual --
  0.106   0.118   0.124   0.138   0.156   0.168   0.201   0.259
  0.313   0.488   0.497   0.508   0.557   0.569   0.596   0.689
  0.703   0.730   0.762   0.798   0.843   0.853   0.873   0.896
  0.923   1.017   1.087   1.174   1.183   1.200   1.266   1.321
  1.343   1.379   1.445   1.520   1.545   1.609   1.619   1.662
  1.689   1.775   1.804   1.810   1.829   1.874   1.881   1.888
  1.914   1.963   2.005   2.030   2.067   2.087   2.155   2.230
  2.267   2.359   2.394   2.420   2.515   2.563   2.615   2.636
  2.652   2.730   2.741   2.781   2.843   2.853   2.977   3.018
  3.182   3.327   3.354   3.433   3.452   3.711   4.022   4.077
  4.319   4.464   4.593
 
 Beta MOs
 -- Occupied --
-24.711 -24.654 -10.277 -10.212 -10.193  -1.210  -1.155  -0.775
 -0.686  -0.577  -0.512  -0.505  -0.483  -0.442  -0.416  -0.409
 -0.390  -0.368  -0.365  -0.351
 -- Virtual --
 -0.090  -0.080   0.115   0.139   0.139   0.151   0.168   0.180
  0.220   0.279   0.333   0.500   0.511   0.526   0.581   0.588
  0.638   0.711   0.720   0.743   0.774   0.809   0.851   0.864
  0.885   0.906   0.928   1.039   1.096   1.178   1.197   1.208
  1.278   1.341   1.348   1.383   1.474   1.534   1.565   1.614
  1.630   1.683   1.706   1.790   1.817   1.829   1.857   1.876
  1.889   1.894   1.924   1.994   2.030   2.037   2.074   2.092
  2.172   2.251   2.288   2.371   2.415   2.440   2.541   2.578
  2.629   2.654   2.663   2.732   2.753   2.784   2.851   2.863
  2.987   3.029   3.189   3.340   3.366   3.440   3.456   3.713
  4.026   4.103   4.327   4.484   4.610
 --------------------------------------------------------------
 
          Ground-State Mulliken Net Atomic Charges

     Atom                 Charge (a.u.)    Spin (a.u.)
  --------------------------------------------------------
      1 F                    -0.360384       0.032102
      2 F                    -0.248159       0.129139
      3 C                    -0.090924       0.942868
      4 C                     0.075532       0.824833
      5 C                    -0.362232      -0.053445
      6 H                     0.119576       0.007166
      7 H                     0.121872      -0.008942
      8 H                     0.344549       0.033383
      9 H                     0.133094       0.061901
     10 H                     0.143858       0.007215
     11 H                     0.123218       0.023780
  --------------------------------------------------------
  Sum of atomic charges =     0.000000
  Sum of spin   charges =     2.000000

 -----------------------------------------------------------------
                    Cartesian Multipole Moments
 -----------------------------------------------------------------
    Charge (ESU x 10^10)
                 0.0000
    Dipole Moment (Debye)
         X       0.0701      Y       1.2548      Z      -1.9969
       Tot       2.3595
    Quadrupole Moments (Debye-Ang)
        XX     -26.7944     XY       0.6985     YY     -29.8896
        XZ       1.4600     YZ      -1.5675     ZZ     -35.2953
    Octopole Moments (Debye-Ang^2)
       XXX      16.9452    XXY      -3.7522    XYY       4.0271
       YYY     -19.0381    XXZ      -0.8025    XYZ      -0.6899
       YYZ      -1.3716    XZZ       6.3214    YZZ      -5.0604
       ZZZ     -23.1204
    Hexadecapole Moments (Debye-Ang^3)
      XXXX    -235.7809   XXXY      50.8634   XXYY     -58.1547
      XYYY      47.9624   YYYY    -122.3627   XXXZ       8.6585
      XXYZ       0.5381   XYYZ       4.0097   YYYZ       2.8958
      XXZZ     -86.3850   XYZZ      16.2672   YYZZ     -65.3954
      XZZZ       7.5648   YZZZ       0.8829   ZZZZ    -317.0938
 -----------------------------------------------------------------
 Calculating analytic gradient of the SCF energy
 Gradient of SCF Energy
            1           2           3           4           5           6
    1   0.0000982   0.0000706   0.0002625   0.0001315  -0.0004661  -0.0000372
    2  -0.0000357  -0.0002843  -0.0008602   0.0007627   0.0002028   0.0000242
    3  -0.0017601   0.0000711   0.0019376  -0.0011394  -0.0001797  -0.0002597
            7           8           9          10          11
    1  -0.0001069  -0.0005040   0.0000023   0.0004303   0.0001189
    2  -0.0001121   0.0002045   0.0000526   0.0000202   0.0000253
    3   0.0000972   0.0013570  -0.0000235  -0.0000969  -0.0000036
 Max gradient component =       1.938E-03
 RMS gradient           =       6.131E-04
 Gradient time:  CPU 8.13 s  wall 0.70 s
 Geometry Optimization Parameters
   NAtoms,    NIC,     NZ,  NCons,   NDum,   NFix, NCnnct, MaxDiis
       11      75       0       1       0       0       0       0

 Cartesian Hessian Update
 Hessian Updated using BFGS Update


** CONSTRAINED OPTIMIZATION IN DELOCALIZED INTERNAL COORDINATES **
   Searching for a Minimum

   Optimization Cycle:   4

                       Coordinates (Angstroms)
     ATOM                X               Y               Z
      1  F        -0.0055879471   -0.0091522821    2.4529010235
      2  F         1.0079152154   -1.1161496424   -0.8422868163
      3  C        -0.4408417194    0.8069754953   -0.8188711335
      4  C         0.7765250656    0.1438549351   -0.3739486783
      5  C        -1.7373161915    0.7792262422   -0.0755856839
      6  H        -0.4346516071    1.2333246292   -1.8258042727
      7  H         1.7141296003    0.6796586379   -0.2160762741
      8  H         0.4266288721   -0.1049335074    1.6262736427
      9  H        -2.3950454452   -0.0187192509   -0.4574582740
     10  H        -1.5738316186    0.5962027470    0.9876640990
     11  H        -2.2842272246    1.7201109962   -0.2051056326
   Point Group: c1    Number of degrees of freedom:    27


   Energy is   -317.482997907

              Constraints and their Current Values
                                        Value     Constraint
   Distance(Angs):        1   3             3.400001     3.400000
 Hessian Updated using BFGS Update

 26 Hessian modes will be used to form the next step
  Hessian Eigenvalues:
     0.032573    0.045017    0.045118    0.045209    0.045644    0.056136
     0.073099    0.083828    0.087726    0.093750    0.109816    0.126698
     0.129028    0.138844    0.155606    0.158636    0.160770    0.301535
     0.330186    0.334251    0.341167    0.343881    0.346236    0.348498
     0.517135    0.555995

 Minimum Search - Taking Simple RFO Step
 Searching for Lamda that Minimizes Along All modes
 Value Taken    Lamda =  -0.00002119
 Step Taken.  Stepsize is  0.019641

                             Maximum     Tolerance    Cnvgd?
         Gradient           0.000667      0.000300      NO
         Displacement       0.009106      0.001200      NO
         Energy change     -0.000270      0.000001      NO


 New Cartesian Coordinates Obtained by Inverse Iteration

 Displacement from previous Coordinates is:  0.018292
 ----------------------------------------------------------------
             Standard Nuclear Orientation (Angstroms)
    I     Atom           X                Y                Z
 ----------------------------------------------------------------
    1      F      -0.0016780880    -0.0081334018     2.4517903985
    2      F       1.0049162821    -1.1162274641    -0.8409347452
    3      C      -0.4408471121     0.8086707305    -0.8192897015
    4      C       0.7749091354     0.1429800738    -0.3706410652
    5      C      -1.7376396968     0.7791491273    -0.0760868995
    6      H      -0.4327474639     1.2349714791    -1.8257580166
    7      H       1.7132616526     0.6781091852    -0.2134293090
    8      H       0.4293090693    -0.1045873773     1.6226613060
    9      H      -2.3941271246    -0.0195424290    -0.4586517433
   10      H      -1.5755834903     0.5957903907     0.9877214788
   11      H      -2.2860761637     1.7192186854    -0.2056797030
 ----------------------------------------------------------------
 Nuclear Repulsion Energy =   169.0049993924 hartrees
 There are       22 alpha and       20 beta electrons

                       Distance Matrix (Angstroms)
             F (  1)   F (  2)   C (  3)   C (  4)   C (  5)   H (  6)
   F (  2)  3.617063
   C (  3)  3.400001  2.407474
   C (  4)  2.931219  1.363702  1.456878
   C (  5)  3.165997  3.420389  1.494956  2.608520
   H (  6)  4.475327  2.926583  1.093058  2.183631  2.229768
   H (  7)  3.242737  2.028586  2.241495  1.091597  3.455111  2.741360
   H (  8)  0.939419  2.724710  2.748515  2.038132  2.891782  3.798573
   H (  9)  3.767574  3.591985  2.152045  3.174421  1.102379  2.699962
   H ( 10)  2.232801  3.596383  2.144349  2.752272  1.091591  3.103271
   H ( 11)  3.906964  4.390209  2.147204  3.446937  1.096042  2.508780
             H (  7)   H (  8)   H (  9)   H ( 10)
   H (  8)  2.373263
   H (  9)  4.173427  3.508688
   H ( 10)  3.502291  2.216590  1.772186
   H ( 11)  4.132635  3.747321  1.760386  1.786364
 
 Applying Cartesian multipole field
    Component          Value
    ---------          -----
     (2,0,0)        1.00000E-11
     (0,2,0)        2.00000E-11
     (0,0,2)       -3.00000E-11
 Nucleus-field energy     =    -0.0000000043 hartrees
 Requested basis set is 6-31G(d,p)
 There are 38 shells and 105 basis functions
 A cutoff of  1.0D-14 yielded    710 shell pairs
 There are      5589 function pairs
 Smallest overlap matrix eigenvalue = 4.82E-03
 Guess from superposition of atomic densities
 Warning:  Energy on first SCF cycle will be non-variational
 SAD guess density has 42.000000 electrons

 -----------------------------------------------------------------------
  General SCF calculation program by
  Eric Jon Sundstrom, Paul Horn, Yuezhi Mao, Dmitri Zuev, Alec White,
  David Stuck, Shaama M.S., Shane Yost, Joonho Lee, David Small,
  Daniel Levine, Susi Lehtola, Hugh Burton, Evgeny Epifanovsky
 -----------------------------------------------------------------------
 Exchange:     0.2000 Hartree-Fock + 0.0800 Slater + 0.7200 B88
 Correlation:  0.1900 VWN1RPA + 0.8100 LYP
 Using SG-1 standard quadrature grid
 using 12 threads for integral computing
 -------------------------------------------------------
 OpenMP Integral computing Module                
 Release: version 1.0, May 2013, Q-Chem Inc. Pittsburgh 
 -------------------------------------------------------
 -------------------------------------------------------
 OpenMP BLAS3 based DFT computing Module                
 Release: version 1.0, May 2013, Q-Chem Inc. Pittsburgh 
 -------------------------------------------------------
 A unrestricted SCF calculation will be
 performed using DIIS
 SCF converges when DIIS error is below 1.0e-06
 Alpha HF Exchange    Energy =  -3.75148132897897
 Beta HF Exchange     Energy =  -3.75148132897897
 DFT Correlation      Energy =  -1.84218492105717
 DFT Exchange         Energy = -29.60460857548856
 One-Electron (alpha) Energy = -384.32316731775120
 One-Electron (beta)  Energy = -384.32316731775120
 Total Coulomb        Energy = 320.68003587645455
 ---------------------------------------
  Cycle       Energy         DIIS error
 ---------------------------------------
    1    -317.9110555254      2.94e-02  
 Alpha HF Exchange    Energy =  -3.91698508632121
 Beta HF Exchange     Energy =  -3.71299275264898
 DFT Correlation      Energy =  -1.86062834962001
 DFT Exchange         Energy = -30.32566616525421
 One-Electron (alpha) Energy = -400.05715447879635
 One-Electron (beta)  Energy = -375.02277267966065
 Total Coulomb        Energy = 328.49186003043297
    2    -317.3993400937      4.23e-03  
 Alpha HF Exchange    Energy =  -3.83864136823250
 Beta HF Exchange     Energy =  -3.62843959524246
 DFT Correlation      Energy =  -1.83533561778598
 DFT Exchange         Energy = -29.67697129042182
 One-Electron (alpha) Energy = -396.86689813857413
 One-Electron (beta)  Energy = -371.64832318008160
 Total Coulomb        Energy = 321.11083741115851
    3    -317.3787723911      5.03e-03  
 Alpha HF Exchange    Energy =  -3.88163870020959
 Beta HF Exchange     Energy =  -3.67575595652101
 DFT Correlation      Energy =  -1.84699778975158
 DFT Exchange         Energy = -30.02664786180490
 One-Electron (alpha) Energy = -398.58500453034748
 One-Electron (beta)  Energy = -373.34825119196648
 Total Coulomb        Energy = 324.87752877332690
    4    -317.4817678691      4.94e-04  
 Alpha HF Exchange    Energy =  -3.88204331084474
 Beta HF Exchange     Energy =  -3.67338983953511
 DFT Correlation      Energy =  -1.84745805637751
 DFT Exchange         Energy = -30.02180035269257
 One-Electron (alpha) Energy = -398.69809985434000
 One-Electron (beta)  Energy = -373.35761087503602
 Total Coulomb        Energy = 324.99277296932263
    5    -317.4826299314      2.78e-04  
 Alpha HF Exchange    Energy =  -3.88257105533984
 Beta HF Exchange     Energy =  -3.67457699635594
 DFT Correlation      Energy =  -1.84710628881782
 DFT Exchange         Energy = -30.02651056676180
 One-Electron (alpha) Energy = -398.68117730630109
 One-Electron (beta)  Energy = -373.33690161209699
 Total Coulomb        Energy = 324.96086354650299
    6    -317.4829808910      8.59e-05  
 Alpha HF Exchange    Energy =  -3.88229870244010
 Beta HF Exchange     Energy =  -3.67417678467891
 DFT Correlation      Energy =  -1.84697348642507
 DFT Exchange         Energy = -30.02372813518883
 One-Electron (alpha) Energy = -398.67022746507877
 One-Electron (beta)  Energy = -373.31497824890744
 Total Coulomb        Energy = 324.92437457285826
    7    -317.4830088617      2.74e-05  
 Alpha HF Exchange    Energy =  -3.88243065294725
 Beta HF Exchange     Energy =  -3.67426754952744
 DFT Correlation      Energy =  -1.84698384626808
 DFT Exchange         Energy = -30.02454803011902
 One-Electron (alpha) Energy = -398.67956217141580
 One-Electron (beta)  Energy = -373.31794201175785
 Total Coulomb        Energy = 324.93772220047703
    8    -317.4830126734      7.65e-06  
 Alpha HF Exchange    Energy =  -3.88246089261051
 Beta HF Exchange     Energy =  -3.67426929866892
 DFT Correlation      Energy =  -1.84697573666933
 DFT Exchange         Energy = -30.02465936404085
 One-Electron (alpha) Energy = -398.68116277858957
 One-Electron (beta)  Energy = -373.31677685078932
 Total Coulomb        Energy = 324.93829249332890
    9    -317.4830130399      3.97e-06  
 Alpha HF Exchange    Energy =  -3.88244459745015
 Beta HF Exchange     Energy =  -3.67426052624470
 DFT Correlation      Energy =  -1.84696890130640
 DFT Exchange         Energy = -30.02454868183915
 One-Electron (alpha) Energy = -398.68054742251218
 One-Electron (beta)  Energy = -373.31572988291276
 Total Coulomb        Energy = 324.93648749145899
   10    -317.4830131327      7.54e-07  Convergence criterion met
 ---------------------------------------
 SCF time:   CPU 23.19s  wall 2.00s 
<S^2> =          2.004417982
 Alpha HF Exchange    Energy =  -3.88244459745015
 Beta HF Exchange     Energy =  -3.67426052624470
 DFT Correlation      Energy =  -1.84696890130640
 DFT Exchange         Energy = -30.02454868183915
 One-Electron (alpha) Energy = -398.68054742251218
 One-Electron (beta)  Energy = -373.31572988291276
 Total Coulomb        Energy = 324.93648749145899
 Nuclear repulsion Energy = 169.00499938812689
 SCF   energy in the final basis set =     -317.4830131327
 Total energy in the final basis set =     -317.4830131327
 
 --------------------------------------------------------------
 
                    Orbital Energies (a.u.)
 --------------------------------------------------------------
 
 Alpha MOs
 -- Occupied --
-24.718 -24.655 -10.289 -10.225 -10.193  -1.226  -1.158  -0.806
 -0.706  -0.602  -0.526  -0.520  -0.496  -0.473  -0.430  -0.423
 -0.398  -0.372  -0.369  -0.358  -0.232  -0.229
 -- Virtual --
  0.106   0.118   0.124   0.138   0.156   0.168   0.201   0.259
  0.312   0.488   0.497   0.508   0.557   0.568   0.595   0.690
  0.703   0.731   0.762   0.798   0.843   0.853   0.873   0.896
  0.923   1.017   1.087   1.175   1.182   1.201   1.266   1.321
  1.342   1.379   1.445   1.520   1.545   1.609   1.619   1.663
[...]
   Distance(Angs):        1   3             3.400001     3.400000
 Hessian Updated using BFGS Update

 26 Hessian modes will be used to form the next step
  Hessian Eigenvalues:
     0.000322    0.002524    0.005418    0.011153    0.036948    0.046188
     0.047508    0.062446    0.080096    0.093487    0.102789    0.115571
     0.126606    0.129371    0.139322    0.156505    0.162351    0.308360
     0.329928    0.334406    0.341064    0.342431    0.345893    0.346637
     0.524484    0.613205

 Minimum Search - Taking Simple RFO Step
 Searching for Lamda that Minimizes Along All modes
 Value Taken    Lamda =  -0.00000143
 Step Taken.  Stepsize is  0.022982

                             Maximum     Tolerance    Cnvgd?
         Gradient           0.000142      0.000300     YES
         Displacement       0.021573      0.001200      NO
         Energy change     -0.000002      0.000001      NO


 New Cartesian Coordinates Obtained by Inverse Iteration

 Displacement from previous Coordinates is:  0.009062
 ----------------------------------------------------------------
             Standard Nuclear Orientation (Angstroms)
    I     Atom           X                Y                Z
 ----------------------------------------------------------------
    1      F       0.0485204756     0.0599902726     2.4672179074
    2      F       0.9642015260    -1.1218077042    -0.8969176589
    3      C      -0.4340983928     0.8344230378    -0.8080433590
    4      C       0.7593487494     0.1202648649    -0.3727444666
    5      C      -1.7405147925     0.7727611543    -0.0843100218
    6      H      -0.4039195191     1.3099199692    -1.7911787676
    7      H       1.7080405746     0.6242584961    -0.1790793512
    8      H       0.4192065742    -0.1283571948     1.6253660276
    9      H      -2.3535826138    -0.0690931524    -0.4471005431
   10      H      -1.5848783066     0.6262246482     0.9868094061
   11      H      -2.3286272748     1.6818146082    -0.2483171730
 ----------------------------------------------------------------
 Nuclear Repulsion Energy =   168.7783815217 hartrees
 There are       22 alpha and       20 beta electrons

                       Distance Matrix (Angstroms)
             F (  1)   F (  2)   C (  3)   C (  4)   C (  5)   H (  6)
   F (  2)  3.681376
   C (  3)  3.400001  2.406238
   C (  4)  2.928190  1.363623  1.457334
   C (  5)  3.196715  3.400766  1.494763  2.599666
   H (  6)  4.461050  2.929976  1.092503  2.186419  2.233479
   H (  7)  3.174160  2.029122  2.242437  1.091573  3.453052  2.743970
   H (  8)  0.938934  2.765118  2.752555  2.042047  2.898172  3.797230
   H (  9)  3.778891  3.509734  2.151985  3.119572  1.102809  2.740330
   H ( 10)  2.276010  3.619648  2.142227  2.756770  1.092242  3.095048
   H ( 11)  3.956675  4.373066  2.149559  3.462588  1.095058  2.494640
             H (  7)   H (  8)   H (  9)   H ( 10)
   H (  8)  2.341697
   H (  9)  4.129086  3.462223
   H ( 10)  3.493224  2.234615  1.769314
   H ( 11)  4.173477  3.786555  1.762332  1.786888
 
 Applying Cartesian multipole field
    Component          Value
    ---------          -----
     (2,0,0)        1.00000E-11
     (0,2,0)        2.00000E-11
     (0,0,2)       -3.00000E-11
 Nucleus-field energy     =    -0.0000000045 hartrees
 Requested basis set is 6-31G(d,p)
 There are 38 shells and 105 basis functions
 A cutoff of  1.0D-14 yielded    709 shell pairs
 There are      5577 function pairs
 Smallest overlap matrix eigenvalue = 4.91E-03
 Guess from superposition of atomic densities
 Warning:  Energy on first SCF cycle will be non-variational
 SAD guess density has 42.000000 electrons

 -----------------------------------------------------------------------
  General SCF calculation program by
  Eric Jon Sundstrom, Paul Horn, Yuezhi Mao, Dmitri Zuev, Alec White,
  David Stuck, Shaama M.S., Shane Yost, Joonho Lee, David Small,
  Daniel Levine, Susi Lehtola, Hugh Burton, Evgeny Epifanovsky
 -----------------------------------------------------------------------
 Exchange:     0.2000 Hartree-Fock + 0.0800 Slater + 0.7200 B88
 Correlation:  0.1900 VWN1RPA + 0.8100 LYP
 Using SG-1 standard quadrature grid
 using 12 threads for integral computing
 -------------------------------------------------------
 OpenMP Integral computing Module                
 Release: version 1.0, May 2013, Q-Chem Inc. Pittsburgh 
 -------------------------------------------------------
 -------------------------------------------------------
 OpenMP BLAS3 based DFT computing Module                
 Release: version 1.0, May 2013, Q-Chem Inc. Pittsburgh 
 -------------------------------------------------------
 A unrestricted SCF calculation will be
 performed using DIIS
 SCF converges when DIIS error is below 1.0e-06
 Alpha HF Exchange    Energy =  -3.75140233208833
 Beta HF Exchange     Energy =  -3.75140233208833
 DFT Correlation      Energy =  -1.84203611772411
 DFT Exchange         Energy = -29.60440641035073
 One-Electron (alpha) Energy = -384.09599860963931
 One-Electron (beta)  Energy = -384.09599860963931
 Total Coulomb        Energy = 320.45265857836068
 ---------------------------------------
  Cycle       Energy         DIIS error
 ---------------------------------------
    1    -317.9102043159      2.94e-02  
 Alpha HF Exchange    Energy =  -3.91701131923558
 Beta HF Exchange     Energy =  -3.71317371184114
 DFT Correlation      Energy =  -1.86050168160187
 DFT Exchange         Energy = -30.32624079032345
 One-Electron (alpha) Energy = -399.82759303030696
 One-Electron (beta)  Energy = -374.79178795826130
 Total Coulomb        Energy = 328.25863072860693
    2    -317.3992962457      4.24e-03  
 Alpha HF Exchange    Energy =  -3.83859212433193
 Beta HF Exchange     Energy =  -3.62858095152332
 DFT Correlation      Energy =  -1.83514149172890
 DFT Exchange         Energy = -29.67695899123349
 One-Electron (alpha) Energy = -396.64029745642318
 One-Electron (beta)  Energy = -371.41801776931231
 Total Coulomb        Energy = 320.88056403197464
    3    -317.3786432353      5.03e-03  
 Alpha HF Exchange    Energy =  -3.88161099798254
 Beta HF Exchange     Energy =  -3.67589241323871
 DFT Correlation      Energy =  -1.84683860426743
 DFT Exchange         Energy = -30.02680907689226
 One-Electron (alpha) Energy = -398.35753881738748
 One-Electron (beta)  Energy = -373.11741495288044
 Total Coulomb        Energy = 324.64587501162833
    4    -317.4818483338      4.89e-04  
 Alpha HF Exchange    Energy =  -3.88204388898761
 Beta HF Exchange     Energy =  -3.67355664290758
 DFT Correlation      Energy =  -1.84729710871383
 DFT Exchange         Energy = -30.02215538689418
 One-Electron (alpha) Energy = -398.47138528922233
 One-Electron (beta)  Energy = -373.12707637810342
 Total Coulomb        Energy = 324.76243979924794
    5    -317.4826933783      2.77e-04  
 Alpha HF Exchange    Energy =  -3.88256473767420
 Beta HF Exchange     Energy =  -3.67473873233049
 DFT Correlation      Energy =  -1.84694365641790
 DFT Exchange         Energy = -30.02682482894638
 One-Electron (alpha) Energy = -398.45404748298762
 One-Electron (beta)  Energy = -373.10603237645660
 Total Coulomb        Energy = 324.72972793104287
    6    -317.4830423665      8.58e-05  
 Alpha HF Exchange    Energy =  -3.88229047142734
 Beta HF Exchange     Energy =  -3.67433693808917
 DFT Correlation      Energy =  -1.84681111695108
 DFT Exchange         Energy = -30.02403274296059
 One-Electron (alpha) Energy = -398.44317127193546
 One-Electron (beta)  Energy = -373.08419715814853
 Total Coulomb        Energy = 324.69338794400903
    7    -317.4830702382      2.74e-05  
 Alpha HF Exchange    Energy =  -3.88242407815572
 Beta HF Exchange     Energy =  -3.67442936513920
 DFT Correlation      Energy =  -1.84682179957992
 DFT Exchange         Energy = -30.02486509621435
 One-Electron (alpha) Energy = -398.45255764725579
 One-Electron (beta)  Energy = -373.08720815936488
 Total Coulomb        Energy = 324.70685058771477
    8    -317.4830740407      7.62e-06  
 Alpha HF Exchange    Energy =  -3.88245376193744
 Beta HF Exchange     Energy =  -3.67443065572444
 DFT Correlation      Energy =  -1.84681353610238
 DFT Exchange         Energy = -30.02497253040728
 One-Electron (alpha) Energy = -398.45413424130356
 One-Electron (beta)  Energy = -373.08602300480277
 Total Coulomb        Energy = 324.70737180720965
    9    -317.4830744058      3.94e-06  
 Alpha HF Exchange    Energy =  -3.88243749551098
 Beta HF Exchange     Energy =  -3.67442206566328
 DFT Correlation      Energy =  -1.84680678360828
 DFT Exchange         Energy = -30.02486287188637
 One-Electron (alpha) Energy = -398.45351988707546
 One-Electron (beta)  Energy = -373.08499174560797
 Total Coulomb        Energy = 324.70558483502668
   10    -317.4830744971      7.57e-07  Convergence criterion met
 ---------------------------------------
 SCF time:   CPU 24.38s  wall 3.00s 
<S^2> =          2.004414868
 Alpha HF Exchange    Energy =  -3.88243749551098
 Beta HF Exchange     Energy =  -3.67442206566328
 DFT Correlation      Energy =  -1.84680678360828
 DFT Exchange         Energy = -30.02486287188637
 One-Electron (alpha) Energy = -398.45351988707546
 One-Electron (beta)  Energy = -373.08499174560797
 Total Coulomb        Energy = 324.70558483502668
 Nuclear repulsion Energy = 168.77838151727047
 SCF   energy in the final basis set =     -317.4830744971
 Total energy in the final basis set =     -317.4830744971
 
 --------------------------------------------------------------
 
                    Orbital Energies (a.u.)
 --------------------------------------------------------------
 
 Alpha MOs
 -- Occupied --
-24.718 -24.655 -10.289 -10.225 -10.194  -1.226  -1.158  -0.806
 -0.706  -0.602  -0.527  -0.519  -0.496  -0.474  -0.430  -0.423
 -0.398  -0.372  -0.369  -0.359  -0.233  -0.229
 -- Virtual --
  0.106   0.119   0.122   0.137   0.153   0.170   0.203   0.259
  0.306   0.489   0.497   0.509   0.556   0.563   0.597   0.687
  0.702   0.735   0.770   0.796   0.842   0.851   0.871   0.895
  0.921   1.015   1.085   1.165   1.180   1.210   1.264   1.318
  1.341   1.373   1.442   1.519   1.537   1.613   1.618   1.668
  1.689   1.773   1.804   1.811   1.828   1.876   1.881   1.889
  1.913   1.959   2.003   2.030   2.066   2.087   2.156   2.226
  2.265   2.361   2.392   2.423   2.510   2.557   2.612   2.637
  2.653   2.730   2.744   2.776   2.842   2.852   2.980   3.015
  3.181   3.326   3.346   3.444   3.447   3.708   3.996   4.081
  4.330   4.460   4.591
 
 Beta MOs
 -- Occupied --
-24.711 -24.653 -10.277 -10.212 -10.194  -1.211  -1.154  -0.776
 -0.686  -0.578  -0.512  -0.504  -0.483  -0.443  -0.416  -0.410
 -0.389  -0.368  -0.365  -0.352
 -- Virtual --
 -0.091  -0.080   0.114   0.136   0.139   0.151   0.166   0.180
  0.222   0.278   0.326   0.499   0.512   0.527   0.579   0.583
  0.638   0.709   0.720   0.747   0.781   0.807   0.851   0.862
  0.883   0.904   0.926   1.037   1.094   1.169   1.195   1.216
  1.276   1.339   1.345   1.378   1.471   1.532   1.558   1.617
  1.629   1.688   1.706   1.788   1.816   1.831   1.855   1.877
  1.889   1.894   1.923   1.990   2.028   2.037   2.074   2.093
  2.172   2.249   2.286   2.373   2.413   2.443   2.536   2.571
  2.625   2.658   2.663   2.732   2.754   2.779   2.850   2.861
  2.991   3.026   3.188   3.339   3.358   3.447   3.455   3.711
  4.000   4.108   4.337   4.481   4.607
 --------------------------------------------------------------
 
          Ground-State Mulliken Net Atomic Charges

     Atom                 Charge (a.u.)    Spin (a.u.)
  --------------------------------------------------------
      1 F                    -0.362888       0.032563
      2 F                    -0.248061       0.128624
      3 C                    -0.091132       0.944633
      4 C                     0.075741       0.823450
      5 C                    -0.361113      -0.053806
      6 H                     0.120617       0.006020
      7 H                     0.123294      -0.009044
      8 H                     0.343901       0.034469
      9 H                     0.133523       0.063437
     10 H                     0.143526       0.010903
     11 H                     0.122592       0.018751
  --------------------------------------------------------
  Sum of atomic charges =    -0.000000
  Sum of spin   charges =     2.000000

 -----------------------------------------------------------------
                    Cartesian Multipole Moments
 -----------------------------------------------------------------
    Charge (ESU x 10^10)
                 0.0000
    Dipole Moment (Debye)
         X      -0.0031      Y       1.0928      Z      -2.0004
       Tot       2.2795
    Quadrupole Moments (Debye-Ang)
        XX     -26.7688     XY       0.6031     YY     -29.8630
        XZ       1.2404     YZ      -1.9947     ZZ     -35.5605
    Octopole Moments (Debye-Ang^2)
       XXX      17.1012    XXY      -4.1227    XYY       3.9537
       YYY     -19.7872    XXZ      -0.6830    XYZ      -0.7275
       YYZ      -1.3569    XZZ       5.7992    YZZ      -5.7849
       ZZZ     -23.0349
    Hexadecapole Moments (Debye-Ang^3)
      XXXX    -232.7348   XXXY      49.9529   XXYY     -57.8212
      XYYY      47.6913   YYYY    -124.1193   XXXZ       6.6782
      XXYZ      -0.4979   XYYZ       3.5456   YYYZ      -0.6245
      XXZZ     -86.8194   XYZZ      16.0180   YYZZ     -65.7974
      XZZZ       4.2634   YZZZ      -3.5748   ZZZZ    -322.5019
 -----------------------------------------------------------------
 Calculating analytic gradient of the SCF energy
 Gradient of SCF Energy
            1           2           3           4           5           6
    1  -0.0000980  -0.0000323  -0.0000034  -0.0000557  -0.0000207   0.0000344
    2   0.0000486  -0.0000474  -0.0000399   0.0000519   0.0000716   0.0000237
    3  -0.0001830   0.0000324   0.0000083   0.0000762   0.0000543   0.0000301
            7           8           9          10          11
    1   0.0000231   0.0000878   0.0000047   0.0000878  -0.0000277
    2  -0.0000371   0.0000046  -0.0000233  -0.0000256  -0.0000271
    3  -0.0000233   0.0001016  -0.0000002  -0.0000561  -0.0000403
 Max gradient component =       1.830E-04
 RMS gradient           =       5.773E-05
 Gradient time:  CPU 8.12 s  wall 0.71 s
 Geometry Optimization Parameters
   NAtoms,    NIC,     NZ,  NCons,   NDum,   NFix, NCnnct, MaxDiis
       11      75       0       1       0       0       0       0

 Cartesian Hessian Update
 Hessian Updated using BFGS Update


** CONSTRAINED OPTIMIZATION IN DELOCALIZED INTERNAL COORDINATES **
   Searching for a Minimum

   Optimization Cycle:  26

                       Coordinates (Angstroms)
     ATOM                X               Y               Z
      1  F         0.0485204756    0.0599902726    2.4672179074
      2  F         0.9642015260   -1.1218077042   -0.8969176589
      3  C        -0.4340983928    0.8344230378   -0.8080433590
      4  C         0.7593487494    0.1202648649   -0.3727444666
      5  C        -1.7405147925    0.7727611543   -0.0843100218
      6  H        -0.4039195191    1.3099199692   -1.7911787676
      7  H         1.7080405746    0.6242584961   -0.1790793512
      8  H         0.4192065742   -0.1283571948    1.6253660276
      9  H        -2.3535826138   -0.0690931524   -0.4471005431
     10  H        -1.5848783066    0.6262246482    0.9868094061
     11  H        -2.3286272748    1.6818146082   -0.2483171730
   Point Group: c1    Number of degrees of freedom:    27


   Energy is   -317.483074497

              Constraints and their Current Values
                                        Value     Constraint
   Distance(Angs):        1   3             3.400001     3.400000
 Hessian Updated using BFGS Update

 26 Hessian modes will be used to form the next step
  Hessian Eigenvalues:
     0.000323    0.002462    0.005500    0.010618    0.030752    0.045583
     0.046345    0.062794    0.074593    0.090660    0.097533    0.108419
     0.126811    0.129541    0.137821    0.157380    0.167315    0.309994
     0.328160    0.334048    0.340958    0.342744    0.345851    0.346371
     0.527852    0.619265

 Minimum Search - Taking Simple RFO Step
 Searching for Lamda that Minimizes Along All modes
 Value Taken    Lamda =   0.00000000
 Step Taken.  Stepsize is  0.011190

                             Maximum     Tolerance    Cnvgd?
         Gradient           0.000084      0.000300     YES
         Displacement       0.010122      0.001200      NO
         Energy change     -0.000001      0.000001     YES


                       Distance Matrix (Angstroms)
             F (  1)   F (  2)   C (  3)   C (  4)   C (  5)   H (  6)
   F (  2)  3.681376
   C (  3)  3.400001  2.406238
   C (  4)  2.928190  1.363623  1.457334
   C (  5)  3.196715  3.400766  1.494763  2.599666
   H (  6)  4.461050  2.929976  1.092503  2.186419  2.233479
   H (  7)  3.174160  2.029122  2.242437  1.091573  3.453052  2.743970
   H (  8)  0.938934  2.765118  2.752555  2.042047  2.898172  3.797230
   H (  9)  3.778891  3.509734  2.151985  3.119572  1.102809  2.740330
   H ( 10)  2.276010  3.619648  2.142227  2.756770  1.092242  3.095048
   H ( 11)  3.956675  4.373066  2.149559  3.462588  1.095058  2.494640
             H (  7)   H (  8)   H (  9)   H ( 10)
   H (  8)  2.341697
   H (  9)  4.129086  3.462223
   H ( 10)  3.493224  2.234615  1.769314
   H ( 11)  4.173477  3.786555  1.762332  1.786888
 
 Final energy is   -317.483074497055     


 ******************************
 **  OPTIMIZATION CONVERGED  **
 ******************************

                       Coordinates (Angstroms)
     ATOM                X               Y               Z
      1  F         0.0485204756    0.0599902726    2.4672179074
      2  F         0.9642015260   -1.1218077042   -0.8969176589
      3  C        -0.4340983928    0.8344230378   -0.8080433590
      4  C         0.7593487494    0.1202648649   -0.3727444666
      5  C        -1.7405147925    0.7727611543   -0.0843100218
      6  H        -0.4039195191    1.3099199692   -1.7911787676
      7  H         1.7080405746    0.6242584961   -0.1790793512
      8  H         0.4192065742   -0.1283571948    1.6253660276
      9  H        -2.3535826138   -0.0690931524   -0.4471005431
     10  H        -1.5848783066    0.6262246482    0.9868094061
     11  H        -2.3286272748    1.6818146082   -0.2483171730

Z-matrix Print:
$molecule
0 3
F 
C  1 1.363623
H  2 1.091573 1 110.989285
C  2 1.457334 1 117.037246 3 147.489334 0
H  4 1.092503 2 117.352071 1 -78.148334 0
C  4 1.494763 2 123.428739 1 92.268033 0
H  6 1.092242 4 110.843242 2 30.595477 0
H  6 1.095058 4 111.261672 2 152.771767 0
H  6 1.102809 4 110.982177 2 -88.688356 0
H  2 2.042047 1 106.873004 3 -98.453608 0
F  10 0.938934 2 156.729531 1 -147.834834 0
$end

PES scan, value:    3.4000 energy: -317.4830744971
------- Summary of potential scan: ------ 
    3.4000      -317.4830744971
----------------------------------------- 
Archival summary:
1\1\hpc0244\JobtypUnspecified\ProcedureUnspecified\6-31G**\236(3)\knomura\WedMar1317:32:112019WedMar1317:32:112019\0\\#,JobtypUnspecified,ProcedureUnspecified,6-31G**,\\0,3\F\C,1,1.36362\H,2,1.09157,1,110.989\C,2,1.45733,1,117.037,3,147.489,0\H,4,1.0925,2,117.352,1,-78.1483,0\C,4,1.49476,2,123.429,1,92.268,0\H,6,1.09224,4,110.843,2,30.5955,0\H,6,1.09506,4,111.262,2,152.772,0\H,6,1.10281,4,110.982,2,-88.6884,0\H,2,2.04205,1,106.873,3,-98.4536,0\F,10,0.938934,2,156.73,1,-147.835,0\\\@

 Total job time:  81.16s(wall), 923.85s(cpu) 
 Wed Mar 13 17:32:11 2019

        *************************************************************
        *                                                           *
        *  Thank you very much for using Q-Chem.  Have a nice day.  *
        *                                                           *
        *************************************************************


