
Running Job 1 of 1 halogens/Flourine/03/F_1_3.xyz.data/inputs/bond_triplet_2.1.in
qchem halogens/Flourine/03/F_1_3.xyz.data/inputs/bond_triplet_2.1.in_2536.0 /staging/scratch/2868761/qchem2536/ 1
/usr/usc/qchem/5.1.1/exe/qcprog.exe_s halogens/Flourine/03/F_1_3.xyz.data/inputs/bond_triplet_2.1.in_2536.0 /staging/scratch/2868761/qchem2536/
Check license passed

                  Welcome to Q-Chem
     A Quantum Leap Into The Future Of Chemistry


 Q-Chem 5.1, Q-Chem, Inc., Pleasanton, CA (2018)

 Yihan Shao,  Zhengting Gan,  E. Epifanovsky,  A. T. B. Gilbert,  M. Wormit,  
 J. Kussmann,  A. W. Lange,  A. Behn,  Jia Deng,  Xintian Feng,  D. Ghosh,  
 M. Goldey,  P. R. Horn,  L. D. Jacobson,  I. Kaliman,  T. Kus,  A. Landau,  
 Jie Liu,  E. I. Proynov,  R. M. Richard,  R. P. Steele,  E. J. Sundstrom,  
 H. L. Woodcock III,  P. M. Zimmerman,  D. Zuev,  B. Albrecht,  E. Alguire,  
 S. A. Baeppler,  D. Barton,  Z. Benda,  Y. A. Bernard,  E. J. Berquist,  
 K. B. Bravaya,  H. Burton,  D. Casanova,  Chun-Min Chang,  Yunqing Chen,  
 A. Chien,  K. D. Closser,  M. P. Coons,  S. Coriani,  S. Dasgupta,  
 A. L. Dempwolff,  M. Diedenhofen,  Hainam Do,  R. G. Edgar,  Po-Tung Fang,  
 S. Faraji,  S. Fatehi,  Qingguo Feng,  K. D. Fenk,  J. Fosso-Tande,  
 Qinghui Ge,  A. Ghysels,  G. Gidofalvi,  J. Gomes,  J. Gonthier,  A. Gunina,  
 D. Hait,  M. W. D. Hanson-Heine,  P. H. P. Harbach,  A. W. Hauser,  
 J. E. Herr,  E. G. Hohenstein,  Z. C. Holden,  Kerwin Hui,  B. C. Huynh,  
 T.-C. Jagau,  Hyunjun Ji,  B. Kaduk,  K. Khistyaev,  Jaehoon Kim,  
 P. Klunzinger,  K. Koh,  D. Kosenkov,  L. Koulias,  T. Kowalczyk,  
 C. M. Krauter,  A. Kunitsa,  Ka Un Lao,  A. Laurent,  K. V. Lawler,  
 Joonho Lee,  D. Lefrancois,  S. Lehtola,  D. S. Levine,  Yi-Pei Li,  
 You-Sheng Lin,  Fenglai Liu,  E. Livshits,  A. Luenser,  P. Manohar,  
 E. Mansoor,  S. F. Manzer,  Shan-Ping Mao,  Yuezhi Mao,  N. Mardirossian,  
 A. V. Marenich,  T. Markovich,  L. A. Martinez-Martinez,  S. A. Maurer,  
 N. J. Mayhall,  S. C. McKenzie,  J.-M. Mewes,  A. F. Morrison,  
 J. W. Mullinax,  K. Nanda,  T. S. Nguyen-Beck,  R. Olivares-Amaya,  
 J. A. Parkhill,  T. M. Perrine,  F. Plasser,  P. Pokhilko,  S. Prager,  
 A. Prociuk,  E. Ramos,  D. R. Rehn,  F. Rob,  M. Schneider,  N. Sergueev,  
 S. M. Sharada,  S. Sharma,  D. W. Small,  T. Stauch,  T. Stein,  
 Yu-Chuan Su,  A. J. W. Thom,  A. Tkatchenko,  T. Tsuchimochi,  N. M. Tubman,  
 L. Vogt,  M. L. Vidal,  O. Vydrov,  M. A. Watson,  J. Wenzel,  
 M. de Wergifosse,  T. A. Wesolowski,  A. White,  J. Witte,  A. Yamada,  
 Jun Yang,  K. Yao,  S. Yeganeh,  S. R. Yost,  Zhi-Qiang You,  A. Zech,  
 Igor Ying Zhang,  Xing Zhang,  Yan Zhao,  Ying Zhu,  B. R. Brooks,  
 G. K. L. Chan,  C. J. Cramer,  M. S. Gordon,  W. J. Hehre,  A. Klamt,  
 M. W. Schmidt,  C. D. Sherrill,  D. G. Truhlar,  A. Aspuru-Guzik,  R. Baer,  
 A. T. Bell,  N. A. Besley,  Jeng-Da Chai,  A. E. DePrince, III,  
 R. A. DiStasio Jr.,  A. Dreuw,  B. D. Dunietz,  T. R. Furlani,  
 Chao-Ping Hsu,  Yousung Jung,  Jing Kong,  D. S. Lambrecht,  WanZhen Liang,  
 C. Ochsenfeld,  V. A. Rassolov,  L. V. Slipchenko,  J. E. Subotnik,  
 T. Van Voorhis,  J. M. Herbert,  A. I. Krylov,  P. M. W. Gill,  M. Head-Gordon

 Contributors to earlier versions of Q-Chem not listed above: 
 R. D. Adamson,  B. Austin,  J. Baker,  G. J. O. Beran,  K. Brandhorst,  
 S. T. Brown,  E. F. C. Byrd,  A. K. Chakraborty,  C.-L. Cheng,  
 Siu Hung Chien,  D. M. Chipman,  D. L. Crittenden,  H. Dachsel,  
 R. J. Doerksen,  A. D. Dutoi,  L. Fusti-Molnar,  W. A. Goddard III,  
 A. Golubeva-Zadorozhnaya,  S. R. Gwaltney,  G. Hawkins,  A. Heyden,  
 S. Hirata,  G. Kedziora,  F. J. Keil,  C. Kelley,  Jihan Kim,  R. A. King,  
 R. Z. Khaliullin,  P. P. Korambath,  W. Kurlancheek,  A. M. Lee,  M. S. Lee,  
 S. V. Levchenko,  Ching Yeh Lin,  D. Liotard,  R. C. Lochan,  I. Lotan,  
 P. E. Maslen,  N. Nair,  D. P. O'Neill,  D. Neuhauser,  E. Neuscamman,  
 C. M. Oana,  R. Olson,  B. Peters,  R. Peverati,  P. A. Pieniazek,  
 Y. M. Rhee,  J. Ritchie,  M. A. Rohrdanz,  E. Rosta,  N. J. Russ,  
 H. F. Schaefer III,  N. E. Schultz,  N. Shenvi,  A. C. Simmonett,  A. Sodt,  
 D. Stuck,  K. S. Thanthiriwatte,  V. Vanovschi,  Tao Wang,  A. Warshel,  
 C. F. Williams,  Q. Wu,  X. Xu,  W. Zhang

 Please cite Q-Chem as follows:
 Y. Shao et al., Mol. Phys. 113, 184-215 (2015)
 DOI: 10.1080/00268976.2014.952696

 Q-Chem 5.1.1 for Intel X86 EM64T Linux

 Parts of Q-Chem use Armadillo 8.300.2 (Tropical Shenanigans).
 http://arma.sourceforge.net/

 Q-Chem begins on Wed Mar 13 17:43:53 2019  

Host: 
0

     Scratch files written to /staging/scratch/2868761/qchem2536//
 Aug318 |scratch|qcdevops|jenkins|workspace|build_RNUM 6013   
Processing $rem in /usr/usc/qchem/5.1.1/config/preferences.
 MEM_TOTAL  2000 
Input Ideriv = 2
Curr. Ideriv = -1
Max.  Ideriv = 2

Checking the input file for inconsistencies... 	...done.

--------------------------------------------------------------
User input:
--------------------------------------------------------------

$comment
potential surface scanner
$end

$rem
JOBTYPE  PES_SCAN
UNRESTRICTED TRUE
SYM_IGNORE  TRUE
GEOM_OPT_MAX_CYCLES 400
SCF_MAX_CYCLES 400
METHOD   B3LYP
BASIS   6-31G**
PDB_PRINT 2
SCF_CONVERGENCE 6
THRESH 14
SCF_PRINT 1
$end
$molecule
0 3
F 0.323096 1.522587 1.530586
F 0.811554 -1.058754 -1.598405
C -0.311090 0.728781 -0.420743
C 0.689345 -0.320676 -0.450686
C -1.741460 0.480395 -0.045766
H -0.090368 1.671744 -0.924583
H 1.639977 -0.260912 0.077555
H 0.119075 0.716317 1.941834
H -2.351889 0.203223 -0.919435
H -1.835461 -0.346827 0.668531
H -2.199080 1.374525 0.392812
$end
$scan
stre 1 3 2.100000 2.101000 0.100000
$end
--------------------------------------------------------------
 ----------------------------------------------------------------
             Standard Nuclear Orientation (Angstroms)
    I     Atom           X                Y                Z
 ----------------------------------------------------------------
    1      F       0.3230960000     1.5225870000     1.5305860000
    2      F       0.8115540000    -1.0587540000    -1.5984050000
    3      C      -0.3110900000     0.7287810000    -0.4207430000
    4      C       0.6893450000    -0.3206760000    -0.4506860000
    5      C      -1.7414600000     0.4803950000    -0.0457660000
    6      H      -0.0903680000     1.6717440000    -0.9245830000
    7      H       1.6399770000    -0.2609120000     0.0775550000
    8      H       0.1190750000     0.7163170000     1.9418340000
    9      H      -2.3518890000     0.2032230000    -0.9194350000
   10      H      -1.8354610000    -0.3468270000     0.6685310000
   11      H      -2.1990800000     1.3745250000     0.3928120000
 ----------------------------------------------------------------
 Nuclear Repulsion Energy =   174.7200695127 hartrees
 There are       22 alpha and       20 beta electrons
 Requested basis set is 6-31G(d,p)
 There are 38 shells and 105 basis functions

 Total QAlloc Memory Limit   2000 MB
 Mega-Array Size       188 MB
 MEM_STATIC part       192 MB
A total of 1 constraints
  
            1
    1   1.0100000
    2   1.0100000
    3   3.0100000
    4   2.1000000
    5   2.1010000
    6   0.1000000
    7   0.0000000
    8   0.0000000
    9   0.0000000
   10   0.0000000

                       Distance Matrix (Angstroms)
             F (  1)   F (  2)   C (  3)   C (  4)   C (  5)   H (  6)
   F (  2)  4.085645
   C (  3)  2.200001  2.417126
   C (  4)  2.730787  1.370019  1.450216
   C (  5)  2.798829  3.361183  1.499420  2.591233
   H (  6)  2.494204  2.953493  1.091674  2.191408  2.217597
   H (  7)  2.650725  2.032653  2.243759  1.089179  3.463937  2.780923
   H (  8)  0.927804  4.020410  2.401451  2.669216  2.732728  3.028705
   H (  9)  3.859905  3.472889  2.165587  3.121426  1.101247  2.696490
   H ( 10)  2.982820  3.557039  2.160360  2.761879  1.096974  3.107731
   H ( 11)  2.770889  4.353126  2.154846  3.453722  1.096009  2.504104
             H (  7)   H (  8)   H (  9)   H ( 10)
   H (  8)  2.596855
   H (  9)  4.140580  3.815205
   H ( 10)  3.526373  2.563550  1.758092
   H ( 11)  4.184782  2.864708  1.765585  1.780812
 
 A cutoff of  1.0D-14 yielded    715 shell pairs
 There are      5606 function pairs
 
 -------------------------------------------------------
 OpenMP Integral Computing Module                       
 Release: version 1.0, May 2013, Q-Chem Inc. Pittsburgh 
 -------------------------------------------------------
 Integral Job Info:
 Integral job number is                      11
 Integral operator is                         1
 short-range coefficients                     0
 long-range coefficients              100000000
 Omega coefficients                           0
 if combine SR and LR in K                    0
 Integral screening is                        0
 Integral computing path is                   2
 max size of driver memory is            800000
 size of driver memory is                593474
 size of scratch memory is              2361544
 max col of scratch BK array               1296
 max len of scratch array in speh3          155
 max len of scratch index in speh4           18
 max int batch size is                      520
 min int batch size is                       52
 fixed nKL is                                52
 max L of basis functions is                  2
 order of int derivative is                   0
 number of shells is                         38
 number of basis is                         105
 number of cartesian basis is               105
 number of contracted shell pairs           715
 number of primitive shell pairs           2589
 maxK2 (contraction) of shell pair           36
 max number of K2 of shell pair               1
 max number of CS2 of shell pair             62
 max number of PS2 of shell pair            264
 mem total for path MDJ                  519084
 -------------------------------------------------------
 Smallest overlap matrix eigenvalue = 5.17E-03

 Scale SEOQF with 1.000000e-01/1.000000e-01/1.000000e-01

 Standard Electronic Orientation quadrupole field applied
 Nucleus-field energy     =    -0.0000000010 hartrees
 Guess from superposition of atomic densities
 Warning:  Energy on first SCF cycle will be non-variational
 SAD guess density has 42.000000 electrons

 -----------------------------------------------------------------------
  General SCF calculation program by
  Eric Jon Sundstrom, Paul Horn, Yuezhi Mao, Dmitri Zuev, Alec White,
  David Stuck, Shaama M.S., Shane Yost, Joonho Lee, David Small,
  Daniel Levine, Susi Lehtola, Hugh Burton, Evgeny Epifanovsky
 -----------------------------------------------------------------------
 Exchange:     0.2000 Hartree-Fock + 0.0800 Slater + 0.7200 B88
 Correlation:  0.1900 VWN1RPA + 0.8100 LYP
 Using SG-1 standard quadrature grid
 using 12 threads for integral computing
 -------------------------------------------------------
 OpenMP Integral computing Module                
 Release: version 1.0, May 2013, Q-Chem Inc. Pittsburgh 
 -------------------------------------------------------
 -------------------------------------------------------
 OpenMP BLAS3 based DFT computing Module                
 Release: version 1.0, May 2013, Q-Chem Inc. Pittsburgh 
 -------------------------------------------------------
 A unrestricted SCF calculation will be
 performed using DIIS
 SCF converges when DIIS error is below 1.0e-06
 Alpha HF Exchange    Energy =  -3.75288137009207
 Beta HF Exchange     Energy =  -3.75288137009207
 DFT Correlation      Energy =  -1.84462500689010
 DFT Exchange         Energy = -29.60624016357824
 One-Electron (alpha) Energy = -390.02776050025500
 One-Electron (beta)  Energy = -390.02776050025500
 Total Coulomb        Energy = 326.37131069154611
 ---------------------------------------
  Cycle       Energy         DIIS error
 ---------------------------------------
    1    -317.9207687079      2.95e-02  
 Alpha HF Exchange    Energy =  -3.92301895365916
 Beta HF Exchange     Energy =  -3.70936379878576
 DFT Correlation      Energy =  -1.86444122662361
 DFT Exchange         Energy = -30.33679646264278
 One-Electron (alpha) Energy = -406.68757846599806
 One-Electron (beta)  Energy = -380.66876262686208
 Total Coulomb        Energy = 335.09284744583289
    2    -317.3770445771      4.11e-03  
 Alpha HF Exchange    Energy =  -3.84200620165123
 Beta HF Exchange     Energy =  -3.62910521167773
 DFT Correlation      Energy =  -1.83711365467378
 DFT Exchange         Energy = -29.68758825143357
 One-Electron (alpha) Energy = -402.93416611489761
 One-Electron (beta)  Energy = -376.84476157503519
 Total Coulomb        Energy = 326.68859508353501
    3    -317.3660764141      4.64e-03  
 Alpha HF Exchange    Energy =  -3.88629259711893
 Beta HF Exchange     Energy =  -3.67469819772824
 DFT Correlation      Energy =  -1.84994679639649
 DFT Exchange         Energy = -30.03929525477484
 One-Electron (alpha) Energy = -404.99557018396604
 One-Electron (beta)  Energy = -378.80826465780632
 Total Coulomb        Energy = 331.07339754363102
    4    -317.4606006325      4.50e-04  
 Alpha HF Exchange    Energy =  -3.88626422379814
 Beta HF Exchange     Energy =  -3.67221102532273
 DFT Correlation      Energy =  -1.85011206559986
 DFT Exchange         Energy = -30.03156312651440
 One-Electron (alpha) Energy = -405.07427671728703
 One-Electron (beta)  Energy = -378.78734622174744
 Total Coulomb        Energy = 331.12038608463553
    5    -317.4613177839      2.27e-04  
 Alpha HF Exchange    Energy =  -3.88656128678448
 Beta HF Exchange     Energy =  -3.67332118609149
 DFT Correlation      Energy =  -1.84971812482207
 DFT Exchange         Energy = -30.03509566459501
 One-Electron (alpha) Energy = -405.04486787108124
 One-Electron (beta)  Energy = -378.75687238530435
 Total Coulomb        Energy = 331.06480129502432
    6    -317.4615657120      8.09e-05  
 Alpha HF Exchange    Energy =  -3.88631251163790
 Beta HF Exchange     Energy =  -3.67293664033203
 DFT Correlation      Energy =  -1.84963723063112
 DFT Exchange         Energy = -30.03260739092183
 One-Electron (alpha) Energy = -405.04337785313635
 One-Electron (beta)  Energy = -378.74364285159254
 Total Coulomb        Energy = 331.04685266459063
    7    -317.4615923020      2.96e-05  
 Alpha HF Exchange    Energy =  -3.88644285876426
 Beta HF Exchange     Energy =  -3.67306512763509
 DFT Correlation      Energy =  -1.84963871932207
 DFT Exchange         Energy = -30.03353987424072
 One-Electron (alpha) Energy = -405.05092607202783
 One-Electron (beta)  Energy = -378.74592053380547
 Total Coulomb        Energy = 331.05786740245924
    8    -317.4615962717      8.42e-06  
 Alpha HF Exchange    Energy =  -3.88645539723655
 Beta HF Exchange     Energy =  -3.67307068712780
 DFT Correlation      Energy =  -1.84962843847610
 DFT Exchange         Energy = -30.03359112540038
 One-Electron (alpha) Energy = -405.05198905090890
 One-Electron (beta)  Energy = -378.74478316790027
 Total Coulomb        Energy = 331.05785170092747
    9    -317.4615966544      4.49e-06  
 Alpha HF Exchange    Energy =  -3.88643791309019
 Beta HF Exchange     Energy =  -3.67306640989640
 DFT Correlation      Energy =  -1.84962173745462
 DFT Exchange         Energy = -30.03349351415311
 One-Electron (alpha) Energy = -405.05138924761212
 One-Electron (beta)  Energy = -378.74393832771517
 Total Coulomb        Energy = 331.05628087457364
   10    -317.4615967637      8.26e-07  Convergence criterion met
 ---------------------------------------
 SCF time:   CPU 24.23s  wall 2.00s 
<S^2> =          2.004512824
 Alpha HF Exchange    Energy =  -3.88643791309019
 Beta HF Exchange     Energy =  -3.67306640989640
 DFT Correlation      Energy =  -1.84962173745462
 DFT Exchange         Energy = -30.03349351415311
 One-Electron (alpha) Energy = -405.05138924761212
 One-Electron (beta)  Energy = -378.74393832771517
 Total Coulomb        Energy = 331.05628087457364
 Nuclear repulsion Energy = 174.72006951168413
 SCF   energy in the final basis set =     -317.4615967637
 Total energy in the final basis set =     -317.4615967637
 
 --------------------------------------------------------------
 
                    Orbital Energies (a.u.)
 --------------------------------------------------------------
 
 Alpha MOs
 -- Occupied --
-24.694 -24.685 -10.253 -10.194 -10.186  -1.201  -1.192  -0.784
 -0.685  -0.579  -0.547  -0.497  -0.477  -0.450  -0.431  -0.411
 -0.404  -0.392  -0.377  -0.342  -0.195  -0.181
 -- Virtual --
  0.051   0.131   0.136   0.147   0.163   0.185   0.196   0.259
  0.322   0.509   0.519   0.547   0.554   0.584   0.600   0.650
  0.717   0.759   0.796   0.810   0.850   0.873   0.882   0.908
  0.923   1.009   1.106   1.145   1.203   1.217   1.295   1.314
  1.372   1.387   1.473   1.519   1.541   1.601   1.616   1.665
  1.685   1.732   1.817   1.836   1.848   1.863   1.907   1.949
  1.994   2.033   2.040   2.082   2.101   2.130   2.149   2.273
  2.340   2.377   2.409   2.460   2.498   2.599   2.628   2.641
  2.677   2.700   2.716   2.771   2.846   2.865   3.006   3.035
  3.178   3.359   3.379   3.445   3.459   3.654   3.887   4.219
  4.277   4.434   4.666
 
 Beta MOs
 -- Occupied --
-24.692 -24.679 -10.240 -10.186 -10.181  -1.196  -1.177  -0.756
 -0.662  -0.557  -0.542  -0.479  -0.461  -0.425  -0.412  -0.404
 -0.391  -0.383  -0.366  -0.331
 -- Virtual --
 -0.047  -0.029   0.057   0.137   0.144   0.165   0.173   0.193
  0.227   0.273   0.346   0.522   0.537   0.564   0.589   0.597
  0.624   0.695   0.730   0.772   0.805   0.820   0.859   0.880
  0.889   0.924   0.928   1.027   1.114   1.152   1.212   1.231
  1.304   1.328   1.381   1.395   1.500   1.526   1.564   1.603
  1.629   1.688   1.706   1.746   1.835   1.855   1.855   1.877
  1.922   1.966   2.034   2.043   2.048   2.090   2.116   2.140
  2.160   2.299   2.354   2.392   2.435   2.476   2.503   2.623
  2.647   2.663   2.690   2.701   2.718   2.782   2.854   2.874
  3.017   3.047   3.184   3.371   3.390   3.449   3.468   3.654
  3.891   4.233   4.301   4.448   4.689
 --------------------------------------------------------------
 
          Ground-State Mulliken Net Atomic Charges

     Atom                 Charge (a.u.)    Spin (a.u.)
  --------------------------------------------------------
      1 F                    -0.297291       0.035543
      2 F                    -0.271949       0.117148
      3 C                    -0.099786       0.903132
      4 C                     0.119923       0.906043
      5 C                    -0.333794      -0.049578
      6 H                     0.102784       0.011104
      7 H                     0.085562      -0.017413
      8 H                     0.361286       0.008356
      9 H                     0.124277       0.050247
     10 H                     0.092314       0.012330
     11 H                     0.116674       0.023088
  --------------------------------------------------------
  Sum of atomic charges =    -0.000000
  Sum of spin   charges =     2.000000

 -----------------------------------------------------------------
                    Cartesian Multipole Moments
 -----------------------------------------------------------------
    Charge (ESU x 10^10)
                 0.0000
    Dipole Moment (Debye)
         X      -0.6799      Y       0.1023      Z       1.9879
       Tot       2.1035
    Quadrupole Moments (Debye-Ang)
        XX     -28.3338     XY      -0.2260     YY     -32.4008
        XZ       0.7521     YZ      -3.2410     ZZ     -28.0674
    Octopole Moments (Debye-Ang^2)
       XXX      16.0038    XXY      -8.7122    XYY       2.9274
       YYY     -28.4900    XXZ       4.4557    XYZ      -2.3015
       YYZ       1.1589    XZZ       2.6900    YZZ      -8.3877
       ZZZ      24.9705
    Hexadecapole Moments (Debye-Ang^3)
      XXXX    -230.6188   XXXY      31.1676   XXYY     -67.8152
      XYYY      31.3959   YYYY    -176.7582   XXXZ      14.9160
      XXYZ     -18.5627   XYYZ       2.6280   YYYZ     -62.9405
      XXZZ     -72.6643   XYZZ      11.6799   YYZZ     -69.7616
      XZZZ      14.4009   YZZZ     -57.2911   ZZZZ    -182.5700
 -----------------------------------------------------------------
 Calculating analytic gradient of the SCF energy
 Gradient of SCF Energy
            1           2           3           4           5           6
    1  -0.0088106   0.0000367   0.0087926  -0.0001026  -0.0001016  -0.0000000
    2  -0.0110273  -0.0000758   0.0109206   0.0001320   0.0000665  -0.0000234
    3  -0.0267697  -0.0000714   0.0269476   0.0000981  -0.0001638   0.0000092
            7           8           9          10          11
    1   0.0000115   0.0001563  -0.0000021   0.0000113   0.0000085
    2  -0.0000402   0.0001579  -0.0000734  -0.0000110  -0.0000259
    3  -0.0000174  -0.0002138   0.0000614   0.0000512   0.0000687
 Max gradient component =       2.695E-02
 RMS gradient           =       7.465E-03
 Gradient time:  CPU 8.24 s  wall 0.73 s
 Geometry Optimization Parameters
   NAtoms,    NIC,     NZ,  NCons,   NDum,   NFix, NCnnct, MaxDiis
       11      80       0       1       0       0       0       0


** CONSTRAINED OPTIMIZATION IN DELOCALIZED INTERNAL COORDINATES **
   Searching for a Minimum

   Optimization Cycle:   1

                       Coordinates (Angstroms)
     ATOM                X               Y               Z
      1  F         0.3230960000    1.5225870000    1.5305860000
      2  F         0.8115540000   -1.0587540000   -1.5984050000
      3  C        -0.3110900000    0.7287810000   -0.4207430000
      4  C         0.6893450000   -0.3206760000   -0.4506860000
      5  C        -1.7414600000    0.4803950000   -0.0457660000
      6  H        -0.0903680000    1.6717440000   -0.9245830000
      7  H         1.6399770000   -0.2609120000    0.0775550000
      8  H         0.1190750000    0.7163170000    1.9418340000
      9  H        -2.3518890000    0.2032230000   -0.9194350000
     10  H        -1.8354610000   -0.3468270000    0.6685310000
     11  H        -2.1990800000    1.3745250000    0.3928120000
   Point Group: c1    Number of degrees of freedom:    27


   Energy is   -317.461596764

              Constraints and their Current Values
                                        Value     Constraint
   Distance(Angs):        1   3             2.200001     2.100000

 Attempting to Generate Delocalized Internal Coordinates

   Using Lagrange Multiplier Algorithm


 28 Hessian modes will be used to form the next step
  Hessian Eigenvalues:
    -0.970553    0.045000    0.045000    0.047802    0.049748    0.068842
     0.075060    0.075492    0.078310    0.098818    0.109645    0.150698
     0.160000    0.160000    0.160000    0.160000    0.163725    0.222862
     0.324382    0.335446    0.340189    0.341274    0.346199    0.349077
     0.382167    0.509729    0.528591    1.030341

 Minimum Search - Taking P-RFO Step
 Searching for Lamda that Maximizes Along the Constraint modes Only
 Value Taken    Lamda =   0.02467331
 Searching for Lamda that Minimizes Along All other modes
 Value Taken    Lamda =  -0.01158795
 Step Taken.  Stepsize is  0.185347

                             Maximum     Tolerance    Cnvgd?
         Gradient            0.188975       0.000300      NO
         Displacement        0.185336       0.001200      NO
         Energy change     *********       0.000001      NO


 New Cartesian Coordinates Obtained by Inverse Iteration

 Displacement from previous Coordinates is:  0.181745
 ----------------------------------------------------------------
             Standard Nuclear Orientation (Angstroms)
    I     Atom           X                Y                Z
 ----------------------------------------------------------------
    1      F       0.2981908621     1.4931142038     1.4558799542
    2      F       0.8159750782    -1.0512113682    -1.5895435921
    3      C      -0.3069845761     0.7334313212    -0.4081843912
    4      C       0.6928495554    -0.3166251219    -0.4398053668
    5      C      -1.7377841555     0.4843088518    -0.0357648435
    6      H      -0.0850596087     1.6777440724    -0.9090295598
    7      H       1.6427810446    -0.2586422739     0.0898821669
    8      H       0.1095866994     0.7057549312     1.9190197984
    9      H      -2.3470143368     0.2101054788    -0.9112437910
   10      H      -1.8331096996    -0.3449722835     0.6759069978
   11      H      -2.1957318629     1.3773951882     0.4045826271
 ----------------------------------------------------------------
 Nuclear Repulsion Energy =   176.4259448078 hartrees
 There are       22 alpha and       20 beta electrons

                       Distance Matrix (Angstroms)
             F (  1)   F (  2)   C (  3)   C (  4)   C (  5)   H (  6)
   F (  2)  4.002037
   C (  3)  2.101926  2.416940
   C (  4)  2.650384  1.369918  1.450271
   C (  5)  2.718067  3.360616  1.499315  2.590893
   H (  6)  2.402866  2.953330  1.091707  2.191534  2.217741
   H (  7)  2.596637  2.032792  2.243628  1.089174  3.463522  2.780800
   H (  8)  0.932740  3.986970  2.364356  2.636193  2.698703  2.996750
   H (  9)  3.774453  3.472105  2.165331  3.120973  1.101278  2.696369
   H ( 10)  2.920507  3.556500  2.160386  2.761537  1.096937  3.107907
   H ( 11)  2.708924  4.352591  2.154680  3.453491  1.096004  2.504141
             H (  7)   H (  8)   H (  9)   H ( 10)
   H (  8)  2.574197
   H (  9)  4.140102  3.780337
   H ( 10)  3.526003  2.534448  1.758197
   H ( 11)  4.184476  2.838858  1.765461  1.780916
 
 Applying Cartesian multipole field
    Component          Value
    ---------          -----
     (2,0,0)        1.00000E-11
     (0,2,0)        2.00000E-11
     (0,0,2)       -3.00000E-11
 Nucleus-field energy     =    -0.0000000008 hartrees
 Requested basis set is 6-31G(d,p)
 There are 38 shells and 105 basis functions
 A cutoff of  1.0D-14 yielded    715 shell pairs
 There are      5606 function pairs
 Smallest overlap matrix eigenvalue = 4.95E-03
 Guess from superposition of atomic densities
 Warning:  Energy on first SCF cycle will be non-variational
 SAD guess density has 42.000000 electrons

 -----------------------------------------------------------------------
  General SCF calculation program by
  Eric Jon Sundstrom, Paul Horn, Yuezhi Mao, Dmitri Zuev, Alec White,
  David Stuck, Shaama M.S., Shane Yost, Joonho Lee, David Small,
  Daniel Levine, Susi Lehtola, Hugh Burton, Evgeny Epifanovsky
 -----------------------------------------------------------------------
 Exchange:     0.2000 Hartree-Fock + 0.0800 Slater + 0.7200 B88
 Correlation:  0.1900 VWN1RPA + 0.8100 LYP
 Using SG-1 standard quadrature grid
 using 12 threads for integral computing
 -------------------------------------------------------
 OpenMP Integral computing Module                
 Release: version 1.0, May 2013, Q-Chem Inc. Pittsburgh 
 -------------------------------------------------------
 -------------------------------------------------------
 OpenMP BLAS3 based DFT computing Module                
 Release: version 1.0, May 2013, Q-Chem Inc. Pittsburgh 
 -------------------------------------------------------
 A unrestricted SCF calculation will be
 performed using DIIS
 SCF converges when DIIS error is below 1.0e-06
 Alpha HF Exchange    Energy =  -3.75452471734402
 Beta HF Exchange     Energy =  -3.75452471734402
 DFT Correlation      Energy =  -1.84599487690085
 DFT Exchange         Energy = -29.60924953324825
 One-Electron (alpha) Energy = -391.73729117750145
 One-Electron (beta)  Energy = -391.73729117750145
 Total Coulomb        Energy = 328.07861830904557
 ---------------------------------------
  Cycle       Energy         DIIS error
 ---------------------------------------
    1    -317.9343130839      2.96e-02  
 Alpha HF Exchange    Energy =  -3.92382617158799
 Beta HF Exchange     Energy =  -3.70783561159753
 DFT Correlation      Energy =  -1.86577750981445
 DFT Exchange         Energy = -30.33592519105382
 One-Electron (alpha) Energy = -408.50851658303804
 One-Electron (beta)  Energy = -382.29340704540209
 Total Coulomb        Energy = 336.83944371052814
    2    -317.3698995950      4.09e-03  
 Alpha HF Exchange    Energy =  -3.84296387237087
 Beta HF Exchange     Energy =  -3.62896850262384
 DFT Correlation      Energy =  -1.83844310829739
 DFT Exchange         Energy = -29.69208485004348
 One-Electron (alpha) Energy = -404.69610292969759
 One-Electron (beta)  Energy = -378.44662079079018
 Total Coulomb        Energy = 328.35999845055824
    3    -317.3592407963      4.60e-03  
 Alpha HF Exchange    Energy =  -3.88731702953327
 Beta HF Exchange     Energy =  -3.67394355370059
 DFT Correlation      Energy =  -1.85134677232980
 DFT Exchange         Energy = -30.04171882005969
 One-Electron (alpha) Energy = -406.80406125946223
 One-Electron (beta)  Energy = -380.43215748642643
 Total Coulomb        Energy = 332.81070138927561
    4    -317.4538987253      4.54e-04  
 Alpha HF Exchange    Energy =  -3.88720018877447
 Beta HF Exchange     Energy =  -3.67139226484940
 DFT Correlation      Energy =  -1.85146227308916
 DFT Exchange         Energy = -30.03330345379584
 One-Electron (alpha) Energy = -406.87500082884236
 One-Electron (beta)  Energy = -380.40271905467353
 Total Coulomb        Energy = 332.84049629827996
    5    -317.4546369588      2.24e-04  
 Alpha HF Exchange    Energy =  -3.88748463863713
 Beta HF Exchange     Energy =  -3.67249452305888
 DFT Correlation      Energy =  -1.85106362213835
 DFT Exchange         Energy = -30.03673223970085
 One-Electron (alpha) Energy = -406.84493259301945
 One-Electron (beta)  Energy = -380.37142383172443
 Total Coulomb        Energy = 332.78330613727712
    6    -317.4548805041      7.91e-05  
 Alpha HF Exchange    Energy =  -3.88723983319415
 Beta HF Exchange     Energy =  -3.67210244367011
 DFT Correlation      Energy =  -1.85098814507042
 DFT Exchange         Energy = -30.03424012955720
 One-Electron (alpha) Energy = -406.84473296818015
 One-Electron (beta)  Energy = -380.35895886815558
 Total Coulomb        Energy = 332.76741107144255
    7    -317.4549065094      3.02e-05  
 Alpha HF Exchange    Energy =  -3.88737387055467
 Beta HF Exchange     Energy =  -3.67223938380550
 DFT Correlation      Energy =  -1.85098771646655
 DFT Exchange         Energy = -30.03520896215047
 One-Electron (alpha) Energy = -406.85198766589946
 One-Electron (beta)  Energy = -380.36095749614384
 Total Coulomb        Energy = 332.77789965119916
    8    -317.4549106369      8.66e-06  
 Alpha HF Exchange    Energy =  -3.88738548830220
 Beta HF Exchange     Energy =  -3.67224424161107
 DFT Correlation      Energy =  -1.85097741771220
 DFT Exchange         Energy = -30.03525209559508
 One-Electron (alpha) Energy = -406.85306977536487
 One-Electron (beta)  Energy = -380.35981146780466
 Total Coulomb        Energy = 332.77788465189235
    9    -317.4549110276      4.69e-06  
 Alpha HF Exchange    Energy =  -3.88736807238975
 Beta HF Exchange     Energy =  -3.67223981613162
 DFT Correlation      Energy =  -1.85097058201019
 DFT Exchange         Energy = -30.03515363927233
 One-Electron (alpha) Energy = -406.85246871350296
 One-Electron (beta)  Energy = -380.35894025915991
 Total Coulomb        Energy = 332.77628513294411
   10    -317.4549111426      8.60e-07  Convergence criterion met
 ---------------------------------------
 SCF time:   CPU 24.45s  wall 2.00s 
<S^2> =          2.004514573
 Alpha HF Exchange    Energy =  -3.88736807238975
 Beta HF Exchange     Energy =  -3.67223981613162
 DFT Correlation      Energy =  -1.85097058201019
 DFT Exchange         Energy = -30.03515363927233
 One-Electron (alpha) Energy = -406.85246871350296
 One-Electron (beta)  Energy = -380.35894025915991
 Total Coulomb        Energy = 332.77628513294411
 Nuclear repulsion Energy = 176.42594480694376
 SCF   energy in the final basis set =     -317.4549111426
 Total energy in the final basis set =     -317.4549111426
 
 --------------------------------------------------------------
 
                    Orbital Energies (a.u.)
 --------------------------------------------------------------
 
 Alpha MOs
 -- Occupied --
-24.700 -24.683 -10.251 -10.191 -10.184  -1.206  -1.190  -0.782
 -0.683  -0.580  -0.550  -0.497  -0.474  -0.451  -0.433  -0.415
 -0.402  -0.390  -0.375  -0.340  -0.192  -0.172
 -- Virtual --
  0.047   0.132   0.137   0.148   0.165   0.185   0.198   0.261
  0.324   0.511   0.522   0.547   0.555   0.586   0.598   0.657
  0.720   0.762   0.794   0.812   0.851   0.873   0.885   0.910
  0.924   1.026   1.106   1.153   1.210   1.219   1.300   1.313
  1.378   1.394   1.474   1.515   1.541   1.599   1.636   1.677
  1.681   1.737   1.823   1.841   1.852   1.864   1.912   1.957
  1.986   2.041   2.050   2.084   2.111   2.134   2.164   2.294
  2.368   2.379   2.408   2.462   2.485   2.598   2.639   2.648
  2.682   2.691   2.717   2.776   2.850   2.867   3.009   3.040
  3.181   3.360   3.382   3.447   3.466   3.642   3.917   4.225
  4.304   4.442   4.670
 
 Beta MOs
 -- Occupied --
-24.696 -24.677 -10.238 -10.184 -10.177  -1.200  -1.176  -0.754
 -0.661  -0.561  -0.542  -0.479  -0.460  -0.429  -0.410  -0.407
 -0.390  -0.382  -0.364  -0.329
 -- Virtual --
 -0.043  -0.023   0.054   0.138   0.145   0.166   0.174   0.194
  0.229   0.275   0.347   0.524   0.539   0.565   0.591   0.598
  0.624   0.699   0.733   0.773   0.802   0.823   0.859   0.881
  0.892   0.926   0.929   1.043   1.115   1.161   1.221   1.233
  1.311   1.324   1.385   1.403   1.499   1.525   1.564   1.601
  1.650   1.700   1.702   1.751   1.840   1.858   1.861   1.877
  1.926   1.975   2.023   2.046   2.062   2.092   2.127   2.145
  2.173   2.317   2.384   2.397   2.433   2.475   2.492   2.619
  2.658   2.669   2.689   2.698   2.722   2.787   2.859   2.875
  3.021   3.051   3.186   3.372   3.393   3.450   3.475   3.643
  3.921   4.240   4.326   4.456   4.694
 --------------------------------------------------------------
 
          Ground-State Mulliken Net Atomic Charges

     Atom                 Charge (a.u.)    Spin (a.u.)
  --------------------------------------------------------
      1 F                    -0.287015       0.041702
      2 F                    -0.272756       0.116578
      3 C                    -0.101314       0.895479
      4 C                     0.120453       0.906673
      5 C                    -0.330415      -0.048880
      6 H                     0.100776       0.011460
      7 H                     0.082304      -0.016979
      8 H                     0.362301       0.010733
      9 H                     0.122258       0.047737
     10 H                     0.089733       0.012278
     11 H                     0.113675       0.023218
  --------------------------------------------------------
  Sum of atomic charges =    -0.000000
  Sum of spin   charges =     2.000000

 -----------------------------------------------------------------
                    Cartesian Multipole Moments
 -----------------------------------------------------------------
    Charge (ESU x 10^10)
                -0.0000
    Dipole Moment (Debye)
         X      -0.6049      Y       0.2093      Z       2.1911
       Tot       2.2827
    Quadrupole Moments (Debye-Ang)
        XX     -28.5060     XY      -0.1018     YY     -32.2192
        XZ       0.8326     YZ      -2.9109     ZZ     -27.8131
    Octopole Moments (Debye-Ang^2)
       XXX      16.3873    XXY      -8.6870    XYY       3.1393
       YYY     -28.0511    XXZ       4.6603    XYZ      -2.1556
       YYZ       1.8119    XZZ       2.9375    YZZ      -7.7892
       ZZZ      25.9803
    Hexadecapole Moments (Debye-Ang^3)
      XXXX    -231.1230   XXXY      32.1793   XXYY     -67.4097
      XYYY      32.3986   YYYY    -173.6456   XXXZ      16.2304
      XXYZ     -17.6973   XYYZ       3.2854   YYYZ     -59.5591
      XXZZ     -71.2560   XYZZ      12.2374   YYZZ     -66.8963
      XZZZ      15.9633   YZZZ     -53.3957   ZZZZ    -173.4516
 -----------------------------------------------------------------
 Calculating analytic gradient of the SCF energy
 Gradient of SCF Energy
            1           2           3           4           5           6
    1  -0.0111419  -0.0003893   0.0105558   0.0011171   0.0004635   0.0001664
    2  -0.0116581   0.0004607   0.0147180  -0.0004627   0.0001978   0.0003368
    3  -0.0393748   0.0002377   0.0353618   0.0007842   0.0011840   0.0003472
            7           8           9          10          11
    1  -0.0002912  -0.0008510   0.0001991   0.0000439   0.0001275
    2   0.0001793  -0.0038234   0.0000072   0.0000891  -0.0000447
    3   0.0001690   0.0016525  -0.0001935  -0.0000877  -0.0000804
 Max gradient component =       3.937E-02
 RMS gradient           =       1.017E-02
 Gradient time:  CPU 8.20 s  wall 0.70 s
 Geometry Optimization Parameters
   NAtoms,    NIC,     NZ,  NCons,   NDum,   NFix, NCnnct, MaxDiis
       11      80       0       1       0       0       0       0

 Cartesian Hessian Update
 Hessian Updated using BFGS Update


** CONSTRAINED OPTIMIZATION IN DELOCALIZED INTERNAL COORDINATES **
   Searching for a Minimum

   Optimization Cycle:   2

                       Coordinates (Angstroms)
     ATOM                X               Y               Z
      1  F         0.2981908621    1.4931142038    1.4558799542
      2  F         0.8159750782   -1.0512113682   -1.5895435921
      3  C        -0.3069845761    0.7334313212   -0.4081843912
      4  C         0.6928495554   -0.3166251219   -0.4398053668
      5  C        -1.7377841555    0.4843088518   -0.0357648435
      6  H        -0.0850596087    1.6777440724   -0.9090295598
      7  H         1.6427810446   -0.2586422739    0.0898821669
      8  H         0.1095866994    0.7057549312    1.9190197984
      9  H        -2.3470143368    0.2101054788   -0.9112437910
     10  H        -1.8331096996   -0.3449722835    0.6759069978
     11  H        -2.1957318629    1.3773951882    0.4045826271
   Point Group: c1    Number of degrees of freedom:    27


   Energy is   -317.454911143

              Constraints and their Current Values
                                        Value     Constraint
   Distance(Angs):        1   3             2.101926     2.100000
 Hessian Updated using BFGS Update

   Using Lagrange Multiplier Algorithm


 26 Hessian modes will be used to form the next step
  Hessian Eigenvalues:
    -0.968039    0.045000    0.045002    0.047801    0.049748    0.069265
     0.075075    0.075497    0.078313    0.099005    0.109645    0.150718
     0.160000    0.160247    0.163756    0.223101    0.324605    0.335448
     0.340202    0.341280    0.346214    0.349087    0.382183    0.509835
     0.535349    1.033701

 Minimum Search - Taking P-RFO Step
 Searching for Lamda that Maximizes Along the Constraint modes Only
 Value Taken    Lamda =   0.00002149
 Searching for Lamda that Minimizes Along All other modes
 Value Taken    Lamda =  -0.00005558
 Step Taken.  Stepsize is  0.019195

                             Maximum     Tolerance    Cnvgd?
         Gradient            0.003639       0.000300      NO
         Displacement        0.009240       0.001200      NO
         Energy change      0.006686       0.000001      NO


 New Cartesian Coordinates Obtained by Inverse Iteration

 Displacement from previous Coordinates is:  0.018794
 ----------------------------------------------------------------
             Standard Nuclear Orientation (Angstroms)
    I     Atom           X                Y                Z
 ----------------------------------------------------------------
    1      F       0.2972178366     1.4939037139     1.4574831432
    2      F       0.8150891359    -1.0517846406    -1.5911981770
    3      C      -0.3052953231     0.7343216978    -0.4053140240
    4      C       0.6928817636    -0.3168712925    -0.4409741461
    5      C      -1.7379366631     0.4840122051    -0.0364722037
    6      H      -0.0837842253     1.6777115863    -0.9075267251
    7      H       1.6445623746    -0.2620481859     0.0863896356
    8      H       0.1098167069     0.7110121627     1.9221785180
    9      H      -2.3471721867     0.2095215622    -0.9117542499
   10      H      -1.8338920991    -0.3457002589     0.6749615966
   11      H      -2.1977883201     1.3763244499     0.4039266326
 ----------------------------------------------------------------
 Nuclear Repulsion Energy =   176.3864023502 hartrees
 There are       22 alpha and       20 beta electrons

                       Distance Matrix (Angstroms)
             F (  1)   F (  2)   C (  3)   C (  4)   C (  5)   H (  6)
   F (  2)  4.005394
   C (  3)  2.100000  2.419041
   C (  4)  2.653224  1.370419  1.450047
   C (  5)  2.719124  3.360623  1.500387  2.591122
   H (  6)  2.402544  2.953901  1.091453  2.190717  2.218079
   H (  7)  2.603575  2.031258  2.244208  1.089410  3.465978  2.781676
   H (  8)  0.929505  3.993580  2.364336  2.642158  2.702228  2.996535
   H (  9)  3.775675  3.471662  2.168215  3.121002  1.101196  2.697874
   H ( 10)  2.922005  3.556844  2.161030  2.762378  1.097164  3.108270
   H ( 11)  2.710878  4.353581  2.156054  3.454959  1.096192  2.505944
             H (  7)   H (  8)   H (  9)   H ( 10)
   H (  8)  2.583101
   H (  9)  4.141571  3.784107
   H ( 10)  3.528889  2.539723  1.757667
   H ( 11)  4.189123  2.841262  1.764868  1.780800
 
 Applying Cartesian multipole field
    Component          Value
    ---------          -----
     (2,0,0)        1.00000E-11
     (0,2,0)        2.00000E-11
     (0,0,2)       -3.00000E-11
 Nucleus-field energy     =    -0.0000000009 hartrees
 Requested basis set is 6-31G(d,p)
 There are 38 shells and 105 basis functions
 A cutoff of  1.0D-14 yielded    715 shell pairs
 There are      5606 function pairs
 Smallest overlap matrix eigenvalue = 4.96E-03
 Guess from superposition of atomic densities
 Warning:  Energy on first SCF cycle will be non-variational
 SAD guess density has 42.000000 electrons

 -----------------------------------------------------------------------
  General SCF calculation program by
  Eric Jon Sundstrom, Paul Horn, Yuezhi Mao, Dmitri Zuev, Alec White,
  David Stuck, Shaama M.S., Shane Yost, Joonho Lee, David Small,
  Daniel Levine, Susi Lehtola, Hugh Burton, Evgeny Epifanovsky
 -----------------------------------------------------------------------
 Exchange:     0.2000 Hartree-Fock + 0.0800 Slater + 0.7200 B88
 Correlation:  0.1900 VWN1RPA + 0.8100 LYP
 Using SG-1 standard quadrature grid
 using 12 threads for integral computing
 -------------------------------------------------------
 OpenMP Integral computing Module                
 Release: version 1.0, May 2013, Q-Chem Inc. Pittsburgh 
 -------------------------------------------------------
 -------------------------------------------------------
 OpenMP BLAS3 based DFT computing Module                
 Release: version 1.0, May 2013, Q-Chem Inc. Pittsburgh 
 -------------------------------------------------------
 A unrestricted SCF calculation will be
 performed using DIIS
 SCF converges when DIIS error is below 1.0e-06
 Alpha HF Exchange    Energy =  -3.75458845166178
 Beta HF Exchange     Energy =  -3.75458845166178
 DFT Correlation      Energy =  -1.84598039195208
 DFT Exchange         Energy = -29.60951793630214
 One-Electron (alpha) Energy = -391.69499027829465
 One-Electron (beta)  Energy = -391.69499027829465
 Total Coulomb        Energy = 328.03362460922125
 ---------------------------------------
  Cycle       Energy         DIIS error
 ---------------------------------------
    1    -317.9346288295      2.96e-02  
 Alpha HF Exchange    Energy =  -3.92394139612861
 Beta HF Exchange     Energy =  -3.70789529918593
 DFT Correlation      Energy =  -1.86576441794868
 DFT Exchange         Energy = -30.33653694970193
 One-Electron (alpha) Energy = -408.46583344054835
 One-Electron (beta)  Energy = -382.25107555476751
 Total Coulomb        Energy = 336.79466299801658
    2    -317.3699817109      4.09e-03  
 Alpha HF Exchange    Energy =  -3.84319104093587
 Beta HF Exchange     Energy =  -3.62910759231791
 DFT Correlation      Energy =  -1.83847061835547
 DFT Exchange         Energy = -29.69333914327602
 One-Electron (alpha) Energy = -404.65940998609454
 One-Electron (beta)  Energy = -378.40909425523955
 Total Coulomb        Energy = 328.32667935885001
    3    -317.3595309280      4.59e-03  
 Alpha HF Exchange    Energy =  -3.88746557245414
 Beta HF Exchange     Energy =  -3.67400902203473
 DFT Correlation      Energy =  -1.85134920258622
 DFT Exchange         Energy = -30.04242695447916
 One-Electron (alpha) Energy = -406.76369943300045
 One-Electron (beta)  Energy = -380.39100739919382
 Total Coulomb        Energy = 332.76976470400956
    4    -317.4537905303      4.52e-04  
 Alpha HF Exchange    Energy =  -3.88735380318593
 Beta HF Exchange     Energy =  -3.67145829674406
 DFT Correlation      Energy =  -1.85146340861024
 DFT Exchange         Energy = -30.03403185383450
 One-Electron (alpha) Energy = -406.83451860132328
 One-Electron (beta)  Energy = -380.36138064382055
 Total Coulomb        Energy = 332.79928225840445
    5    -317.4545219997      2.24e-04  
 Alpha HF Exchange    Energy =  -3.88763406455793
 Beta HF Exchange     Energy =  -3.67256235792588
 DFT Correlation      Energy =  -1.85106449130060
 DFT Exchange         Energy = -30.03744877459259
 One-Electron (alpha) Energy = -406.80427846295783
 One-Electron (beta)  Energy = -380.33007344627373
 Total Coulomb        Energy = 332.74189418529050
    6    -317.4547650629      7.97e-05  
 Alpha HF Exchange    Energy =  -3.88739030493540
 Beta HF Exchange     Energy =  -3.67217077460365
 DFT Correlation      Energy =  -1.85098902512307
 DFT Exchange         Energy = -30.03496242632909
 One-Electron (alpha) Energy = -406.80409103390286
 One-Electron (beta)  Energy = -380.31761311105191
 Total Coulomb        Energy = 332.72602300778698
    7    -317.4547913188      3.01e-05  
 Alpha HF Exchange    Energy =  -3.88752368935859
 Beta HF Exchange     Energy =  -3.67230545464126
 DFT Correlation      Energy =  -1.85098880230755
 DFT Exchange         Energy = -30.03592183823146
 One-Electron (alpha) Energy = -406.81139785825656
 One-Electron (beta)  Energy = -380.31960255455101
 Total Coulomb        Energy = 332.73654240282099
    8    -317.4547954451      8.57e-06  
 Alpha HF Exchange    Energy =  -3.88753530697635
 Beta HF Exchange     Energy =  -3.67231114496667
 DFT Correlation      Energy =  -1.85097830481517
 DFT Exchange         Energy = -30.03596728027837
 One-Electron (alpha) Energy = -406.81245335827344
 One-Electron (beta)  Energy = -380.31844525603651
 Total Coulomb        Energy = 332.73649247029391
    9    -317.4547958317      4.66e-06  
 Alpha HF Exchange    Energy =  -3.88751788828009
 Beta HF Exchange     Energy =  -3.67230645698675
 DFT Correlation      Energy =  -1.85097159628968
 DFT Exchange         Energy = -30.03586830191915
 One-Electron (alpha) Energy = -406.81186295373743
 One-Electron (beta)  Energy = -380.31758450966879
 Total Coulomb        Energy = 332.73491341237991
   10    -317.4547959451      8.62e-07  Convergence criterion met
 ---------------------------------------
 SCF time:   CPU 23.55s  wall 2.00s 
<S^2> =          2.004510805
 Alpha HF Exchange    Energy =  -3.88751788828009
 Beta HF Exchange     Energy =  -3.67230645698675
 DFT Correlation      Energy =  -1.85097159628968
 DFT Exchange         Energy = -30.03586830191915
 One-Electron (alpha) Energy = -406.81186295373743
 One-Electron (beta)  Energy = -380.31758450966879
 Total Coulomb        Energy = 332.73491341237991
 Nuclear repulsion Energy = 176.38640234939621
 SCF   energy in the final basis set =     -317.4547959451
 Total energy in the final basis set =     -317.4547959451
 
 --------------------------------------------------------------
 
                    Orbital Energies (a.u.)
 --------------------------------------------------------------
 
 Alpha MOs
 -- Occupied --
-24.700 -24.683 -10.251 -10.191 -10.184  -1.208  -1.190  -0.782
 -0.683  -0.580  -0.551  -0.496  -0.474  -0.451  -0.433  -0.415
 -0.402  -0.391  -0.375  -0.340  -0.192  -0.172
 -- Virtual --
  0.048   0.133   0.137   0.148   0.165   0.185   0.198   0.260
  0.323   0.511   0.522   0.547   0.555   0.586   0.598   0.657
  0.720   0.762   0.795   0.813   0.851   0.873   0.884   0.910
  0.924   1.026   1.107   1.154   1.211   1.219   1.299   1.313
  1.378   1.394   1.474   1.515   1.541   1.599   1.637   1.676
  1.681   1.738   1.822   1.840   1.853   1.864   1.911   1.957
  1.985   2.041   2.051   2.084   2.111   2.134   2.164   2.294
  2.368   2.378   2.407   2.462   2.491   2.598   2.638   2.648
  2.683   2.694   2.721   2.776   2.849   2.867   3.010   3.039
  3.180   3.360   3.383   3.447   3.466   3.646   3.920   4.225
  4.302   4.442   4.670
 
 Beta MOs
 -- Occupied --
-24.696 -24.677 -10.238 -10.184 -10.177  -1.201  -1.175  -0.754
 -0.661  -0.561  -0.543  -0.478  -0.459  -0.429  -0.410  -0.407
 -0.390  -0.382  -0.364  -0.329
 -- Virtual --
 -0.043  -0.023   0.055   0.138   0.145   0.166   0.174   0.193
  0.229   0.274   0.347   0.524   0.539   0.565   0.591   0.598
  0.625   0.699   0.733   0.773   0.803   0.824   0.859   0.881
  0.892   0.926   0.929   1.044   1.115   1.162   1.221   1.233
  1.311   1.324   1.385   1.403   1.499   1.525   1.563   1.601
  1.651   1.699   1.702   1.752   1.839   1.858   1.861   1.877
  1.925   1.974   2.022   2.046   2.063   2.092   2.128   2.145
  2.174   2.317   2.383   2.396   2.432   2.477   2.496   2.619
  2.658   2.669   2.691   2.699   2.726   2.787   2.858   2.875
  3.021   3.051   3.185   3.372   3.394   3.450   3.475   3.647
  3.924   4.240   4.324   4.456   4.694
 --------------------------------------------------------------
 
          Ground-State Mulliken Net Atomic Charges

     Atom                 Charge (a.u.)    Spin (a.u.)
  --------------------------------------------------------
      1 F                    -0.285508       0.041851
      2 F                    -0.273049       0.116666
      3 C                    -0.101178       0.894698
      4 C                     0.120668       0.907129
      5 C                    -0.330506      -0.048673
      6 H                     0.100767       0.011657
      7 H                     0.082068      -0.017121
      8 H                     0.361131       0.010770
      9 H                     0.122275       0.047659
     10 H                     0.089846       0.012282
     11 H                     0.113486       0.023082
  --------------------------------------------------------
  Sum of atomic charges =    -0.000000
  Sum of spin   charges =     2.000000

 -----------------------------------------------------------------
                    Cartesian Multipole Moments
 -----------------------------------------------------------------
    Charge (ESU x 10^10)
                 0.0000
    Dipole Moment (Debye)
         X      -0.6047      Y       0.2183      Z       2.1988
       Tot       2.2909
    Quadrupole Moments (Debye-Ang)
        XX     -28.4969     XY      -0.0992     YY     -32.2184
        XZ       0.8366     YZ      -2.8973     ZZ     -27.7944
    Octopole Moments (Debye-Ang^2)
       XXX      16.3715    XXY      -8.6914    XYY       3.1474
       YYY     -28.0576    XXZ       4.6586    XYZ      -2.1543
       YYZ       1.8341    XZZ       2.9409    YZZ      -7.7312
       ZZZ      26.0754
    Hexadecapole Moments (Debye-Ang^3)
      XXXX    -231.0407   XXXY      32.1602   XXYY     -67.4403
      XYYY      32.4101   YYYY    -173.8516   XXXZ      16.2769
      XXYZ     -17.7379   XYYZ       3.3040   YYYZ     -59.7042
      XXZZ     -71.3013   XYZZ      12.2511   YYZZ     -66.9370
      XZZZ      16.0342   YZZZ     -53.4384   ZZZZ    -173.4806
 -----------------------------------------------------------------
 Calculating analytic gradient of the SCF energy
 Gradient of SCF Energy
            1           2           3           4           5           6
    1  -0.0118917  -0.0000490   0.0113428   0.0004985   0.0001827   0.0001378
    2  -0.0147533   0.0001820   0.0151083  -0.0000430   0.0001914   0.0001191
    3  -0.0377277   0.0002099   0.0358068   0.0006715   0.0008150   0.0003763
            7           8           9          10          11
    1  -0.0000337  -0.0001177  -0.0000352  -0.0000090  -0.0000256
    2   0.0000153  -0.0007824  -0.0000105  -0.0000154  -0.0000115
    3   0.0000221  -0.0001035   0.0000009  -0.0000296  -0.0000419
 Max gradient component =       3.773E-02
 RMS gradient           =       1.019E-02
 Gradient time:  CPU 8.34 s  wall 0.73 s
 Geometry Optimization Parameters
   NAtoms,    NIC,     NZ,  NCons,   NDum,   NFix, NCnnct, MaxDiis
       11      80       0       1       0       0       0       0

 Cartesian Hessian Update
 Hessian Updated using BFGS Update


** CONSTRAINED OPTIMIZATION IN DELOCALIZED INTERNAL COORDINATES **
   Searching for a Minimum

   Optimization Cycle:   3

                       Coordinates (Angstroms)
     ATOM                X               Y               Z
      1  F         0.2972178366    1.4939037139    1.4574831432
      2  F         0.8150891359   -1.0517846406   -1.5911981770
      3  C        -0.3052953231    0.7343216978   -0.4053140240
      4  C         0.6928817636   -0.3168712925   -0.4409741461
      5  C        -1.7379366631    0.4840122051   -0.0364722037
      6  H        -0.0837842253    1.6777115863   -0.9075267251
      7  H         1.6445623746   -0.2620481859    0.0863896356
      8  H         0.1098167069    0.7110121627    1.9221785180
      9  H        -2.3471721867    0.2095215622   -0.9117542499
     10  H        -1.8338920991   -0.3457002589    0.6749615966
     11  H        -2.1977883201    1.3763244499    0.4039266326
   Point Group: c1    Number of degrees of freedom:    27


   Energy is   -317.454795945

              Constraints and their Current Values
                                        Value     Constraint
   Distance(Angs):        1   3             2.100000     2.100000
 Hessian Updated using BFGS Update

 25 Hessian modes will be used to form the next step
  Hessian Eigenvalues:
     0.035904    0.045001    0.045399    0.047950    0.049752    0.075025
     0.075493    0.077982    0.093809    0.109657    0.149945    0.159717
     0.160000    0.160806    0.165445    0.227039    0.329247    0.335408
     0.340286    0.341378    0.346836    0.349382    0.381245    0.506118
     0.616014

 Minimum Search - Taking Simple RFO Step
 Searching for Lamda that Minimizes Along All modes
 Value Taken    Lamda =  -0.00003989
 Step Taken.  Stepsize is  0.032514

                             Maximum     Tolerance    Cnvgd?
         Gradient           0.000724      0.000300      NO
         Displacement       0.017158      0.001200      NO
         Energy change      0.000115      0.000001      NO


 New Cartesian Coordinates Obtained by Inverse Iteration

 Displacement from previous Coordinates is:  0.040385
 ----------------------------------------------------------------
             Standard Nuclear Orientation (Angstroms)
    I     Atom           X                Y                Z
 ----------------------------------------------------------------
    1      F       0.2963800125     1.4985739465     1.4623582976
    2      F       0.8088333661    -1.0512778098    -1.5958188496
    3      C      -0.3028152024     0.7352292337    -0.3999709367
    4      C       0.6920138806    -0.3181818782    -0.4430380028
    5      C      -1.7371462104     0.4826318602    -0.0377925840
    6      H      -0.0825360039     1.6771248814    -0.9055286995
    7      H       1.6463507599    -0.2680563987     0.0802367075
    8      H       0.1101257250     0.7204199905     1.9311057597
    9      H      -2.3431635149     0.2073658307    -0.9149125664
   10      H      -1.8343198259    -0.3473931462     0.6733564374
   11      H      -2.2000239866     1.3739664899     0.4017044367
 ----------------------------------------------------------------
 Nuclear Repulsion Energy =   176.2905479767 hartrees
 There are       22 alpha and       20 beta electrons

                       Distance Matrix (Angstroms)
             F (  1)   F (  2)   C (  3)   C (  4)   C (  5)   H (  6)
   F (  2)  4.014573
   C (  3)  2.100000  2.420211
   C (  4)  2.662267  1.371124  1.449557
   C (  5)  2.723567  3.355941  1.500761  2.589661
   H (  6)  2.404651  2.952155  1.091457  2.189766  2.217547
   H (  7)  2.617950  2.030772  2.244199  1.089536  3.467783  2.782897
   H (  8)  0.927329  4.008279  2.367416  2.655908  2.710262  2.999816
   H (  9)  3.779659  3.461633  2.169522  3.116275  1.101076  2.696427
   H ( 10)  2.927456  3.553993  2.160928  2.762164  1.097323  3.108102
   H ( 11)  2.715243  4.350302  2.156402  3.455552  1.096308  2.506894
             H (  7)   H (  8)   H (  9)   H ( 10)
   H (  8)  2.600536
   H (  9)  4.139151  3.792318
   H ( 10)  3.531735  2.550103  1.757634
   H ( 11)  4.194542  2.846574  1.764915  1.780622
 
 Applying Cartesian multipole field
    Component          Value
    ---------          -----
     (2,0,0)        1.00000E-11
     (0,2,0)        2.00000E-11
     (0,0,2)       -3.00000E-11
 Nucleus-field energy     =    -0.0000000009 hartrees
 Requested basis set is 6-31G(d,p)
 There are 38 shells and 105 basis functions
 A cutoff of  1.0D-14 yielded    715 shell pairs
 There are      5606 function pairs
 Smallest overlap matrix eigenvalue = 4.97E-03
 Guess from superposition of atomic densities
 Warning:  Energy on first SCF cycle will be non-variational
 SAD guess density has 42.000000 electrons

 -----------------------------------------------------------------------
  General SCF calculation program by
  Eric Jon Sundstrom, Paul Horn, Yuezhi Mao, Dmitri Zuev, Alec White,
  David Stuck, Shaama M.S., Shane Yost, Joonho Lee, David Small,
  Daniel Levine, Susi Lehtola, Hugh Burton, Evgeny Epifanovsky
 -----------------------------------------------------------------------
 Exchange:     0.2000 Hartree-Fock + 0.0800 Slater + 0.7200 B88
 Correlation:  0.1900 VWN1RPA + 0.8100 LYP
 Using SG-1 standard quadrature grid
 using 12 threads for integral computing
 -------------------------------------------------------
 OpenMP Integral computing Module                
 Release: version 1.0, May 2013, Q-Chem Inc. Pittsburgh 
 -------------------------------------------------------
 -------------------------------------------------------
 OpenMP BLAS3 based DFT computing Module                
 Release: version 1.0, May 2013, Q-Chem Inc. Pittsburgh 
 -------------------------------------------------------
 A unrestricted SCF calculation will be
 performed using DIIS
 SCF converges when DIIS error is below 1.0e-06
 Alpha HF Exchange    Energy =  -3.75457930872797
 Beta HF Exchange     Energy =  -3.75457930872797
 DFT Correlation      Energy =  -1.84590621083441
 DFT Exchange         Energy = -29.60959805814347
 One-Electron (alpha) Energy = -391.59723484884228
 One-Electron (beta)  Energy = -391.59723484884228
 Total Coulomb        Energy = 327.93413161037165
 ---------------------------------------
  Cycle       Energy         DIIS error
 ---------------------------------------
    1    -317.9344529979      2.96e-02  
 Alpha HF Exchange    Energy =  -3.92406671276674
 Beta HF Exchange     Energy =  -3.70793422533024
 DFT Correlation      Energy =  -1.86572116908574
 DFT Exchange         Energy = -30.33714259448021
 One-Electron (alpha) Energy = -408.36971901080858
 One-Electron (beta)  Energy = -382.15813107429261
 Total Coulomb        Energy = 336.70208534871261
    2    -317.3700814622      4.09e-03  
 Alpha HF Exchange    Energy =  -3.84334888020372
 Beta HF Exchange     Energy =  -3.62917046465501
 DFT Correlation      Energy =  -1.83843449237546
 DFT Exchange         Energy = -29.69407391794442
 One-Electron (alpha) Energy = -404.56443201852471
 One-Electron (beta)  Energy = -378.31652948365308
 Total Coulomb        Energy = 328.23565751291864
    3    -317.3597837686      4.58e-03  
 Alpha HF Exchange    Energy =  -3.88759702420464
 Beta HF Exchange     Energy =  -3.67403246941168
 DFT Correlation      Energy =  -1.85130528251981
 DFT Exchange         Energy = -30.04295047811731
 One-Electron (alpha) Energy = -406.66801783503945
 One-Electron (beta)  Energy = -380.29723214902310
 Total Coulomb        Energy = 332.67676101630570
    4    -317.4538262462      4.50e-04  
 Alpha HF Exchange    Energy =  -3.88748822309291
 Beta HF Exchange     Energy =  -3.67148406599324
 DFT Correlation      Energy =  -1.85141774471478
 DFT Exchange         Energy = -30.03457180620857
 One-Electron (alpha) Energy = -406.73864835100017
 One-Electron (beta)  Energy = -380.26740543491644
 Total Coulomb        Energy = 332.70591625530659
    5    -317.4545513948      2.24e-04  
 Alpha HF Exchange    Energy =  -3.88776657910035
 Beta HF Exchange     Energy =  -3.67259037181868
 DFT Correlation      Energy =  -1.85101887496884
 DFT Exchange         Energy = -30.03798816255122
 One-Electron (alpha) Energy = -406.70836304367771
 One-Electron (beta)  Energy = -380.23614615589190
 Total Coulomb        Energy = 332.64853116916987
    6    -317.4547940430      8.01e-05  
 Alpha HF Exchange    Energy =  -3.88752341402888
 Beta HF Exchange     Energy =  -3.67219861211301
 DFT Correlation      Energy =  -1.85094331260735
 DFT Exchange         Energy = -30.03550334886634
 One-Electron (alpha) Energy = -406.70818146429167
 One-Electron (beta)  Energy = -380.22366593205737
 Total Coulomb        Energy = 332.63264761805397
    7    -317.4548204901      3.01e-05  
 Alpha HF Exchange    Energy =  -3.88765637921232
 Beta HF Exchange     Energy =  -3.67233187047680
 DFT Correlation      Energy =  -1.85094322827761
 DFT Exchange         Energy = -30.03645686127392
 One-Electron (alpha) Energy = -406.71552345903530
 One-Electron (beta)  Energy = -380.22565119431738
 Total Coulomb        Energy = 332.64319039857475
    8    -317.4548246182      8.51e-06  
 Alpha HF Exchange    Energy =  -3.88766793576618
 Beta HF Exchange     Energy =  -3.67233802062286
 DFT Correlation      Energy =  -1.85093259038790
 DFT Exchange         Energy = -30.03650330781126
 One-Electron (alpha) Energy = -406.71656066575497
 One-Electron (beta)  Energy = -380.22448279938203
 Total Coulomb        Energy = 332.64311234211243
    9    -317.4548250018      4.63e-06  
 Alpha HF Exchange    Energy =  -3.88765053307879
 Beta HF Exchange     Energy =  -3.67233316692876
 DFT Correlation      Energy =  -1.85092597098616
 DFT Exchange         Energy = -30.03640408939027
 One-Electron (alpha) Energy = -406.71597879580406
 One-Electron (beta)  Energy = -380.22363005971226
 Total Coulomb        Energy = 332.64154952604349
   10    -317.4548251140      8.63e-07  Convergence criterion met
 ---------------------------------------
 SCF time:   CPU 23.68s  wall 2.00s 
<S^2> =          2.004504187
 Alpha HF Exchange    Energy =  -3.88765053307879
 Beta HF Exchange     Energy =  -3.67233316692876
 DFT Correlation      Energy =  -1.85092597098616
 DFT Exchange         Energy = -30.03640408939027
 One-Electron (alpha) Energy = -406.71597879580406
 One-Electron (beta)  Energy = -380.22363005971226
 Total Coulomb        Energy = 332.64154952604349
 Nuclear repulsion Energy = 176.29054797581244
 SCF   energy in the final basis set =     -317.4548251140
 Total energy in the final basis set =     -317.4548251140
 
 --------------------------------------------------------------
 
                    Orbital Energies (a.u.)
 --------------------------------------------------------------
 
 Alpha MOs
 -- Occupied --
-24.700 -24.683 -10.251 -10.191 -10.184  -1.208  -1.189  -0.782
 -0.683  -0.580  -0.551  -0.496  -0.474  -0.451  -0.433  -0.416
 -0.402  -0.391  -0.375  -0.340  -0.192  -0.172
 -- Virtual --
  0.049   0.133   0.137   0.148   0.164   0.185   0.198   0.260
  0.323   0.511   0.522   0.547   0.554   0.586   0.599   0.657
  0.720   0.762   0.795   0.814   0.851   0.874   0.884   0.910
  0.924   1.027   1.107   1.154   1.211   1.218   1.298   1.313
  1.378   1.394   1.474   1.516   1.541   1.599   1.637   1.674
  1.680   1.738   1.821   1.840   1.853   1.864   1.911   1.957
  1.985   2.041   2.051   2.083   2.110   2.133   2.164   2.293
  2.367   2.377   2.407   2.463   2.494   2.598   2.638   2.649
  2.683   2.697   2.723   2.776   2.849   2.867   3.009   3.039
  3.180   3.360   3.383   3.447   3.466   3.648   3.922   4.225
  4.298   4.441   4.670
 
 Beta MOs
 -- Occupied --
-24.696 -24.677 -10.238 -10.184 -10.177  -1.202  -1.175  -0.754
 -0.661  -0.561  -0.543  -0.478  -0.459  -0.429  -0.410  -0.408
 -0.389  -0.382  -0.364  -0.329
 -- Virtual --
 -0.043  -0.023   0.056   0.138   0.145   0.166   0.174   0.193
  0.229   0.274   0.347   0.524   0.539   0.564   0.590   0.599
  0.625   0.698   0.733   0.774   0.804   0.826   0.859   0.881
  0.891   0.926   0.929   1.044   1.115   1.162   1.221   1.233
  1.310   1.324   1.386   1.402   1.498   1.526   1.563   1.602
  1.651   1.698   1.702   1.753   1.839   1.858   1.860   1.877
  1.925   1.975   2.021   2.046   2.063   2.092   2.127   2.145
  2.174   2.316   2.383   2.394   2.432   2.479   2.499   2.620
  2.658   2.669   2.693   2.700   2.728   2.787   2.858   2.875
  3.021   3.051   3.185   3.372   3.394   3.451   3.475   3.649
  3.927   4.240   4.321   4.455   4.694
 --------------------------------------------------------------
 
          Ground-State Mulliken Net Atomic Charges

     Atom                 Charge (a.u.)    Spin (a.u.)
  --------------------------------------------------------
      1 F                    -0.284548       0.041909
      2 F                    -0.273469       0.116844
      3 C                    -0.100909       0.893437
      4 C                     0.121026       0.907880
      5 C                    -0.330546      -0.048415
      6 H                     0.100608       0.012019
      7 H                     0.081922      -0.017430
      8 H                     0.360261       0.010829
      9 H                     0.122374       0.047768
     10 H                     0.090048       0.012285
     11 H                     0.113233       0.022874
  --------------------------------------------------------
  Sum of atomic charges =    -0.000000
  Sum of spin   charges =     2.000000

 -----------------------------------------------------------------
                    Cartesian Multipole Moments
 -----------------------------------------------------------------
    Charge (ESU x 10^10)
                -0.0000
    Dipole Moment (Debye)
         X      -0.6011      Y       0.2247      Z       2.2100
       Tot       2.3013
    Quadrupole Moments (Debye-Ang)
        XX     -28.4861     XY      -0.1054     YY     -32.2299
        XZ       0.8372     YZ      -2.8834     ZZ     -27.7506
    Octopole Moments (Debye-Ang^2)
       XXX      16.4433    XXY      -8.7205    XYY       3.1719
       YYY     -28.1350    XXZ       4.6403    XYZ      -2.1494
       YYZ       1.8349    XZZ       2.9537    YZZ      -7.6549
       ZZZ      26.2597
    Hexadecapole Moments (Debye-Ang^3)
      XXXX    -230.5444   XXXY      31.9708   XXYY     -67.4249
      XYYY      32.2421   YYYY    -174.4188   XXXZ      16.1853
      XXYZ     -17.8457   XYYZ       3.2738   YYYZ     -60.1391
      XXZZ     -71.3443   XYZZ      12.1989   YYZZ     -67.1523
      XZZZ      16.0142   YZZZ     -53.6659   ZZZZ    -173.8336
 -----------------------------------------------------------------
 Calculating analytic gradient of the SCF energy
 Gradient of SCF Energy
            1           2           3           4           5           6
    1  -0.0123053   0.0001491   0.0118447  -0.0001206   0.0000470   0.0000722
    2  -0.0167776  -0.0000859   0.0152184   0.0003648   0.0001411  -0.0000133
    3  -0.0362769   0.0000700   0.0362042   0.0005731   0.0003131   0.0002857
            7           8           9          10          11
    1   0.0001132   0.0003864  -0.0001239  -0.0000052  -0.0000577
    2  -0.0000604   0.0012942  -0.0000234  -0.0000756   0.0000177
    3  -0.0000721  -0.0012944   0.0001279   0.0000404   0.0000290
 Max gradient component =       3.628E-02
 RMS gradient           =       1.020E-02
 Gradient time:  CPU 8.27 s  wall 0.72 s
 Geometry Optimization Parameters
   NAtoms,    NIC,     NZ,  NCons,   NDum,   NFix, NCnnct, MaxDiis
       11      80       0       1       0       0       0       0

 Cartesian Hessian Update
 Hessian Updated using BFGS Update


** CONSTRAINED OPTIMIZATION IN DELOCALIZED INTERNAL COORDINATES **
   Searching for a Minimum

   Optimization Cycle:   4

                       Coordinates (Angstroms)
     ATOM                X               Y               Z
      1  F         0.2963800125    1.4985739465    1.4623582976
      2  F         0.8088333661   -1.0512778098   -1.5958188496
      3  C        -0.3028152024    0.7352292337   -0.3999709367
      4  C         0.6920138806   -0.3181818782   -0.4430380028
      5  C        -1.7371462104    0.4826318602   -0.0377925840
      6  H        -0.0825360039    1.6771248814   -0.9055286995
      7  H         1.6463507599   -0.2680563987    0.0802367075
      8  H         0.1101257250    0.7204199905    1.9311057597
      9  H        -2.3431635149    0.2073658307   -0.9149125664
     10  H        -1.8343198259   -0.3473931462    0.6733564374
     11  H        -2.2000239866    1.3739664899    0.4017044367
   Point Group: c1    Number of degrees of freedom:    27


   Energy is   -317.454825114

              Constraints and their Current Values
                                        Value     Constraint
   Distance(Angs):        1   3             2.100000     2.100000
 Hessian Updated using BFGS Update

 26 Hessian modes will be used to form the next step
  Hessian Eigenvalues:
     0.014160    0.045004    0.045149    0.047934    0.049754    0.075129
     0.075509    0.077916    0.092861    0.109681    0.150209    0.159829
     0.160000    0.160145    0.160648    0.165419    0.229172    0.329047
     0.335477    0.340376    0.341435    0.346719    0.349418    0.383310
     0.508252    0.834248

 Minimum Search - Taking Simple RFO Step
 Searching for Lamda that Minimizes Along All modes
 Value Taken    Lamda =  -0.00004097
 Step Taken.  Stepsize is  0.050762

                             Maximum     Tolerance    Cnvgd?
         Gradient           0.001315      0.000300      NO
         Displacement       0.027049      0.001200      NO
         Energy change     -0.000029      0.000001      NO


 New Cartesian Coordinates Obtained by Inverse Iteration

 Displacement from previous Coordinates is:  0.066881
 ----------------------------------------------------------------
             Standard Nuclear Orientation (Angstroms)
    I     Atom           X                Y                Z
 ----------------------------------------------------------------
    1      F       0.2955566636     1.5070888380     1.4692184200
    2      F       0.7975096383    -1.0490175391    -1.6039026980
    3      C      -0.2991786665     0.7360967960    -0.3913893815
    4      C       0.6908819156    -0.3208695927    -0.4461020633
    5      C      -1.7357417051     0.4801999814    -0.0394449713
    6      H      -0.0808029453     1.6756981442    -0.9024479147
    7      H       1.6490352782    -0.2775219212     0.0708360486
    8      H       0.1106329325     0.7348302108     1.9466971792
    9      H      -2.3351073843     0.2037084457    -0.9206433232
   10      H      -1.8355641066    -0.3500116926     0.6712021355
   11      H      -2.2035226204     1.3702013296     0.3976765688
 ----------------------------------------------------------------
 Nuclear Repulsion Energy =   176.1396496486 hartrees
 There are       22 alpha and       20 beta electrons

                       Distance Matrix (Angstroms)
             F (  1)   F (  2)   C (  3)   C (  4)   C (  5)   H (  6)
   F (  2)  4.028611
   C (  3)  2.100000  2.420650
   C (  4)  2.676970  1.371886  1.449273
   C (  5)  2.730703  3.347148  1.501020  2.587583
   H (  6)  2.407255  2.947465  1.091659  2.188614  2.216486
   H (  7)  2.640495  2.031022  2.244240  1.089570  3.470305  2.784725
   H (  8)  0.926588  4.032452  2.373730  2.678932  2.723728  3.006577
   H (  9)  3.785582  3.442304  2.169920  3.107569  1.100998  2.692392
   H ( 10)  2.937231  3.549336  2.160836  2.762634  1.097377  3.107903
   H ( 11)  2.722561  4.343401  2.156673  3.456770  1.096356  2.507906
             H (  7)   H (  8)   H (  9)   H ( 10)
   H (  8)  2.628763
   H (  9)  4.133764  3.805966
   H ( 10)  3.536683  2.567382  1.757874
   H ( 11)  4.202858  2.856305  1.765216  1.780265
 
 Applying Cartesian multipole field
    Component          Value
    ---------          -----
     (2,0,0)        1.00000E-11
     (0,2,0)        2.00000E-11
     (0,0,2)       -3.00000E-11
 Nucleus-field energy     =    -0.0000000009 hartrees
 Requested basis set is 6-31G(d,p)
 There are 38 shells and 105 basis functions
 A cutoff of  1.0D-14 yielded    715 shell pairs
 There are      5606 function pairs
 Smallest overlap matrix eigenvalue = 5.01E-03
 Guess from superposition of atomic densities
 Warning:  Energy on first SCF cycle will be non-variational
 SAD guess density has 42.000000 electrons

 -----------------------------------------------------------------------
  General SCF calculation program by
  Eric Jon Sundstrom, Paul Horn, Yuezhi Mao, Dmitri Zuev, Alec White,
  David Stuck, Shaama M.S., Shane Yost, Joonho Lee, David Small,
  Daniel Levine, Susi Lehtola, Hugh Burton, Evgeny Epifanovsky
 -----------------------------------------------------------------------
 Exchange:     0.2000 Hartree-Fock + 0.0800 Slater + 0.7200 B88
 Correlation:  0.1900 VWN1RPA + 0.8100 LYP
 Using SG-1 standard quadrature grid
 using 12 threads for integral computing
 -------------------------------------------------------
 OpenMP Integral computing Module                
 Release: version 1.0, May 2013, Q-Chem Inc. Pittsburgh 
 -------------------------------------------------------
 -------------------------------------------------------
 OpenMP BLAS3 based DFT computing Module                
 Release: version 1.0, May 2013, Q-Chem Inc. Pittsburgh 
 -------------------------------------------------------
 A unrestricted SCF calculation will be
 performed using DIIS
 SCF converges when DIIS error is below 1.0e-06
 Alpha HF Exchange    Energy =  -3.75439905402151
 Beta HF Exchange     Energy =  -3.75439905402151
 DFT Correlation      Energy =  -1.84576121669860
 DFT Exchange         Energy = -29.60928462227557
 One-Electron (alpha) Energy = -391.44612986350683
 One-Electron (beta)  Energy = -391.44612986350683
 Total Coulomb        Energy = 327.78355325832354
 ---------------------------------------
  Cycle       Energy         DIIS error
 ---------------------------------------
    1    -317.9329007680      2.96e-02  
 Alpha HF Exchange    Energy =  -3.92414354391430
 Beta HF Exchange     Energy =  -3.70785736156258
 DFT Correlation      Energy =  -1.86563068727941
 DFT Exchange         Energy = -30.33720942698291
 One-Electron (alpha) Energy = -408.22215905784014
 One-Electron (beta)  Energy = -382.01542007966339
 Total Coulomb        Energy = 336.56267620926809
    2    -317.3700943003      4.09e-03  
 Alpha HF Exchange    Energy =  -3.84340623415819
 Beta HF Exchange     Energy =  -3.62910510472067
 DFT Correlation      Energy =  -1.83832510023498
 DFT Exchange         Energy = -29.69403264335890
 One-Electron (alpha) Energy = -404.41363162172905
 One-Electron (beta)  Energy = -378.17080026280848
 Total Coulomb        Energy = 328.08976386964565
    3    -317.3598874497      4.58e-03  
 Alpha HF Exchange    Energy =  -3.88767389561116
 Beta HF Exchange     Energy =  -3.67394655279031
 DFT Correlation      Energy =  -1.85120307410994
 DFT Exchange         Energy = -30.04294137288971
 One-Electron (alpha) Energy = -406.51973644896572
 One-Electron (beta)  Energy = -380.15253106143717
 Total Coulomb        Energy = 332.53452211023819
    4    -317.4538606479      4.49e-04  
 Alpha HF Exchange    Energy =  -3.88756382514549
 Beta HF Exchange     Energy =  -3.67139984849768
 DFT Correlation      Energy =  -1.85131243153156
 DFT Exchange         Energy = -30.03455698347909
 One-Electron (alpha) Energy = -406.58992764240719
 One-Electron (beta)  Energy = -380.12227629227044
 Total Coulomb        Energy = 332.56280635989049
    5    -317.4545810158      2.24e-04  
 Alpha HF Exchange    Energy =  -3.88784232656480
 Beta HF Exchange     Energy =  -3.67250835998142
 DFT Correlation      Energy =  -1.85091358756927
 DFT Exchange         Energy = -30.03798051558875
 One-Electron (alpha) Energy = -406.55971844797540
 One-Electron (beta)  Energy = -380.09110691929897
 Total Coulomb        Energy = 332.50559724426824
    6    -317.4548232650      8.03e-05  
 Alpha HF Exchange    Energy =  -3.88759963066620
 Beta HF Exchange     Energy =  -3.67211577637924
 DFT Correlation      Energy =  -1.85083794427640
 DFT Exchange         Energy = -30.03549450047242
 One-Electron (alpha) Energy = -406.55957310985247
 One-Electron (beta)  Energy = -380.07859804150888
 Total Coulomb        Energy = 332.48971952482816
    7    -317.4548498307      3.01e-05  
 Alpha HF Exchange    Energy =  -3.88773241619553
 Beta HF Exchange     Energy =  -3.67224860352509
 DFT Correlation      Energy =  -1.85083786135608
 DFT Exchange         Energy = -30.03644599389988
 One-Electron (alpha) Energy = -406.56692329294015
 One-Electron (beta)  Energy = -380.08057619546230
 Total Coulomb        Energy = 332.50026074771438
    8    -317.4548539680      8.48e-06  
 Alpha HF Exchange    Energy =  -3.88774387833218
 Beta HF Exchange     Energy =  -3.67225482691120
 DFT Correlation      Energy =  -1.85082714225739
 DFT Exchange         Energy = -30.03649215231187
 One-Electron (alpha) Energy = -406.56795328685575
 One-Electron (beta)  Energy = -380.07939777659095
 Total Coulomb        Energy = 332.50016506517380
    9    -317.4548543504      4.62e-06  
 Alpha HF Exchange    Energy =  -3.88772649412949
 Beta HF Exchange     Energy =  -3.67224989687301
 DFT Correlation      Energy =  -1.85082055922098
 DFT Exchange         Energy = -30.03639285238261
 One-Electron (alpha) Energy = -406.56737643041947
 One-Electron (beta)  Energy = -380.07854864481942
 Total Coulomb        Energy = 332.49861076808952
   10    -317.4548544621      8.64e-07  Convergence criterion met
 ---------------------------------------
 SCF time:   CPU 23.51s  wall 2.00s 
<S^2> =          2.004497332
 Alpha HF Exchange    Energy =  -3.88772649412949
 Beta HF Exchange     Energy =  -3.67224989687301
 DFT Correlation      Energy =  -1.85082055922098
 DFT Exchange         Energy = -30.03639285238261
 One-Electron (alpha) Energy = -406.56737643041947
 One-Electron (beta)  Energy = -380.07854864481942
 Total Coulomb        Energy = 332.49861076808952
 Nuclear repulsion Energy = 176.13964964766856
 SCF   energy in the final basis set =     -317.4548544621
 Total energy in the final basis set =     -317.4548544621
 
 --------------------------------------------------------------
 
                    Orbital Energies (a.u.)
 --------------------------------------------------------------
 
 Alpha MOs
 -- Occupied --
-24.700 -24.682 -10.251 -10.191 -10.184  -1.208  -1.189  -0.782
 -0.683  -0.580  -0.551  -0.495  -0.474  -0.451  -0.433  -0.416
 -0.402  -0.391  -0.374  -0.339  -0.192  -0.172
 -- Virtual --
  0.049   0.133   0.137   0.148   0.164   0.185   0.199   0.260
  0.323   0.511   0.522   0.548   0.553   0.585   0.600   0.657
  0.720   0.763   0.796   0.816   0.851   0.874   0.884   0.910
  0.925   1.028   1.108   1.153   1.211   1.218   1.297   1.313
  1.379   1.393   1.474   1.517   1.541   1.599   1.637   1.673
[...]
   Distance(Angs):        1   3             2.100000     2.100000
 Hessian Updated using BFGS Update

 26 Hessian modes will be used to form the next step
  Hessian Eigenvalues:
     0.003738    0.006691    0.009311    0.010311    0.012484    0.044807
     0.051753    0.074932    0.075502    0.098986    0.114082    0.150310
     0.158454    0.159895    0.160329    0.161959    0.222435    0.328901
     0.335438    0.339917    0.341332    0.346449    0.348098    0.377896
     0.497473    0.508132

 Minimum Search - Taking Simple RFO Step
 Searching for Lamda that Minimizes Along All modes
 Value Taken    Lamda =  -0.00000156
 Step Taken.  Stepsize is  0.014128

                             Maximum     Tolerance    Cnvgd?
         Gradient           0.000106      0.000300     YES
         Displacement       0.008044      0.001200      NO
         Energy change     -0.000002      0.000001      NO


 New Cartesian Coordinates Obtained by Inverse Iteration

 Displacement from previous Coordinates is:  0.014587
 ----------------------------------------------------------------
             Standard Nuclear Orientation (Angstroms)
    I     Atom           X                Y                Z
 ----------------------------------------------------------------
    1      F       0.2243388413     1.2303359566     1.5542186049
    2      F       0.7983212544    -0.9382545068    -1.7913645251
    3      C      -0.3192969747     0.6898829230    -0.4008698470
    4      C       0.6478751916    -0.3811434304    -0.5471079198
    5      C      -1.7662216377     0.4246635496    -0.1192383706
    6      H      -0.0617463914     1.6804249024    -0.7823443429
    7      H       1.5628669081    -0.4551842380     0.0362256438
    8      H       0.4259470290     1.4035473847     2.4519546698
    9      H      -2.3236003434     0.1842117274    -1.0386801103
   10      H      -1.8855618394    -0.4270485717     0.5584180733
   11      H      -2.2492230379     1.2989673032     0.3304881240
 ----------------------------------------------------------------
 Nuclear Repulsion Energy =   175.0313106730 hartrees
 There are       22 alpha and       20 beta electrons

                       Distance Matrix (Angstroms)
             F (  1)   F (  2)   C (  3)   C (  4)   C (  5)   H (  6)
   F (  2)  4.028048
   C (  3)  2.100000  2.415239
   C (  4)  2.681757  1.371562  1.450484
   C (  5)  2.722480  3.351184  1.497748  2.580748
   H (  6)  2.396654  2.935187  1.092258  2.192935  2.218531
   H (  7)  2.633807  2.039111  2.246057  1.087644  3.446902  2.805397
   H (  8)  0.936257  4.860911  3.033696  3.496963  3.517791  3.282559
   H (  9)  3.782789  3.401890  2.163270  3.064463  1.101754  2.724031
   H ( 10)  2.861857  3.603615  2.149641  2.764525  1.094931  3.092797
   H ( 11)  2.760568  4.335314  2.151856  3.462098  1.095423  2.483739
             H (  7)   H (  8)   H (  9)   H ( 10)
   H (  8)  3.253186
   H (  9)  4.082754  4.607746
   H ( 10)  3.487856  3.504231  1.765287
   H ( 11)  4.206622  3.415859  1.767154  1.778576
 
 Applying Cartesian multipole field
    Component          Value
    ---------          -----
     (2,0,0)        1.00000E-11
     (0,2,0)        2.00000E-11
     (0,0,2)       -3.00000E-11
 Nucleus-field energy     =    -0.0000000026 hartrees
 Requested basis set is 6-31G(d,p)
 There are 38 shells and 105 basis functions
 A cutoff of  1.0D-14 yielded    711 shell pairs
 There are      5578 function pairs
 Smallest overlap matrix eigenvalue = 5.05E-03
 Guess from superposition of atomic densities
 Warning:  Energy on first SCF cycle will be non-variational
 SAD guess density has 42.000000 electrons

 -----------------------------------------------------------------------
  General SCF calculation program by
  Eric Jon Sundstrom, Paul Horn, Yuezhi Mao, Dmitri Zuev, Alec White,
  David Stuck, Shaama M.S., Shane Yost, Joonho Lee, David Small,
  Daniel Levine, Susi Lehtola, Hugh Burton, Evgeny Epifanovsky
 -----------------------------------------------------------------------
 Exchange:     0.2000 Hartree-Fock + 0.0800 Slater + 0.7200 B88
 Correlation:  0.1900 VWN1RPA + 0.8100 LYP
 Using SG-1 standard quadrature grid
 using 12 threads for integral computing
 -------------------------------------------------------
 OpenMP Integral computing Module                
 Release: version 1.0, May 2013, Q-Chem Inc. Pittsburgh 
 -------------------------------------------------------
 -------------------------------------------------------
 OpenMP BLAS3 based DFT computing Module                
 Release: version 1.0, May 2013, Q-Chem Inc. Pittsburgh 
 -------------------------------------------------------
 A unrestricted SCF calculation will be
 performed using DIIS
 SCF converges when DIIS error is below 1.0e-06
 Alpha HF Exchange    Energy =  -3.75214426622928
 Beta HF Exchange     Energy =  -3.75214426622928
 DFT Correlation      Energy =  -1.84414648011786
 DFT Exchange         Energy = -29.60571800920623
 One-Electron (alpha) Energy = -390.34568057733173
 One-Electron (beta)  Energy = -390.34568057733173
 Total Coulomb        Energy = 326.69612111064458
 ---------------------------------------
  Cycle       Energy         DIIS error
 ---------------------------------------
    1    -317.9180823954      2.94e-02  
 Alpha HF Exchange    Energy =  -3.92250912724245
 Beta HF Exchange     Energy =  -3.71300538979208
 DFT Correlation      Energy =  -1.86492871031431
 DFT Exchange         Energy = -30.34606443009676
 One-Electron (alpha) Energy = -407.32627156888714
 One-Electron (beta)  Energy = -381.37056391759324
 Total Coulomb        Energy = 336.14543085983593
    2    -317.3666016137      4.23e-03  
 Alpha HF Exchange    Energy =  -3.83568998335443
 Beta HF Exchange     Energy =  -3.63286659764090
 DFT Correlation      Energy =  -1.83558565377449
 DFT Exchange         Energy = -29.67548422800823
 One-Electron (alpha) Energy = -402.94636394418063
 One-Electron (beta)  Energy = -377.19386593650830
 Total Coulomb        Energy = 326.74242227242058
    3    -317.3461234007      4.95e-03  
 Alpha HF Exchange    Energy =  -3.88354617916430
 Beta HF Exchange     Energy =  -3.67763021061414
 DFT Correlation      Energy =  -1.84986634884789
 DFT Exchange         Energy = -30.03921133083292
 One-Electron (alpha) Energy = -405.41531601837784
 One-Electron (beta)  Energy = -379.39176132330579
 Total Coulomb        Energy = 331.77061415275921
    4    -317.4554065880      3.69e-04  
 Alpha HF Exchange    Energy =  -3.88377886101635
 Beta HF Exchange     Energy =  -3.67671575419056
 DFT Correlation      Energy =  -1.84990301454541
 DFT Exchange         Energy = -30.03722407208856
 One-Electron (alpha) Energy = -405.46496858412752
 One-Electron (beta)  Energy = -379.36823450848203
 Total Coulomb        Energy = 331.79359960408152
    5    -317.4559145200      1.85e-04  
 Alpha HF Exchange    Energy =  -3.88377803774657
 Beta HF Exchange     Energy =  -3.67712416471629
 DFT Correlation      Energy =  -1.84952977711833
 DFT Exchange         Energy = -30.03750229516330
 One-Electron (alpha) Energy = -405.43971412964191
 One-Electron (beta)  Energy = -379.33803027390610
 Total Coulomb        Energy = 331.73828212059033
    6    -317.4560858873      4.90e-05  
 Alpha HF Exchange    Energy =  -3.88364853212521
 Beta HF Exchange     Energy =  -3.67693194145826
 DFT Correlation      Energy =  -1.84948951105760
 DFT Exchange         Energy = -30.03622722401481
 One-Electron (alpha) Energy = -405.44312592506202
 One-Electron (beta)  Energy = -379.33162534968346
 Total Coulomb        Energy = 331.73364003642882
    7    -317.4560977766      2.32e-05  
 Alpha HF Exchange    Energy =  -3.88376906163155
 Beta HF Exchange     Energy =  -3.67709632372732
 DFT Correlation      Energy =  -1.84948565091362
 DFT Exchange         Energy = -30.03724043577581
 One-Electron (alpha) Energy = -405.44736890048995
 One-Electron (beta)  Energy = -379.33371281868301
 Total Coulomb        Energy = 331.74126232229372
    8    -317.4561001985      8.65e-06  
 Alpha HF Exchange    Energy =  -3.88374969223292
 Beta HF Exchange     Energy =  -3.67706652126700
 DFT Correlation      Energy =  -1.84947593056666
 DFT Exchange         Energy = -30.03705455042551
 One-Electron (alpha) Energy = -405.44783589667412
 One-Electron (beta)  Energy = -379.33246234086926
 Total Coulomb        Energy = 331.74023371786456
    9    -317.4561005438      3.98e-06  
 Alpha HF Exchange    Energy =  -3.88373864215024
 Beta HF Exchange     Energy =  -3.67707519021165
 DFT Correlation      Energy =  -1.84947097693391
 DFT Exchange         Energy = -30.03703093138093
 One-Electron (alpha) Energy = -405.44717721875509
 One-Electron (beta)  Energy = -379.33198543082784
 Total Coulomb        Energy = 331.73906709621843
   10    -317.4561006237      8.86e-07  Convergence criterion met
 ---------------------------------------
 SCF time:   CPU 23.29s  wall 2.00s 
<S^2> =          2.004557385
 Alpha HF Exchange    Energy =  -3.88373864215024
 Beta HF Exchange     Energy =  -3.67707519021165
 DFT Correlation      Energy =  -1.84947097693391
 DFT Exchange         Energy = -30.03703093138093
 One-Electron (alpha) Energy = -405.44717721875509
 One-Electron (beta)  Energy = -379.33198543082784
 Total Coulomb        Energy = 331.73906709621843
 Nuclear repulsion Energy = 175.03131067037776
 SCF   energy in the final basis set =     -317.4561006237
 Total energy in the final basis set =     -317.4561006237
 
 --------------------------------------------------------------
 
                    Orbital Energies (a.u.)
 --------------------------------------------------------------
 
 Alpha MOs
 -- Occupied --
-24.690 -24.676 -10.241 -10.187 -10.174  -1.194  -1.182  -0.775
 -0.673  -0.579  -0.544  -0.479  -0.470  -0.436  -0.414  -0.401
 -0.393  -0.388  -0.365  -0.332  -0.181  -0.176
 -- Virtual --
  0.051   0.134   0.148   0.151   0.169   0.189   0.212   0.267
  0.328   0.519   0.528   0.550   0.556   0.597   0.611   0.666
  0.726   0.744   0.777   0.814   0.856   0.870   0.895   0.915
  0.937   1.048   1.113   1.183   1.211   1.227   1.297   1.340
  1.376   1.398   1.485   1.530   1.561   1.621   1.667   1.730
  1.752   1.811   1.830   1.854   1.867   1.871   1.896   1.953
  1.957   2.009   2.051   2.078   2.083   2.132   2.164   2.280
  2.344   2.387   2.418   2.465   2.485   2.599   2.636   2.663
  2.674   2.694   2.712   2.773   2.861   2.876   3.022   3.045
  3.190   3.373   3.383   3.459   3.476   3.620   3.934   4.237
  4.375   4.454   4.677
 
 Beta MOs
 -- Occupied --
-24.689 -24.670 -10.228 -10.174 -10.173  -1.191  -1.168  -0.747
 -0.651  -0.561  -0.528  -0.464  -0.455  -0.414  -0.402  -0.399
 -0.382  -0.380  -0.355  -0.321
 -- Virtual --
 -0.034  -0.023   0.062   0.140   0.155   0.171   0.182   0.197
  0.241   0.281   0.352   0.531   0.547   0.564   0.596   0.609
  0.638   0.707   0.739   0.755   0.791   0.825   0.866   0.880
  0.902   0.929   0.944   1.068   1.122   1.189   1.216   1.245
  1.306   1.359   1.380   1.403   1.514   1.537   1.582   1.633
  1.693   1.750   1.768   1.821   1.839   1.863   1.874   1.882
  1.912   1.971   1.974   2.044   2.056   2.090   2.105   2.138
  2.175   2.303   2.360   2.399   2.445   2.482   2.499   2.622
  2.652   2.680   2.693   2.701   2.719   2.784   2.869   2.885
  3.033   3.057   3.196   3.385   3.395   3.463   3.485   3.626
  3.940   4.254   4.394   4.468   4.700
 --------------------------------------------------------------
 
          Ground-State Mulliken Net Atomic Charges

     Atom                 Charge (a.u.)    Spin (a.u.)
  --------------------------------------------------------
      1 F                    -0.299443      -0.008611
      2 F                    -0.277466       0.113412
      3 C                    -0.080716       0.907341
      4 C                     0.140206       0.914700
      5 C                    -0.319263      -0.048203
      6 H                     0.094501       0.011285
      7 H                     0.079512      -0.020938
      8 H                     0.336837       0.046780
      9 H                     0.114600       0.050826
     10 H                     0.108387       0.014810
     11 H                     0.102845       0.018597
  --------------------------------------------------------
  Sum of atomic charges =     0.000000
  Sum of spin   charges =     2.000000

 -----------------------------------------------------------------
                    Cartesian Multipole Moments
 -----------------------------------------------------------------
    Charge (ESU x 10^10)
                -0.0000
    Dipole Moment (Debye)
         X       0.0448      Y       1.5696      Z       3.1124
       Tot       3.4861
    Quadrupole Moments (Debye-Ang)
        XX     -28.2247     XY       0.9338     YY     -28.6986
        XZ       2.7094     YZ       1.5363     ZZ     -24.6001
    Octopole Moments (Debye-Ang^2)
       XXX      19.1757    XXY      -7.0830    XYY       6.1138
       YYY     -18.5734    XXZ       7.3888    XYZ       0.8051
       YYZ      12.1845    XZZ       7.9485    YZZ       6.3148
       ZZZ      45.9913
    Hexadecapole Moments (Debye-Ang^3)
      XXXX    -233.1979   XXXY      31.2454   XXYY     -62.4278
      XYYY      33.8277   YYYY    -142.4582   XXXZ      15.0693
      XXYZ     -16.5434   XYYZ       7.3403   YYYZ     -45.5175
      XXZZ     -75.2614   XYZZ      19.7184   YYZZ     -47.0104
      XZZZ      28.8397   YZZZ     -20.9851   ZZZZ    -168.4614
 -----------------------------------------------------------------
 Calculating analytic gradient of the SCF energy
 Gradient of SCF Energy
            1           2           3           4           5           6
    1  -0.0094297  -0.0000112   0.0094794   0.0000155   0.0000263  -0.0000258
    2  -0.0094574   0.0000017   0.0093193   0.0000470   0.0000281   0.0000167
    3  -0.0341191  -0.0000285   0.0341690   0.0000209   0.0000831  -0.0000347
            7           8           9          10          11
    1  -0.0000230  -0.0000065  -0.0000219  -0.0000159   0.0000128
    2  -0.0000182   0.0000102   0.0000709  -0.0000296   0.0000114
    3  -0.0000016  -0.0000172  -0.0000177  -0.0000596   0.0000054
 Max gradient component =       3.417E-02
 RMS gradient           =       9.023E-03
 Gradient time:  CPU 8.18 s  wall 0.70 s
 Geometry Optimization Parameters
   NAtoms,    NIC,     NZ,  NCons,   NDum,   NFix, NCnnct, MaxDiis
       11      80       0       1       0       0       0       0

 Cartesian Hessian Update
 Hessian Updated using BFGS Update


** CONSTRAINED OPTIMIZATION IN DELOCALIZED INTERNAL COORDINATES **
   Searching for a Minimum

   Optimization Cycle:  33

                       Coordinates (Angstroms)
     ATOM                X               Y               Z
      1  F         0.2243388413    1.2303359566    1.5542186049
      2  F         0.7983212544   -0.9382545068   -1.7913645251
      3  C        -0.3192969747    0.6898829230   -0.4008698470
      4  C         0.6478751916   -0.3811434304   -0.5471079198
      5  C        -1.7662216377    0.4246635496   -0.1192383706
      6  H        -0.0617463914    1.6804249024   -0.7823443429
      7  H         1.5628669081   -0.4551842380    0.0362256438
      8  H         0.4259470290    1.4035473847    2.4519546698
      9  H        -2.3236003434    0.1842117274   -1.0386801103
     10  H        -1.8855618394   -0.4270485717    0.5584180733
     11  H        -2.2492230379    1.2989673032    0.3304881240
   Point Group: c1    Number of degrees of freedom:    27


   Energy is   -317.456100624

              Constraints and their Current Values
                                        Value     Constraint
   Distance(Angs):        1   3             2.100000     2.100000
 Hessian Updated using BFGS Update

 26 Hessian modes will be used to form the next step
  Hessian Eigenvalues:
     0.003715    0.005454    0.009423    0.010195    0.012488    0.044277
     0.051705    0.071532    0.075450    0.101391    0.112400    0.144316
     0.158496    0.159707    0.160265    0.161905    0.222928    0.328709
     0.335102    0.339888    0.341320    0.345752    0.347994    0.376432
     0.499562    0.508776

 Minimum Search - Taking Simple RFO Step
 Searching for Lamda that Minimizes Along All modes
 Value Taken    Lamda =   0.00000000
 Step Taken.  Stepsize is  0.006376

                             Maximum     Tolerance    Cnvgd?
         Gradient           0.000060      0.000300     YES
         Displacement       0.003802      0.001200      NO
         Energy change     -0.000001      0.000001     YES


                       Distance Matrix (Angstroms)
             F (  1)   F (  2)   C (  3)   C (  4)   C (  5)   H (  6)
   F (  2)  4.028048
   C (  3)  2.100000  2.415239
   C (  4)  2.681757  1.371562  1.450484
   C (  5)  2.722480  3.351184  1.497748  2.580748
   H (  6)  2.396654  2.935187  1.092258  2.192935  2.218531
   H (  7)  2.633807  2.039111  2.246057  1.087644  3.446902  2.805397
   H (  8)  0.936257  4.860911  3.033696  3.496963  3.517791  3.282559
   H (  9)  3.782789  3.401890  2.163270  3.064463  1.101754  2.724031
   H ( 10)  2.861857  3.603615  2.149641  2.764525  1.094931  3.092797
   H ( 11)  2.760568  4.335314  2.151856  3.462098  1.095423  2.483739
             H (  7)   H (  8)   H (  9)   H ( 10)
   H (  8)  3.253186
   H (  9)  4.082754  4.607746
   H ( 10)  3.487856  3.504231  1.765287
   H ( 11)  4.206622  3.415859  1.767154  1.778576
 
 Final energy is   -317.456100623663     


 ******************************
 **  OPTIMIZATION CONVERGED  **
 ******************************

                       Coordinates (Angstroms)
     ATOM                X               Y               Z
      1  F         0.2243388413    1.2303359566    1.5542186049
      2  F         0.7983212544   -0.9382545068   -1.7913645251
      3  C        -0.3192969747    0.6898829230   -0.4008698470
      4  C         0.6478751916   -0.3811434304   -0.5471079198
      5  C        -1.7662216377    0.4246635496   -0.1192383706
      6  H        -0.0617463914    1.6804249024   -0.7823443429
      7  H         1.5628669081   -0.4551842380    0.0362256438
      8  H         0.4259470290    1.4035473847    2.4519546698
      9  H        -2.3236003434    0.1842117274   -1.0386801103
     10  H        -1.8855618394   -0.4270485717    0.5584180733
     11  H        -2.2492230379    1.2989673032    0.3304881240

Z-matrix Print:
$molecule
0 3
C 
H  1 1.092258
C  1 1.450484 2 118.502068
H  3 1.087644 1 123.858171 2 72.851037 0
F  3 1.371562 1 117.679687 2 -75.412164 0
C  1 1.497748 2 117.004198 3 -163.067008 0
H  6 1.094931 1 111.064296 2 -160.570814 0
H  6 1.095423 1 111.212582 2 -39.517745 0
H  6 1.101754 1 111.743969 2 80.087726 0
F  1 2.100000 2 91.760340 3 98.243157 0
H  10 0.936257 1 174.903447 2 164.921271 0
$end

PES scan, value:    2.1000 energy: -317.4561006237
------- Summary of potential scan: ------ 
    2.1000      -317.4561006237
----------------------------------------- 
Archival summary:
1\1\hpc0244\JobtypUnspecified\ProcedureUnspecified\6-31G**\236(3)\knomura\WedMar1317:45:432019WedMar1317:45:432019\0\\#,JobtypUnspecified,ProcedureUnspecified,6-31G**,\\0,3\C\H,1,1.09226\C,1,1.45048,2,118.502\H,3,1.08764,1,123.858,2,72.851,0\F,3,1.37156,1,117.68,2,-75.4122,0\C,1,1.49775,2,117.004,3,-163.067,0\H,6,1.09493,1,111.064,2,-160.571,0\H,6,1.09542,1,111.213,2,-39.5177,0\H,6,1.10175,1,111.744,2,80.0877,0\F,1,2.1,2,91.7603,3,98.2432,0\H,10,0.936257,1,174.903,2,164.921,0\\\@

 Total job time:  109.96s(wall), 1187.41s(cpu) 
 Wed Mar 13 17:45:43 2019

        *************************************************************
        *                                                           *
        *  Thank you very much for using Q-Chem.  Have a nice day.  *
        *                                                           *
        *************************************************************


