
Running Job 1 of 1 halogens/Flourine/03/F_1_3.xyz.data/inputs/bond_singlet_0.7.in
qchem halogens/Flourine/03/F_1_3.xyz.data/inputs/bond_singlet_0.7.in_356.0 /staging/scratch/2868761/qchem356/ 1
/usr/usc/qchem/5.1.1/exe/qcprog.exe_s halogens/Flourine/03/F_1_3.xyz.data/inputs/bond_singlet_0.7.in_356.0 /staging/scratch/2868761/qchem356/
Check license passed

                  Welcome to Q-Chem
     A Quantum Leap Into The Future Of Chemistry


 Q-Chem 5.1, Q-Chem, Inc., Pleasanton, CA (2018)

 Yihan Shao,  Zhengting Gan,  E. Epifanovsky,  A. T. B. Gilbert,  M. Wormit,  
 J. Kussmann,  A. W. Lange,  A. Behn,  Jia Deng,  Xintian Feng,  D. Ghosh,  
 M. Goldey,  P. R. Horn,  L. D. Jacobson,  I. Kaliman,  T. Kus,  A. Landau,  
 Jie Liu,  E. I. Proynov,  R. M. Richard,  R. P. Steele,  E. J. Sundstrom,  
 H. L. Woodcock III,  P. M. Zimmerman,  D. Zuev,  B. Albrecht,  E. Alguire,  
 S. A. Baeppler,  D. Barton,  Z. Benda,  Y. A. Bernard,  E. J. Berquist,  
 K. B. Bravaya,  H. Burton,  D. Casanova,  Chun-Min Chang,  Yunqing Chen,  
 A. Chien,  K. D. Closser,  M. P. Coons,  S. Coriani,  S. Dasgupta,  
 A. L. Dempwolff,  M. Diedenhofen,  Hainam Do,  R. G. Edgar,  Po-Tung Fang,  
 S. Faraji,  S. Fatehi,  Qingguo Feng,  K. D. Fenk,  J. Fosso-Tande,  
 Qinghui Ge,  A. Ghysels,  G. Gidofalvi,  J. Gomes,  J. Gonthier,  A. Gunina,  
 D. Hait,  M. W. D. Hanson-Heine,  P. H. P. Harbach,  A. W. Hauser,  
 J. E. Herr,  E. G. Hohenstein,  Z. C. Holden,  Kerwin Hui,  B. C. Huynh,  
 T.-C. Jagau,  Hyunjun Ji,  B. Kaduk,  K. Khistyaev,  Jaehoon Kim,  
 P. Klunzinger,  K. Koh,  D. Kosenkov,  L. Koulias,  T. Kowalczyk,  
 C. M. Krauter,  A. Kunitsa,  Ka Un Lao,  A. Laurent,  K. V. Lawler,  
 Joonho Lee,  D. Lefrancois,  S. Lehtola,  D. S. Levine,  Yi-Pei Li,  
 You-Sheng Lin,  Fenglai Liu,  E. Livshits,  A. Luenser,  P. Manohar,  
 E. Mansoor,  S. F. Manzer,  Shan-Ping Mao,  Yuezhi Mao,  N. Mardirossian,  
 A. V. Marenich,  T. Markovich,  L. A. Martinez-Martinez,  S. A. Maurer,  
 N. J. Mayhall,  S. C. McKenzie,  J.-M. Mewes,  A. F. Morrison,  
 J. W. Mullinax,  K. Nanda,  T. S. Nguyen-Beck,  R. Olivares-Amaya,  
 J. A. Parkhill,  T. M. Perrine,  F. Plasser,  P. Pokhilko,  S. Prager,  
 A. Prociuk,  E. Ramos,  D. R. Rehn,  F. Rob,  M. Schneider,  N. Sergueev,  
 S. M. Sharada,  S. Sharma,  D. W. Small,  T. Stauch,  T. Stein,  
 Yu-Chuan Su,  A. J. W. Thom,  A. Tkatchenko,  T. Tsuchimochi,  N. M. Tubman,  
 L. Vogt,  M. L. Vidal,  O. Vydrov,  M. A. Watson,  J. Wenzel,  
 M. de Wergifosse,  T. A. Wesolowski,  A. White,  J. Witte,  A. Yamada,  
 Jun Yang,  K. Yao,  S. Yeganeh,  S. R. Yost,  Zhi-Qiang You,  A. Zech,  
 Igor Ying Zhang,  Xing Zhang,  Yan Zhao,  Ying Zhu,  B. R. Brooks,  
 G. K. L. Chan,  C. J. Cramer,  M. S. Gordon,  W. J. Hehre,  A. Klamt,  
 M. W. Schmidt,  C. D. Sherrill,  D. G. Truhlar,  A. Aspuru-Guzik,  R. Baer,  
 A. T. Bell,  N. A. Besley,  Jeng-Da Chai,  A. E. DePrince, III,  
 R. A. DiStasio Jr.,  A. Dreuw,  B. D. Dunietz,  T. R. Furlani,  
 Chao-Ping Hsu,  Yousung Jung,  Jing Kong,  D. S. Lambrecht,  WanZhen Liang,  
 C. Ochsenfeld,  V. A. Rassolov,  L. V. Slipchenko,  J. E. Subotnik,  
 T. Van Voorhis,  J. M. Herbert,  A. I. Krylov,  P. M. W. Gill,  M. Head-Gordon

 Contributors to earlier versions of Q-Chem not listed above: 
 R. D. Adamson,  B. Austin,  J. Baker,  G. J. O. Beran,  K. Brandhorst,  
 S. T. Brown,  E. F. C. Byrd,  A. K. Chakraborty,  C.-L. Cheng,  
 Siu Hung Chien,  D. M. Chipman,  D. L. Crittenden,  H. Dachsel,  
 R. J. Doerksen,  A. D. Dutoi,  L. Fusti-Molnar,  W. A. Goddard III,  
 A. Golubeva-Zadorozhnaya,  S. R. Gwaltney,  G. Hawkins,  A. Heyden,  
 S. Hirata,  G. Kedziora,  F. J. Keil,  C. Kelley,  Jihan Kim,  R. A. King,  
 R. Z. Khaliullin,  P. P. Korambath,  W. Kurlancheek,  A. M. Lee,  M. S. Lee,  
 S. V. Levchenko,  Ching Yeh Lin,  D. Liotard,  R. C. Lochan,  I. Lotan,  
 P. E. Maslen,  N. Nair,  D. P. O'Neill,  D. Neuhauser,  E. Neuscamman,  
 C. M. Oana,  R. Olson,  B. Peters,  R. Peverati,  P. A. Pieniazek,  
 Y. M. Rhee,  J. Ritchie,  M. A. Rohrdanz,  E. Rosta,  N. J. Russ,  
 H. F. Schaefer III,  N. E. Schultz,  N. Shenvi,  A. C. Simmonett,  A. Sodt,  
 D. Stuck,  K. S. Thanthiriwatte,  V. Vanovschi,  Tao Wang,  A. Warshel,  
 C. F. Williams,  Q. Wu,  X. Xu,  W. Zhang

 Please cite Q-Chem as follows:
 Y. Shao et al., Mol. Phys. 113, 184-215 (2015)
 DOI: 10.1080/00268976.2014.952696

 Q-Chem 5.1.1 for Intel X86 EM64T Linux

 Parts of Q-Chem use Armadillo 8.300.2 (Tropical Shenanigans).
 http://arma.sourceforge.net/

 Q-Chem begins on Wed Mar 13 16:27:40 2019  

Host: 
0

     Scratch files written to /staging/scratch/2868761/qchem356//
 Aug318 |scratch|qcdevops|jenkins|workspace|build_RNUM 6013   
Processing $rem in /usr/usc/qchem/5.1.1/config/preferences.
 MEM_TOTAL  2000 
Input Ideriv = 2
Curr. Ideriv = -1
Max.  Ideriv = 2

Checking the input file for inconsistencies... 	...done.

--------------------------------------------------------------
User input:
--------------------------------------------------------------

$comment
potential surface scanner
$end

$rem
JOBTYPE  PES_SCAN
UNRESTRICTED TRUE
SYM_IGNORE  TRUE
GEOM_OPT_MAX_CYCLES 400
SCF_MAX_CYCLES 400
METHOD   B3LYP
BASIS   6-31G**
PDB_PRINT 2
SCF_CONVERGENCE 6
THRESH 14
SCF_PRINT 1
$end
$molecule
0 1
F -0.486400 -1.298900 0.159500
F 1.889200 0.001700 -0.126500
C -0.435600 -0.028600 -0.332400
C 0.768200 0.660400 0.276200
C -1.735300 0.665500 0.023300
H -0.320900 -0.108600 -1.417700
H 0.851700 1.700600 -0.050500
H 0.742100 0.621000 1.368800
H -1.880200 0.688200 1.108400
H -1.756200 1.691300 -0.356400
H -2.582900 0.117800 -0.401000
$end
$scan
stre 1 3 0.700000 0.701000 0.100000
$end
--------------------------------------------------------------
 ----------------------------------------------------------------
             Standard Nuclear Orientation (Angstroms)
    I     Atom           X                Y                Z
 ----------------------------------------------------------------
    1      F      -0.4864000000    -1.2989000000     0.1595000000
    2      F       1.8892000000     0.0017000000    -0.1265000000
    3      C      -0.4356000000    -0.0286000000    -0.3324000000
    4      C       0.7682000000     0.6604000000     0.2762000000
    5      C      -1.7353000000     0.6655000000     0.0233000000
    6      H      -0.3209000000    -0.1086000000    -1.4177000000
    7      H       0.8517000000     1.7006000000    -0.0505000000
    8      H       0.7421000000     0.6210000000     1.3688000000
    9      H      -1.8802000000     0.6882000000     1.1084000000
   10      H      -1.7562000000     1.6913000000    -0.3564000000
   11      H      -2.5829000000     0.1178000000    -0.4010000000
 ----------------------------------------------------------------
 Nuclear Repulsion Energy =   192.1347219537 hartrees
 There are       21 alpha and       21 beta electrons
 Requested basis set is 6-31G(d,p)
 There are 38 shells and 105 basis functions

 Total QAlloc Memory Limit   2000 MB
 Mega-Array Size       188 MB
 MEM_STATIC part       192 MB
A total of 1 constraints
  
            1
    1   1.0100000
    2   1.0100000
    3   3.0100000
    4   0.7000000
    5   0.7010000
    6   0.1000000
    7   0.0000000
    8   0.0000000
    9   0.0000000
   10   0.0000000

                       Distance Matrix (Angstroms)
             F (  1)   F (  2)   C (  3)   C (  4)   C (  5)   H (  6)
   F (  2)  2.723386
   C (  3)  1.363161  2.334097
   C (  4)  2.329484  1.361137  1.514678
   C (  5)  2.331774  3.687827  1.515756  2.516247
   H (  6)  1.982868  2.562012  1.094272  2.155643  2.162461
   H (  7)  3.291141  1.992095  2.174107  1.093490  2.787373  2.552926
   H (  8)  2.580239  1.983757  2.168649  1.093622  2.819550  3.070320
   H (  9)  2.606081  4.025498  2.162539  2.776212  1.094967  3.073677
   H ( 10)  3.289353  4.024493  2.168552  2.799202  1.094018  2.534972
   H ( 11)  2.591623  4.482021  2.153378  3.461631  1.094729  2.490297
             H (  7)   H (  8)   H (  9)   H ( 10)
   H (  8)  1.786606
   H (  9)  3.135487  2.636054
   H ( 10)  2.625796  3.219217  1.779670
   H ( 11)  3.797971  3.800135  1.759952  1.778011
 
 A cutoff of  1.0D-14 yielded    720 shell pairs
 There are      5627 function pairs
 
 -------------------------------------------------------
 OpenMP Integral Computing Module                       
 Release: version 1.0, May 2013, Q-Chem Inc. Pittsburgh 
 -------------------------------------------------------
 Integral Job Info:
 Integral job number is                      11
 Integral operator is                         1
 short-range coefficients                     0
 long-range coefficients              100000000
 Omega coefficients                           0
 if combine SR and LR in K                    0
 Integral screening is                        0
 Integral computing path is                   2
 max size of driver memory is            800000
 size of driver memory is                593474
 size of scratch memory is              2361544
 max col of scratch BK array               1296
 max len of scratch array in speh3          155
 max len of scratch index in speh4           18
 max int batch size is                      520
 min int batch size is                       52
 fixed nKL is                                52
 max L of basis functions is                  2
 order of int derivative is                   0
 number of shells is                         38
 number of basis is                         105
 number of cartesian basis is               105
 number of contracted shell pairs           720
 number of primitive shell pairs           2672
 maxK2 (contraction) of shell pair           36
 max number of K2 of shell pair               1
 max number of CS2 of shell pair             62
 max number of PS2 of shell pair            246
 mem total for path MDJ                  519084
 -------------------------------------------------------
 Smallest overlap matrix eigenvalue = 3.28E-03

 Scale SEOQF with 1.000000e-01/1.000000e-01/1.000000e+00

 Standard Electronic Orientation quadrupole field applied
 Nucleus-field energy     =    -0.0000000029 hartrees
 Guess from superposition of atomic densities
 Warning:  Energy on first SCF cycle will be non-variational
 SAD guess density has 42.000000 electrons

 -----------------------------------------------------------------------
  General SCF calculation program by
  Eric Jon Sundstrom, Paul Horn, Yuezhi Mao, Dmitri Zuev, Alec White,
  David Stuck, Shaama M.S., Shane Yost, Joonho Lee, David Small,
  Daniel Levine, Susi Lehtola, Hugh Burton, Evgeny Epifanovsky
 -----------------------------------------------------------------------
 Exchange:     0.2000 Hartree-Fock + 0.0800 Slater + 0.7200 B88
 Correlation:  0.1900 VWN1RPA + 0.8100 LYP
 Using SG-1 standard quadrature grid
 using 12 threads for integral computing
 -------------------------------------------------------
 OpenMP Integral computing Module                
 Release: version 1.0, May 2013, Q-Chem Inc. Pittsburgh 
 -------------------------------------------------------
 -------------------------------------------------------
 OpenMP BLAS3 based DFT computing Module                
 Release: version 1.0, May 2013, Q-Chem Inc. Pittsburgh 
 -------------------------------------------------------
 A unrestricted SCF calculation will be
 performed using DIIS
 SCF converges when DIIS error is below 1.0e-06
 Alpha HF Exchange    Energy =  -3.79204471419278
 Beta HF Exchange     Energy =  -3.79204471419278
 DFT Correlation      Energy =  -1.85855766612101
 DFT Exchange         Energy = -29.67659817107451
 One-Electron (alpha) Energy = -407.45039050700956
 One-Electron (beta)  Energy = -407.45039050700956
 Total Coulomb        Energy = 343.63647256145191
 ---------------------------------------
  Cycle       Energy         DIIS error
 ---------------------------------------
    1    -318.2488317674      3.24e-02  
 Alpha HF Exchange    Energy =  -3.82233087723281
 Beta HF Exchange     Energy =  -3.82233087723281
 DFT Correlation      Energy =  -1.88331707906225
 DFT Exchange         Energy = -30.36980697835385
 One-Electron (alpha) Energy = -410.67174124900112
 One-Electron (beta)  Energy = -410.67174124900123
 Total Coulomb        Energy = 351.56441083182887
    2    -317.5421355273      3.69e-03  
 Alpha HF Exchange    Energy =  -3.75001015992326
 Beta HF Exchange     Energy =  -3.75001015992326
 DFT Correlation      Energy =  -1.86137912578709
 DFT Exchange         Energy = -29.79381884519560
 One-Electron (alpha) Energy = -407.49883684900391
 One-Electron (beta)  Energy = -407.49883684900402
 Total Coulomb        Energy = 344.48190615134189
    3    -317.5362638867      4.02e-03  
 Alpha HF Exchange    Energy =  -3.78805441808922
 Beta HF Exchange     Energy =  -3.78805441808922
 DFT Correlation      Energy =  -1.87225361837682
 DFT Exchange         Energy = -30.09241715338987
 One-Electron (alpha) Energy = -409.12599303817632
 One-Electron (beta)  Energy = -409.12599303817620
 Total Coulomb        Energy = 348.05185954410319
    4    -317.6061841894      4.54e-04  
 Alpha HF Exchange    Energy =  -3.78639761129064
 Beta HF Exchange     Energy =  -3.78639761129064
 DFT Correlation      Energy =  -1.87258215426006
 DFT Exchange         Energy = -30.08227124291860
 One-Electron (alpha) Energy = -409.15847828678801
 One-Electron (beta)  Energy = -409.15847828678784
 Total Coulomb        Energy = 348.10304878396636
    5    -317.6068344586      2.10e-04  
 Alpha HF Exchange    Energy =  -3.78678154737912
 Beta HF Exchange     Energy =  -3.78678154737912
 DFT Correlation      Energy =  -1.87236544179638
 DFT Exchange         Energy = -30.08414694569584
 One-Electron (alpha) Energy = -409.13131470552571
 One-Electron (beta)  Energy = -409.13131470552560
 Total Coulomb        Energy = 348.05095515639641
    6    -317.6070277861      2.63e-05  
 Alpha HF Exchange    Energy =  -3.78666834792540
 Beta HF Exchange     Energy =  -3.78666834792540
 DFT Correlation      Energy =  -1.87235138965975
 DFT Exchange         Energy = -30.08326480520494
 One-Electron (alpha) Energy = -409.12711931017202
 One-Electron (beta)  Energy = -409.12711931017191
 Total Coulomb        Energy = 348.04143912925002
    7    -317.6070304310      1.10e-05  
 Alpha HF Exchange    Energy =  -3.78671664435522
 Beta HF Exchange     Energy =  -3.78671664435523
 DFT Correlation      Energy =  -1.87236712873601
 DFT Exchange         Energy = -30.08366149407535
 One-Electron (alpha) Energy = -409.13049445057732
 One-Electron (beta)  Energy = -409.13049445057743
 Total Coulomb        Energy = 348.04869783067380
    8    -317.6070310312      9.75e-07  Convergence criterion met
 ---------------------------------------
 SCF time:   CPU 19.41s  wall 2.00s 
<S^2> =          0.000000000
 Alpha HF Exchange    Energy =  -3.78671664435522
 Beta HF Exchange     Energy =  -3.78671664435523
 DFT Correlation      Energy =  -1.87236712873601
 DFT Exchange         Energy = -30.08366149407535
 One-Electron (alpha) Energy = -409.13049445057732
 One-Electron (beta)  Energy = -409.13049445057743
 Total Coulomb        Energy = 348.04869783067380
 Nuclear repulsion Energy = 192.13472195078685
 SCF   energy in the final basis set =     -317.6070310312
 Total energy in the final basis set =     -317.6070310312
 
 --------------------------------------------------------------
 
                    Orbital Energies (a.u.)
 --------------------------------------------------------------
 
 Alpha MOs
 -- Occupied --
-24.674 -24.673 -10.265 -10.260 -10.191  -1.199  -1.184  -0.791
 -0.698  -0.613  -0.526  -0.502  -0.497  -0.463  -0.445  -0.408
 -0.397  -0.378  -0.337  -0.331  -0.312
 -- Virtual --
  0.091   0.103   0.114   0.150   0.166   0.179   0.181   0.199
  0.239   0.258   0.512   0.529   0.539   0.558   0.591   0.618
  0.641   0.662   0.715   0.796   0.847   0.861   0.869   0.893
  0.913   0.942   1.080   1.144   1.194   1.208   1.292   1.374
  1.387   1.389   1.414   1.416   1.526   1.609   1.638   1.740
  1.752   1.803   1.810   1.848   1.895   1.948   1.993   2.013
  2.023   2.029   2.058   2.071   2.086   2.105   2.122   2.212
  2.241   2.302   2.326   2.394   2.446   2.487   2.633   2.693
  2.696   2.734   2.796   2.841   2.893   2.912   2.919   3.068
  3.125   3.180   3.244   3.315   3.438   3.476   3.486   4.211
  4.316   4.496   4.600   4.652
 
 Beta MOs
 -- Occupied --
-24.674 -24.673 -10.265 -10.260 -10.191  -1.199  -1.184  -0.791
 -0.698  -0.613  -0.526  -0.502  -0.497  -0.463  -0.445  -0.408
 -0.397  -0.378  -0.337  -0.331  -0.312
 -- Virtual --
  0.091   0.103   0.114   0.150   0.166   0.179   0.181   0.199
  0.239   0.258   0.512   0.529   0.539   0.558   0.591   0.618
  0.641   0.662   0.715   0.796   0.847   0.861   0.869   0.893
  0.913   0.942   1.080   1.144   1.194   1.208   1.292   1.374
  1.387   1.389   1.414   1.416   1.526   1.609   1.638   1.740
  1.752   1.803   1.810   1.848   1.895   1.948   1.993   2.013
  2.023   2.029   2.058   2.071   2.086   2.105   2.122   2.212
  2.241   2.302   2.326   2.394   2.446   2.487   2.633   2.693
  2.696   2.734   2.796   2.841   2.893   2.912   2.919   3.068
  3.125   3.180   3.244   3.315   3.438   3.476   3.486   4.211
  4.316   4.496   4.600   4.652
 --------------------------------------------------------------
 
          Ground-State Mulliken Net Atomic Charges

     Atom                 Charge (a.u.)    Spin (a.u.)
  --------------------------------------------------------
      1 F                    -0.311107       0.000000
      2 F                    -0.310193      -0.000000
      3 C                     0.217758      -0.000000
      4 C                     0.133750       0.000000
      5 C                    -0.354811       0.000000
      6 H                     0.092573      -0.000000
      7 H                     0.084019      -0.000000
      8 H                     0.096168      -0.000000
      9 H                     0.119163      -0.000000
     10 H                     0.106905      -0.000000
     11 H                     0.125775      -0.000000
  --------------------------------------------------------
  Sum of atomic charges =     0.000000
  Sum of spin   charges =    -0.000000

 -----------------------------------------------------------------
                    Cartesian Multipole Moments
 -----------------------------------------------------------------
    Charge (ESU x 10^10)
                -0.0000
    Dipole Moment (Debye)
         X      -1.4030      Y       2.0805      Z      -0.0638
       Tot       2.5102
    Quadrupole Moments (Debye-Ang)
        XX     -31.2948     XY       0.0130     YY     -29.8409
        XZ       0.8793     YZ       0.4749     ZZ     -27.7222
    Octopole Moments (Debye-Ang^2)
       XXX       4.4486    XXY      -3.6994    XYY       5.8805
       YYY      -8.3796    XXZ       0.1553    XYZ      -0.0977
       YYZ      -0.9433    XZZ       4.2132    YZZ      -3.9593
       ZZZ      -0.0582
    Hexadecapole Moments (Debye-Ang^3)
      XXXX    -322.3678   XXXY       8.8791   XXYY     -73.5927
      XYYY       6.1078   YYYY    -127.5276   XXXZ      -0.2002
      XXYZ      -0.1554   XYYZ      -0.2931   YYYZ      -4.1810
      XXZZ     -60.6447   XYZZ       2.4281   YYZZ     -30.9785
      XZZZ      -2.8213   YZZZ      -1.5534   ZZZZ     -52.3679
 -----------------------------------------------------------------
 Calculating analytic gradient of the SCF energy
 Gradient of SCF Energy
            1           2           3           4           5           6
    1  -0.0007120  -0.0212058   0.0063730   0.0048296   0.0058588  -0.0029890
    2   0.0245443   0.0106685  -0.0195959  -0.0036954  -0.0019710  -0.0031373
    3  -0.0087922   0.0073340  -0.0005564   0.0001915   0.0007879   0.0026986
            7           8           9          10          11
    1   0.0040297   0.0057274  -0.0017139   0.0008544  -0.0010522
    2  -0.0035753  -0.0012543  -0.0007729  -0.0002788  -0.0009319
    3   0.0000155  -0.0026150  -0.0000706   0.0001621   0.0008447
 Max gradient component =       2.454E-02
 RMS gradient           =       7.591E-03
 Gradient time:  CPU 8.52 s  wall 0.78 s
 Geometry Optimization Parameters
   NAtoms,    NIC,     NZ,  NCons,   NDum,   NFix, NCnnct, MaxDiis
       11      68       0       1       0       0       0       0


** CONSTRAINED OPTIMIZATION IN DELOCALIZED INTERNAL COORDINATES **
   Searching for a Minimum

   Optimization Cycle:   1

                       Coordinates (Angstroms)
     ATOM                X               Y               Z
      1  F        -0.4864000000   -1.2989000000    0.1595000000
      2  F         1.8892000000    0.0017000000   -0.1265000000
      3  C        -0.4356000000   -0.0286000000   -0.3324000000
      4  C         0.7682000000    0.6604000000    0.2762000000
      5  C        -1.7353000000    0.6655000000    0.0233000000
      6  H        -0.3209000000   -0.1086000000   -1.4177000000
      7  H         0.8517000000    1.7006000000   -0.0505000000
      8  H         0.7421000000    0.6210000000    1.3688000000
      9  H        -1.8802000000    0.6882000000    1.1084000000
     10  H        -1.7562000000    1.6913000000   -0.3564000000
     11  H        -2.5829000000    0.1178000000   -0.4010000000
   Point Group: c1    Number of degrees of freedom:    27


   Energy is   -317.607031031

              Constraints and their Current Values
                                        Value     Constraint
   Distance(Angs):        1   3             1.363161     0.700000

 Attempting to Generate Delocalized Internal Coordinates
**WARNING** Constraint Gradient Reduced for constraint   1

   Using Lagrange Multiplier Algorithm


 28 Hessian modes will be used to form the next step
  Hessian Eigenvalues:
    -0.772075    0.045000    0.045000    0.073792    0.082489    0.083926
     0.083980    0.084052    0.085207    0.112759    0.160000    0.160000
     0.160000    0.160000    0.160000    0.177486    0.223461    0.231280
     0.307790    0.308850    0.342449    0.342718    0.343235    0.343524
     0.343974    0.344124    0.527184    1.295211

 Minimum Search - Taking P-RFO Step
 Searching for Lamda that Maximizes Along the Constraint modes Only
 Value Taken    Lamda =   0.07571651


 ********************************************
 ** ERROR IN DETERMINING Lamda IN CONFormD **
 ********************************************


 ** Scaling Hessian by  3.365178 **


 28 Hessian modes will be used to form the next step
  Hessian Eigenvalues:
    -0.451990    0.151433    0.151433    0.248323    0.277590    0.282425
     0.282608    0.282849    0.286736    0.379455    0.538429    0.538429
     0.538429    0.538429    0.538429    0.597271    0.751986    0.778298
     1.035768    1.039335    1.152401    1.153308    1.155048    1.156021
     1.157535    1.158038    1.774067    2.212438

 Minimum Search - Taking P-RFO Step
 Searching for Lamda that Maximizes Along the Constraint modes Only
 Value Taken    Lamda =   0.13702039
 Searching for Lamda that Minimizes Along All other modes
 Value Taken    Lamda =  -0.00533135
 Step Taken.  Stepsize is  0.242700

                             Maximum     Tolerance    Cnvgd?
         Gradient            0.300000       0.000300      NO
         Displacement        0.420962       0.001200      NO
         Energy change     *********       0.000001      NO


 New Cartesian Coordinates Obtained by Inverse Iteration

 Displacement from previous Coordinates is:  0.223257
 ----------------------------------------------------------------
             Standard Nuclear Orientation (Angstroms)
    I     Atom           X                Y                Z
 ----------------------------------------------------------------
    1      F      -0.4811341271    -1.1937972170     0.1275230804
    2      F       1.9024434735    -0.0111177475    -0.1236228988
    3      C      -0.4370100655    -0.0431589507    -0.3225787343
    4      C       0.7717498731     0.6473766875     0.2773004184
    5      C      -1.7379765704     0.6567918174     0.0273577629
    6      H      -0.3182275007    -0.1240696858    -1.4086417480
    7      H       0.8435573329     1.6880780482    -0.0552518630
    8      H       0.7347740098     0.6146059293     1.3710374324
    9      H      -1.8813536537     0.6860088465     1.1124388687
   10      H      -1.7578359262     1.6807746558    -0.3577014947
   11      H      -2.5852868458     0.1089076163    -0.3961608240
 ----------------------------------------------------------------
 Nuclear Repulsion Energy =   195.6842946135 hartrees
 There are       21 alpha and       21 beta electrons

                       Distance Matrix (Angstroms)
             F (  1)   F (  2)   C (  3)   C (  4)   C (  5)   H (  6)
   F (  2)  2.672685
   C (  3)  1.236328  2.348117
   C (  4)  2.232056  1.368511  1.515848
   C (  5)  2.239278  3.704262  1.518190  2.522159
   H (  6)  1.879005  2.568153  1.095531  2.150716  2.165070
   H (  7)  3.177014  2.003292  2.169907  1.094900  2.781132  2.542693
   H (  8)  2.509000  1.997246  2.161959  1.094852  2.814560  3.062853
   H (  9)  2.542508  4.041158  2.162658  2.781709  1.094903  3.074970
   H ( 10)  3.182542  4.039175  2.172041  2.805342  1.094169  2.536614
   H ( 11)  2.529574  4.497600  2.154909  3.466006  1.094294  2.493783
             H (  7)   H (  8)   H (  9)   H ( 10)
   H (  8)  1.788429
   H (  9)  3.129342  2.629847
   H ( 10)  2.618926  3.215332  1.779362
   H ( 11)  3.790379  3.794934  1.761942  1.776772
 
 Applying Cartesian multipole field
    Component          Value
    ---------          -----
     (2,0,0)        1.00000E-11
     (0,2,0)        2.00000E-11
     (0,0,2)       -3.00000E-10
 Nucleus-field energy     =    -0.0000000029 hartrees
 Requested basis set is 6-31G(d,p)
 There are 38 shells and 105 basis functions
 A cutoff of  1.0D-14 yielded    720 shell pairs
 There are      5627 function pairs
 Smallest overlap matrix eigenvalue = 2.90E-03
 Guess from superposition of atomic densities
 Warning:  Energy on first SCF cycle will be non-variational
 SAD guess density has 42.000000 electrons

 -----------------------------------------------------------------------
  General SCF calculation program by
  Eric Jon Sundstrom, Paul Horn, Yuezhi Mao, Dmitri Zuev, Alec White,
  David Stuck, Shaama M.S., Shane Yost, Joonho Lee, David Small,
  Daniel Levine, Susi Lehtola, Hugh Burton, Evgeny Epifanovsky
 -----------------------------------------------------------------------
 Exchange:     0.2000 Hartree-Fock + 0.0800 Slater + 0.7200 B88
 Correlation:  0.1900 VWN1RPA + 0.8100 LYP
 Using SG-1 standard quadrature grid
 using 12 threads for integral computing
 -------------------------------------------------------
 OpenMP Integral computing Module                
 Release: version 1.0, May 2013, Q-Chem Inc. Pittsburgh 
 -------------------------------------------------------
 -------------------------------------------------------
 OpenMP BLAS3 based DFT computing Module                
 Release: version 1.0, May 2013, Q-Chem Inc. Pittsburgh 
 -------------------------------------------------------
 A unrestricted SCF calculation will be
 performed using DIIS
 SCF converges when DIIS error is below 1.0e-06
 Alpha HF Exchange    Energy =  -3.81023172800385
 Beta HF Exchange     Energy =  -3.81023172800385
 DFT Correlation      Energy =  -1.86258527369043
 DFT Exchange         Energy = -29.71599213312161
 One-Electron (alpha) Energy = -410.88711188839102
 One-Electron (beta)  Energy = -410.88711188839102
 Total Coulomb        Energy = 346.84655751814512
 ---------------------------------------
  Cycle       Energy         DIIS error
 ---------------------------------------
    1    -318.4424125109      3.46e-02  
 Alpha HF Exchange    Energy =  -3.82951667835131
 Beta HF Exchange     Energy =  -3.82951667835131
 DFT Correlation      Energy =  -1.88757712963185
 DFT Exchange         Energy = -30.42152813420494
 One-Electron (alpha) Energy = -414.11155403522918
 One-Electron (beta)  Energy = -414.11155403522889
 Total Coulomb        Energy = 354.98685495513092
    2    -317.5200971253      3.68e-03  
 Alpha HF Exchange    Energy =  -3.75872661582879
 Beta HF Exchange     Energy =  -3.75872661582879
 DFT Correlation      Energy =  -1.86523499329153
 DFT Exchange         Energy = -29.85334850959375
 One-Electron (alpha) Energy = -410.84378001190731
 One-Electron (beta)  Energy = -410.84378001190720
 Total Coulomb        Energy = 347.72214779710828
    3    -317.5171543507      3.86e-03  
 Alpha HF Exchange    Energy =  -3.79513377467755
 Beta HF Exchange     Energy =  -3.79513377467755
 DFT Correlation      Energy =  -1.87644672637253
 DFT Exchange         Energy = -30.14204945457051
 One-Electron (alpha) Energy = -412.53420249711894
 One-Electron (beta)  Energy = -412.53420249711900
 Total Coulomb        Energy = 351.40785614893099
    4    -317.5850179651      3.71e-04  
 Alpha HF Exchange    Energy =  -3.79376473684531
 Beta HF Exchange     Energy =  -3.79376473684531
 DFT Correlation      Energy =  -1.87658022181875
 DFT Exchange         Energy = -30.13325900618469
 One-Electron (alpha) Energy = -412.54352977325271
 One-Electron (beta)  Energy = -412.54352977325283
 Total Coulomb        Energy = 351.41470375305164
    5    -317.5854298846      1.87e-04  
 Alpha HF Exchange    Energy =  -3.79406665532076
 Beta HF Exchange     Energy =  -3.79406665532076
 DFT Correlation      Energy =  -1.87639662484775
 DFT Exchange         Energy = -30.13469557920929
 One-Electron (alpha) Energy = -412.51864626827069
 One-Electron (beta)  Energy = -412.51864626827091
 Total Coulomb        Energy = 351.36664622962201
    6    -317.5855772111      2.81e-05  
 Alpha HF Exchange    Energy =  -3.79396329727040
 Beta HF Exchange     Energy =  -3.79396329727040
 DFT Correlation      Energy =  -1.87639242239609
 DFT Exchange         Energy = -30.13392092344624
 One-Electron (alpha) Energy = -412.51653588386012
 One-Electron (beta)  Energy = -412.51653588386017
 Total Coulomb        Energy = 351.36143700031346
    7    -317.5855800972      1.05e-05  
 Alpha HF Exchange    Energy =  -3.79400562664555
 Beta HF Exchange     Energy =  -3.79400562664556
 DFT Correlation      Energy =  -1.87640516525117
 DFT Exchange         Energy = -30.13426453857103
 One-Electron (alpha) Energy = -412.51928048922321
 One-Electron (beta)  Energy = -412.51928048922326
 Total Coulomb        Energy = 351.36736670749258
    8    -317.5855806175      1.15e-06  
 Alpha HF Exchange    Energy =  -3.79400327262523
 Beta HF Exchange     Energy =  -3.79400327262523
 DFT Correlation      Energy =  -1.87640419313965
 DFT Exchange         Energy = -30.13424464651566
 One-Electron (alpha) Energy = -412.51906841619018
 One-Electron (beta)  Energy = -412.51906841619012
 Total Coulomb        Energy = 351.36691698273694
    9    -317.5855806240      2.10e-07  Convergence criterion met
 ---------------------------------------
 SCF time:   CPU 21.31s  wall 2.00s 
<S^2> =          0.000000000
 Alpha HF Exchange    Energy =  -3.79400327262523
 Beta HF Exchange     Energy =  -3.79400327262523
 DFT Correlation      Energy =  -1.87640419313965
 DFT Exchange         Energy = -30.13424464651566
 One-Electron (alpha) Energy = -412.51906841619018
 One-Electron (beta)  Energy = -412.51906841619012
 Total Coulomb        Energy = 351.36691698273694
 Nuclear repulsion Energy = 195.68429461054410
 SCF   energy in the final basis set =     -317.5855806240
 Total energy in the final basis set =     -317.5855806240
 
 --------------------------------------------------------------
 
                    Orbital Energies (a.u.)
 --------------------------------------------------------------
 
 Alpha MOs
 -- Occupied --
-24.690 -24.672 -10.260 -10.253 -10.185  -1.264  -1.185  -0.783
 -0.698  -0.622  -0.546  -0.519  -0.504  -0.469  -0.462  -0.408
 -0.401  -0.382  -0.335  -0.322  -0.303
 -- Virtual --
  0.093   0.111   0.123   0.157   0.170   0.181   0.186   0.223
  0.253   0.272   0.513   0.532   0.563   0.585   0.608   0.627
  0.642   0.657   0.713   0.797   0.848   0.863   0.871   0.895
  0.915   0.946   1.066   1.135   1.197   1.217   1.295   1.375
  1.387   1.392   1.407   1.417   1.528   1.631   1.654   1.719
  1.739   1.797   1.812   1.847   1.907   1.977   2.006   2.021
  2.032   2.044   2.062   2.085   2.112   2.118   2.168   2.232
  2.273   2.350   2.359   2.422   2.457   2.530   2.656   2.700
  2.732   2.741   2.839   2.855   2.903   2.958   2.986   3.076
  3.159   3.202   3.251   3.318   3.439   3.479   3.493   4.261
  4.331   4.510   4.639   4.830
 
 Beta MOs
 -- Occupied --
-24.690 -24.672 -10.260 -10.253 -10.185  -1.264  -1.185  -0.783
 -0.698  -0.622  -0.546  -0.519  -0.504  -0.469  -0.462  -0.408
 -0.401  -0.382  -0.335  -0.322  -0.303
 -- Virtual --
  0.093   0.111   0.123   0.157   0.170   0.181   0.186   0.223
  0.253   0.272   0.513   0.532   0.563   0.585   0.608   0.627
  0.642   0.657   0.713   0.797   0.848   0.863   0.871   0.895
  0.915   0.946   1.066   1.135   1.197   1.217   1.295   1.375
  1.387   1.392   1.407   1.417   1.528   1.631   1.654   1.719
  1.739   1.797   1.812   1.847   1.907   1.977   2.006   2.021
  2.032   2.044   2.062   2.085   2.112   2.118   2.168   2.232
  2.273   2.350   2.359   2.422   2.457   2.530   2.656   2.700
  2.732   2.741   2.839   2.855   2.903   2.958   2.986   3.076
  3.159   3.202   3.251   3.318   3.439   3.479   3.493   4.261
  4.331   4.510   4.639   4.830
 --------------------------------------------------------------
 
          Ground-State Mulliken Net Atomic Charges

     Atom                 Charge (a.u.)    Spin (a.u.)
  --------------------------------------------------------
      1 F                    -0.227420       0.000000
      2 F                    -0.314520      -0.000000
      3 C                     0.214241      -0.000000
      4 C                     0.121518       0.000000
      5 C                    -0.364805      -0.000000
      6 H                     0.065061      -0.000000
      7 H                     0.079625       0.000000
      8 H                     0.089791       0.000000
      9 H                     0.112785       0.000000
     10 H                     0.103327       0.000000
     11 H                     0.120396       0.000000
  --------------------------------------------------------
  Sum of atomic charges =    -0.000000
  Sum of spin   charges =     0.000000

 -----------------------------------------------------------------
                    Cartesian Multipole Moments
 -----------------------------------------------------------------
    Charge (ESU x 10^10)
                 0.0000
    Dipole Moment (Debye)
         X      -1.4463      Y       1.5402      Z       0.0920
       Tot       2.1148
    Quadrupole Moments (Debye-Ang)
        XX     -31.6581     XY       0.2777     YY     -29.4154
        XZ       0.7827     YZ       0.4070     ZZ     -27.9863
    Octopole Moments (Debye-Ang^2)
       XXX       4.5365    XXY      -4.5004    XYY       5.5268
       YYY     -10.5797    XXZ       0.1492    XYZ      -0.1032
       YYZ      -0.8486    XZZ       4.1831    YZZ      -4.4437
       ZZZ       0.5392
    Hexadecapole Moments (Debye-Ang^3)
      XXXX    -327.2456   XXXY      10.6640   XXYY     -72.8156
      XYYY       7.6860   YYYY    -118.1178   XXXZ      -0.3007
      XXYZ      -0.5680   XYYZ      -0.3818   YYYZ      -5.1014
      XXZZ     -61.3270   XYZZ       2.8447   YYZZ     -29.4390
      XZZZ      -3.0922   YZZZ      -2.5651   ZZZZ     -53.4426
 -----------------------------------------------------------------
 Calculating analytic gradient of the SCF energy
 Gradient of SCF Energy
            1           2           3           4           5           6
    1   0.0050577  -0.0146426  -0.0006572   0.0021149   0.0062218  -0.0028082
    2   0.1657864   0.0090939  -0.1303112  -0.0163241  -0.0127704  -0.0113442
    3  -0.0632059   0.0051988   0.0462515   0.0028616   0.0034864   0.0084598
            7           8           9          10          11
    1   0.0012368   0.0038880  -0.0015823   0.0021468  -0.0009758
    2  -0.0026807  -0.0004457  -0.0003723  -0.0005429  -0.0000887
    3  -0.0010471  -0.0020206  -0.0005002  -0.0003995   0.0009152
 Max gradient component =       1.658E-01
 RMS gradient           =       3.958E-02
 Gradient time:  CPU 8.37 s  wall 0.72 s
 Geometry Optimization Parameters
   NAtoms,    NIC,     NZ,  NCons,   NDum,   NFix, NCnnct, MaxDiis
       11      68       0       1       0       0       0       0

 Cartesian Hessian Update
 Hessian Updated using BFGS Update


** CONSTRAINED OPTIMIZATION IN DELOCALIZED INTERNAL COORDINATES **
   Searching for a Minimum

   Optimization Cycle:   2

                       Coordinates (Angstroms)
     ATOM                X               Y               Z
      1  F        -0.4811341271   -1.1937972170    0.1275230804
      2  F         1.9024434735   -0.0111177475   -0.1236228988
      3  C        -0.4370100655   -0.0431589507   -0.3225787343
      4  C         0.7717498731    0.6473766875    0.2773004184
      5  C        -1.7379765704    0.6567918174    0.0273577629
      6  H        -0.3182275007   -0.1240696858   -1.4086417480
      7  H         0.8435573329    1.6880780482   -0.0552518630
      8  H         0.7347740098    0.6146059293    1.3710374324
      9  H        -1.8813536537    0.6860088465    1.1124388687
     10  H        -1.7578359262    1.6807746558   -0.3577014947
     11  H        -2.5852868458    0.1089076163   -0.3961608240
   Point Group: c1    Number of degrees of freedom:    27


   Energy is   -317.585580624

              Constraints and their Current Values
                                        Value     Constraint
   Distance(Angs):        1   3             1.236328     0.700000
 Hessian Updated using BFGS Update
**WARNING** Constraint Gradient Reduced for constraint   1

   Using Lagrange Multiplier Algorithm


 25 Hessian modes will be used to form the next step
  Hessian Eigenvalues:
    -0.731645    0.151431    0.151439    0.250111    0.277593    0.282201
     0.282622    0.282801    0.286893    0.379328    0.537498    0.539097
     0.597260    0.752330    0.779838    1.032474    1.038719    1.152322
     1.152447    1.153370    1.156019    1.157447    1.157973    1.377461
     1.778978

 Minimum Search - Taking P-RFO Step
 Searching for Lamda that Maximizes Along the Constraint modes Only
 Value Taken    Lamda =   0.01260884
 Searching for Lamda that Minimizes Along All other modes
 Value Taken    Lamda =  -0.09952555
 Calculated Step too Large.  Step scaled by  0.995722
 Step Taken.  Stepsize is  0.300000

                             Maximum     Tolerance    Cnvgd?
         Gradient            0.300000       0.000300      NO
         Displacement        0.281881       0.001200      NO
         Energy change      0.021450       0.000001      NO


 New Cartesian Coordinates Obtained by Inverse Iteration

 Displacement from previous Coordinates is:  0.234017
 ----------------------------------------------------------------
             Standard Nuclear Orientation (Angstroms)
    I     Atom           X                Y                Z
 ----------------------------------------------------------------
    1      F      -0.4752516050    -1.0897253531     0.0894132219
    2      F       1.9200560216    -0.0202236269    -0.1214668027
    3      C      -0.4390797660    -0.0780191579    -0.3069023610
    4      C       0.7741689183     0.6360584593     0.2782468954
    5      C      -1.7402744385     0.6494608734     0.0322439752
    6      H      -0.3142415291    -0.1408388832    -1.4007273767
    7      H       0.8292456737     1.6778155119    -0.0607095408
    8      H       0.7260934770     0.6107535023     1.3737281497
    9      H      -1.8822430653     0.6861489483     1.1175593479
   10      H      -1.7552486005     1.6723711620    -0.3569085907
   11      H      -2.5895250862     0.1065985639    -0.3927769183
 ----------------------------------------------------------------
 Nuclear Repulsion Energy =   199.9837774248 hartrees
 There are       21 alpha and       21 beta electrons

                       Distance Matrix (Angstroms)
             F (  1)   F (  2)   C (  3)   C (  4)   C (  5)   H (  6)
   F (  2)  2.631692
   C (  3)  1.087163  2.367118
   C (  4)  2.138934  1.379686  1.524559
   C (  5)  2.151353  3.724261  1.528841  2.526484
   H (  6)  1.773930  2.577429  1.102717  2.146430  2.170611
   H (  7)  3.063255  2.019132  2.179958  1.096897  2.769221  2.531939
   H (  8)  2.446288  2.014767  2.157905  1.096828  2.807855  3.056925
   H (  9)  2.488059  4.060988  2.166971  2.786302  1.095176  3.079660
   H ( 10)  3.076812  4.053168  2.190586  2.806300  1.094536  2.540431
   H ( 11)  2.476661  4.519515  2.160063  3.470596  1.093878  2.500821
             H (  7)   H (  8)   H (  9)   H ( 10)
   H (  8)  1.790774
   H (  9)  3.118315  2.621970
   H ( 10)  2.601418  3.206118  1.778431
   H ( 11)  3.777166  3.790520  1.765571  1.774527
 
 Applying Cartesian multipole field
    Component          Value
    ---------          -----
     (2,0,0)        1.00000E-11
     (0,2,0)        2.00000E-11
     (0,0,2)       -3.00000E-10
 Nucleus-field energy     =    -0.0000000029 hartrees
 Requested basis set is 6-31G(d,p)
 There are 38 shells and 105 basis functions
 A cutoff of  1.0D-14 yielded    722 shell pairs
 There are      5633 function pairs
 Smallest overlap matrix eigenvalue = 2.36E-03
 Guess from superposition of atomic densities
 Warning:  Energy on first SCF cycle will be non-variational
 SAD guess density has 42.000000 electrons

 -----------------------------------------------------------------------
  General SCF calculation program by
  Eric Jon Sundstrom, Paul Horn, Yuezhi Mao, Dmitri Zuev, Alec White,
  David Stuck, Shaama M.S., Shane Yost, Joonho Lee, David Small,
  Daniel Levine, Susi Lehtola, Hugh Burton, Evgeny Epifanovsky
 -----------------------------------------------------------------------
 Exchange:     0.2000 Hartree-Fock + 0.0800 Slater + 0.7200 B88
 Correlation:  0.1900 VWN1RPA + 0.8100 LYP
 Using SG-1 standard quadrature grid
 using 12 threads for integral computing
 -------------------------------------------------------
 OpenMP Integral computing Module                
 Release: version 1.0, May 2013, Q-Chem Inc. Pittsburgh 
 -------------------------------------------------------
 -------------------------------------------------------
 OpenMP BLAS3 based DFT computing Module                
 Release: version 1.0, May 2013, Q-Chem Inc. Pittsburgh 
 -------------------------------------------------------
 A unrestricted SCF calculation will be
 performed using DIIS
 SCF converges when DIIS error is below 1.0e-06
 Alpha HF Exchange    Energy =  -3.83619020960448
 Beta HF Exchange     Energy =  -3.83619020960448
 DFT Correlation      Energy =  -1.86737069069237
 DFT Exchange         Energy = -29.77375691209473
 One-Electron (alpha) Energy = -414.93245184162805
 One-Electron (beta)  Energy = -414.93245184162805
 Total Coulomb        Energy = 350.46823141161104
 ---------------------------------------
  Cycle       Energy         DIIS error
 ---------------------------------------
    1    -318.7264028718      3.87e-02  
 Alpha HF Exchange    Energy =  -3.84164211191363
 Beta HF Exchange     Energy =  -3.84164211191363
 DFT Correlation      Energy =  -1.89311823764126
 DFT Exchange         Energy = -30.51429448329208
 One-Electron (alpha) Energy = -418.19227339810180
 One-Electron (beta)  Energy = -418.19227339810186
 Total Coulomb        Energy = 359.06909043554998
    2    -317.4223758835      3.79e-03  
 Alpha HF Exchange    Energy =  -3.76861985490262
 Beta HF Exchange     Energy =  -3.76861985490262
 DFT Correlation      Energy =  -1.86950713857818
 DFT Exchange         Energy = -29.92522046698294
 One-Electron (alpha) Energy = -414.67195687552561
 One-Electron (beta)  Energy = -414.67195687552561
 Total Coulomb        Energy = 351.27272729036588
    3    -317.4193763542      3.92e-03  
 Alpha HF Exchange    Energy =  -3.80559908565023
 Beta HF Exchange     Energy =  -3.80559908565023
 DFT Correlation      Energy =  -1.88151973061404
 DFT Exchange         Energy = -30.22034266304560
 One-Electron (alpha) Energy = -416.51185170260379
 One-Electron (beta)  Energy = -416.51185170260379
 Total Coulomb        Energy = 355.26123343178136
    4    -317.4917531165      3.54e-04  
 Alpha HF Exchange    Energy =  -3.80447884335278
 Beta HF Exchange     Energy =  -3.80447884335278
 DFT Correlation      Energy =  -1.88151847826756
 DFT Exchange         Energy = -30.21296258778955
 One-Electron (alpha) Energy = -416.50530906349189
 One-Electron (beta)  Energy = -416.50530906349218
 Total Coulomb        Energy = 355.23812600016566
    5    -317.4921534577      1.76e-04  
 Alpha HF Exchange    Energy =  -3.80467815924442
 Beta HF Exchange     Energy =  -3.80467815924441
 DFT Correlation      Energy =  -1.88135721346510
 DFT Exchange         Energy = -30.21376442240521
 One-Electron (alpha) Energy = -416.48102419893303
 One-Electron (beta)  Energy = -416.48102419893280
 Total Coulomb        Energy = 355.19046976130932
    6    -317.4922791690      3.19e-05  
 Alpha HF Exchange    Energy =  -3.80457320789934
 Beta HF Exchange     Energy =  -3.80457320789934
 DFT Correlation      Energy =  -1.88136281978299
 DFT Exchange         Energy = -30.21301253651713
 One-Electron (alpha) Energy = -416.48099142807905
 One-Electron (beta)  Energy = -416.48099142807911
 Total Coulomb        Energy = 355.18944433731019
    7    -317.4922828691      1.09e-05  
 Alpha HF Exchange    Energy =  -3.80461993132664
 Beta HF Exchange     Energy =  -3.80461993132664
 DFT Correlation      Energy =  -1.88137200374916
 DFT Exchange         Energy = -30.21337357787789
 One-Electron (alpha) Energy = -416.48312857335742
 One-Electron (beta)  Energy = -416.48312857335765
 Total Coulomb        Energy = 355.19418175480530
    8    -317.4922834143      1.51e-06  
 Alpha HF Exchange    Energy =  -3.80461541093419
 Beta HF Exchange     Energy =  -3.80461541093420
 DFT Correlation      Energy =  -1.88137105685617
 DFT Exchange         Energy = -30.21333842531474
 One-Electron (alpha) Energy = -416.48288858560801
 One-Electron (beta)  Energy = -416.48288858560818
 Total Coulomb        Energy = 355.19365662745503
    9    -317.4922834259      2.29e-07  Convergence criterion met
 ---------------------------------------
 SCF time:   CPU 21.63s  wall 2.00s 
<S^2> =         -0.000000000
 Alpha HF Exchange    Energy =  -3.80461541093419
 Beta HF Exchange     Energy =  -3.80461541093420
 DFT Correlation      Energy =  -1.88137105685617
 DFT Exchange         Energy = -30.21333842531474
 One-Electron (alpha) Energy = -416.48288858560801
 One-Electron (beta)  Energy = -416.48288858560818
 Total Coulomb        Energy = 355.19365662745503
 Nuclear repulsion Energy = 199.98377742187631
 SCF   energy in the final basis set =     -317.4922834259
 Total energy in the final basis set =     -317.4922834259
 
 --------------------------------------------------------------
 
                    Orbital Energies (a.u.)
 --------------------------------------------------------------
 
 Alpha MOs
 -- Occupied --
-24.719 -24.669 -10.262 -10.244 -10.176  -1.377  -1.179  -0.773
 -0.703  -0.649  -0.592  -0.561  -0.520  -0.475  -0.465  -0.408
 -0.399  -0.384  -0.332  -0.304  -0.287
 -- Virtual --
  0.095   0.114   0.129   0.162   0.173   0.183   0.190   0.237
  0.262   0.296   0.513   0.528   0.566   0.601   0.613   0.621
  0.651   0.699   0.759   0.821   0.852   0.863   0.876   0.908
  0.916   0.954   1.034   1.130   1.204   1.229   1.301   1.375
  1.381   1.396   1.399   1.426   1.533   1.657   1.675   1.689
  1.724   1.795   1.814   1.849   1.917   1.992   2.007   2.022
  2.037   2.050   2.068   2.091   2.121   2.132   2.224   2.243
  2.327   2.382   2.430   2.455   2.500   2.590   2.666   2.716
  2.739   2.782   2.852   2.907   2.929   3.011   3.048   3.094
  3.188   3.247   3.322   3.378   3.463   3.479   3.530   4.267
  4.337   4.517   4.630   5.328
 
 Beta MOs
 -- Occupied --
-24.719 -24.669 -10.262 -10.244 -10.176  -1.377  -1.179  -0.773
 -0.703  -0.649  -0.592  -0.561  -0.520  -0.475  -0.465  -0.408
 -0.399  -0.384  -0.332  -0.304  -0.287
 -- Virtual --
  0.095   0.114   0.129   0.162   0.173   0.183   0.190   0.237
  0.262   0.296   0.513   0.528   0.566   0.601   0.613   0.621
  0.651   0.699   0.759   0.821   0.852   0.863   0.876   0.908
  0.916   0.954   1.034   1.130   1.204   1.229   1.301   1.375
  1.381   1.396   1.399   1.426   1.533   1.657   1.675   1.689
  1.724   1.795   1.814   1.849   1.917   1.992   2.007   2.022
  2.037   2.050   2.068   2.091   2.121   2.132   2.224   2.243
  2.327   2.382   2.430   2.455   2.500   2.590   2.666   2.716
  2.739   2.782   2.852   2.907   2.929   3.011   3.048   3.094
  3.188   3.247   3.322   3.378   3.463   3.479   3.530   4.267
  4.337   4.517   4.630   5.328
 --------------------------------------------------------------
 
          Ground-State Mulliken Net Atomic Charges

     Atom                 Charge (a.u.)    Spin (a.u.)
  --------------------------------------------------------
      1 F                    -0.045383      -0.000000
      2 F                    -0.321210      -0.000000
      3 C                     0.164775       0.000000
      4 C                     0.095664      -0.000000
      5 C                    -0.388916      -0.000000
      6 H                     0.018023      -0.000000
      7 H                     0.076889      -0.000000
      8 H                     0.081501       0.000000
      9 H                     0.104284      -0.000000
     10 H                     0.101504      -0.000000
     11 H                     0.112869      -0.000000
  --------------------------------------------------------
  Sum of atomic charges =    -0.000000
  Sum of spin   charges =    -0.000000

 -----------------------------------------------------------------
                    Cartesian Multipole Moments
 -----------------------------------------------------------------
    Charge (ESU x 10^10)
                -0.0000
    Dipole Moment (Debye)
         X      -1.5055      Y       0.8281      Z       0.3340
       Tot       1.7504
    Quadrupole Moments (Debye-Ang)
        XX     -32.2486     XY       0.6246     YY     -28.8378
        XZ       0.6639     YZ       0.3024     ZZ     -28.4711
    Octopole Moments (Debye-Ang^2)
       XXX       4.8537    XXY      -5.4243    XYY       5.0965
       YYY     -12.7593    XXZ       0.0801    XYZ      -0.0927
       YYZ      -0.7897    XZZ       4.1826    YZZ      -4.9344
       ZZZ       1.4634
    Hexadecapole Moments (Debye-Ang^3)
      XXXX    -334.5037   XXXY      12.5442   XXYY     -72.2981
      XYYY       9.1995   YYYY    -109.4308   XXXZ      -0.2070
      XXYZ      -1.1144   XYYZ      -0.4214   YYYZ      -6.1378
      XXZZ     -62.3780   XYZZ       3.2429   YYZZ     -28.1371
      XZZZ      -3.4131   YZZZ      -3.8440   ZZZZ     -55.6592
 -----------------------------------------------------------------
 Calculating analytic gradient of the SCF energy
 Gradient of SCF Energy
            1           2           3           4           5           6
    1   0.0190103  -0.0068665  -0.0159992  -0.0029021   0.0079756  -0.0026678
    2   0.5208456   0.0067131  -0.4540722  -0.0292511  -0.0235547  -0.0205777
    3  -0.2023863   0.0024057   0.1770383   0.0050184   0.0057625   0.0164605
            7           8           9          10          11
    1  -0.0011681   0.0013670  -0.0009801   0.0025875  -0.0003567
    2  -0.0010517   0.0003603   0.0001039  -0.0003356   0.0008202
    3  -0.0017863  -0.0015049  -0.0010542  -0.0006918   0.0007381
 Max gradient component =       5.208E-01
 RMS gradient           =       1.294E-01
 Gradient time:  CPU 8.47 s  wall 0.77 s
 Geometry Optimization Parameters
   NAtoms,    NIC,     NZ,  NCons,   NDum,   NFix, NCnnct, MaxDiis
       11      68       0       1       0       0       0       0

 Cartesian Hessian Update
 Hessian Updated using BFGS Update


** CONSTRAINED OPTIMIZATION IN DELOCALIZED INTERNAL COORDINATES **
   Searching for a Minimum

   Optimization Cycle:   3

                       Coordinates (Angstroms)
     ATOM                X               Y               Z
      1  F        -0.4752516050   -1.0897253531    0.0894132219
      2  F         1.9200560216   -0.0202236269   -0.1214668027
      3  C        -0.4390797660   -0.0780191579   -0.3069023610
      4  C         0.7741689183    0.6360584593    0.2782468954
      5  C        -1.7402744385    0.6494608734    0.0322439752
      6  H        -0.3142415291   -0.1408388832   -1.4007273767
      7  H         0.8292456737    1.6778155119   -0.0607095408
      8  H         0.7260934770    0.6107535023    1.3737281497
      9  H        -1.8822430653    0.6861489483    1.1175593479
     10  H        -1.7552486005    1.6723711620   -0.3569085907
     11  H        -2.5895250862    0.1065985639   -0.3927769183
   Point Group: c1    Number of degrees of freedom:    27


   Energy is   -317.492283426

              Constraints and their Current Values
                                        Value     Constraint
   Distance(Angs):        1   3             1.087163     0.700000
 Hessian Updated using BFGS Update
**WARNING** Constraint Gradient Reduced for constraint   1

   Using Lagrange Multiplier Algorithm


 26 Hessian modes will be used to form the next step
  Hessian Eigenvalues:
    -0.525155    0.151431    0.151441    0.248683    0.277594    0.282144
     0.282617    0.282884    0.286916    0.379338    0.536952    0.538429
     0.539048    0.597290    0.752431    0.778075    1.023614    1.038099
     1.149619    1.152411    1.153320    1.156022    1.157499    1.158037
     1.735741    2.002231

 Minimum Search - Taking P-RFO Step
 Searching for Lamda that Maximizes Along the Constraint modes Only
 Value Taken    Lamda =   0.17383705


 ********************************************
 ** ERROR IN DETERMINING Lamda IN CONFormD **
 ********************************************


 ** Scaling Hessian by  2.295923 **


 26 Hessian modes will be used to form the next step
  Hessian Eigenvalues:
    -0.294350    0.347671    0.347690    0.560824    0.637330    0.647536
     0.648855    0.649469    0.658606    0.870875    1.230983    1.236190
     1.237342    1.371328    1.727313    1.779295    2.309931    2.382903
     2.625762    2.645842    2.647918    2.654136    2.657526    2.658752
     3.599157    4.145990

 Minimum Search - Taking P-RFO Step
 Searching for Lamda that Maximizes Along the Constraint modes Only
 Value Taken    Lamda =   0.21950300
 Searching for Lamda that Minimizes Along All other modes
 Value Taken    Lamda =  -0.00735559
 Step Taken.  Stepsize is  0.220775

                             Maximum     Tolerance    Cnvgd?
         Gradient            0.300000       0.000300      NO
         Displacement        0.621378       0.001200      NO
         Energy change      0.093297       0.000001      NO


 New Cartesian Coordinates Obtained by Inverse Iteration

 Displacement from previous Coordinates is:  0.127479
 ----------------------------------------------------------------
             Standard Nuclear Orientation (Angstroms)
    I     Atom           X                Y                Z
 ----------------------------------------------------------------
    1      F      -0.4737224437    -1.0506145863     0.0702300376
    2      F       1.9303376278    -0.0176963485    -0.1235187064
    3      C      -0.4408848210    -0.1177227555    -0.2908811120
    4      C       0.7733476751     0.6322704909     0.2779086155
    5      C      -1.7395776054     0.6466610977     0.0348558114
    6      H      -0.3115657222    -0.1409740354    -1.3954982792
    7      H       0.8112788116     1.6743377509    -0.0654375082
    8      H       0.7249275017     0.6124981373     1.3749047334
    9      H      -1.8852181109     0.6879927285     1.1200495995
   10      H      -1.7424210585     1.6694226249    -0.3554131302
   11      H      -2.5928018545     0.1142248955    -0.3955000614
 ----------------------------------------------------------------
 Nuclear Repulsion Energy =   202.4223619359 hartrees
 There are       21 alpha and       21 beta electrons

                       Distance Matrix (Angstroms)
             F (  1)   F (  2)   C (  3)   C (  4)   C (  5)   H (  6)
   F (  2)  2.623731
   C (  3)  1.000883  2.379225
   C (  4)  2.104855  1.386444  1.536350
   C (  5)  2.117637  3.732925  1.541749  2.524693
   H (  6)  1.732657  2.580554  1.112404  2.138980  2.169216
   H (  7)  3.015792  2.029445  2.197776  1.097829  2.751917  2.514995
   H (  8)  2.429996  2.023717  2.160366  1.098242  2.805474  3.052404
   H (  9)  2.473297  4.074669  2.173937  2.789315  1.095703  3.080836
   H ( 10)  3.031397  4.048370  2.211798  2.793899  1.094696  2.531138
   H ( 11)  2.462570  4.533229  2.166908  3.471716  1.093931  2.503829
             H (  7)   H (  8)   H (  9)   H ( 10)
   H (  8)  1.791520
   H (  9)  3.106341  2.623645
   H ( 10)  2.570115  3.193571  1.777804
   H ( 11)  3.759077  3.793407  1.768269  1.772962
 
 Applying Cartesian multipole field
    Component          Value
    ---------          -----
     (2,0,0)        1.00000E-11
     (0,2,0)        2.00000E-11
     (0,0,2)       -3.00000E-10
 Nucleus-field energy     =    -0.0000000029 hartrees
 Requested basis set is 6-31G(d,p)
 There are 38 shells and 105 basis functions
 A cutoff of  1.0D-14 yielded    721 shell pairs
 There are      5629 function pairs
 Smallest overlap matrix eigenvalue = 2.07E-03
 Guess from superposition of atomic densities
 Warning:  Energy on first SCF cycle will be non-variational
 SAD guess density has 42.000000 electrons

 -----------------------------------------------------------------------
  General SCF calculation program by
  Eric Jon Sundstrom, Paul Horn, Yuezhi Mao, Dmitri Zuev, Alec White,
  David Stuck, Shaama M.S., Shane Yost, Joonho Lee, David Small,
  Daniel Levine, Susi Lehtola, Hugh Burton, Evgeny Epifanovsky
 -----------------------------------------------------------------------
 Exchange:     0.2000 Hartree-Fock + 0.0800 Slater + 0.7200 B88
 Correlation:  0.1900 VWN1RPA + 0.8100 LYP
 Using SG-1 standard quadrature grid
 using 12 threads for integral computing
 -------------------------------------------------------
 OpenMP Integral computing Module                
 Release: version 1.0, May 2013, Q-Chem Inc. Pittsburgh 
 -------------------------------------------------------
 -------------------------------------------------------
 OpenMP BLAS3 based DFT computing Module                
 Release: version 1.0, May 2013, Q-Chem Inc. Pittsburgh 
 -------------------------------------------------------
 A unrestricted SCF calculation will be
 performed using DIIS
 SCF converges when DIIS error is below 1.0e-06
 Alpha HF Exchange    Energy =  -3.85283144606251
 Beta HF Exchange     Energy =  -3.85283144606251
 DFT Correlation      Energy =  -1.86999647542165
 DFT Exchange         Energy = -29.81226924223669
 One-Electron (alpha) Energy = -417.11688746661656
 One-Electron (beta)  Energy = -417.11688746661656
 Total Coulomb        Energy = 352.29456343138384
 ---------------------------------------
  Cycle       Energy         DIIS error
 ---------------------------------------
    1    -318.9047781786      4.20e-02  
 Alpha HF Exchange    Energy =  -3.85060355165356
 Beta HF Exchange     Energy =  -3.85060355165355
 DFT Correlation      Energy =  -1.89638023920427
 DFT Exchange         Energy = -30.58583780689679
 One-Electron (alpha) Energy = -420.40380575109180
 One-Electron (beta)  Energy = -420.40380575109162
 Total Coulomb        Energy = 361.26797109942078
    2    -317.3007036192      3.93e-03  
 Alpha HF Exchange    Energy =  -3.77474361007042
 Beta HF Exchange     Energy =  -3.77474361007042
 DFT Correlation      Energy =  -1.87171065205164
 DFT Exchange         Energy = -29.97254970856939
 One-Electron (alpha) Energy = -416.68336756842763
 One-Electron (beta)  Energy = -416.68336756842763
 Total Coulomb        Energy = 353.04068248515671
    3    -317.2974382995      4.03e-03  
 Alpha HF Exchange    Energy =  -3.81295851552755
 Beta HF Exchange     Energy =  -3.81295851552754
 DFT Correlation      Energy =  -1.88439840352117
 DFT Exchange         Energy = -30.27835697954020
 One-Electron (alpha) Energy = -418.64423305499531
 One-Electron (beta)  Energy = -418.64423305499525
 Total Coulomb        Energy = 357.27974466018560
    4    -317.3750319309      3.63e-04  
 Alpha HF Exchange    Energy =  -3.81184687790511
 Beta HF Exchange     Energy =  -3.81184687790512
 DFT Correlation      Energy =  -1.88430125261009
 DFT Exchange         Energy = -30.27082198905058
 One-Electron (alpha) Energy = -418.62484015803705
 One-Electron (beta)  Energy = -418.62484015803739
 Total Coulomb        Energy = 357.23064958483707
    5    -317.3754857957      1.71e-04  
 Alpha HF Exchange    Energy =  -3.81200166915404
 Beta HF Exchange     Energy =  -3.81200166915403
 DFT Correlation      Energy =  -1.88414313039732
 DFT Exchange         Energy = -30.27132838734342
 One-Electron (alpha) Energy = -418.59999760628642
 One-Electron (beta)  Energy = -418.59999760628608
 Total Coulomb        Energy = 357.18150418963199
    6    -317.3756039460      3.57e-05  
 Alpha HF Exchange    Energy =  -3.81188774224854
 Beta HF Exchange     Energy =  -3.81188774224854
 DFT Correlation      Energy =  -1.88415554615704
 DFT Exchange         Energy = -30.27053909573359
 One-Electron (alpha) Energy = -418.60123227384616
 One-Electron (beta)  Energy = -418.60123227384611
 Total Coulomb        Energy = 357.18296410272836
    7    -317.3756086383      1.17e-05  
 Alpha HF Exchange    Energy =  -3.81193939615585
 Beta HF Exchange     Energy =  -3.81193939615585
 DFT Correlation      Energy =  -1.88416321563785
 DFT Exchange         Energy = -30.27092714305591
 One-Electron (alpha) Energy = -418.60313663228050
 One-Electron (beta)  Energy = -418.60313663228044
 Total Coulomb        Energy = 357.18727124785175
    8    -317.3756092347      1.74e-06  
 Alpha HF Exchange    Energy =  -3.81193410190217
 Beta HF Exchange     Energy =  -3.81193410190216
 DFT Correlation      Energy =  -1.88416216478930
 DFT Exchange         Energy = -30.27088591280791
 One-Electron (alpha) Energy = -418.60286276462790
 One-Electron (beta)  Energy = -418.60286276462762
 Total Coulomb        Energy = 357.18667062767190
    9    -317.3756092500      2.45e-07  Convergence criterion met
 ---------------------------------------
 SCF time:   CPU 21.60s  wall 2.00s 
<S^2> =         -0.000000000
 Alpha HF Exchange    Energy =  -3.81193410190217
 Beta HF Exchange     Energy =  -3.81193410190216
 DFT Correlation      Energy =  -1.88416216478930
 DFT Exchange         Energy = -30.27088591280791
 One-Electron (alpha) Energy = -418.60286276462790
 One-Electron (beta)  Energy = -418.60286276462762
 Total Coulomb        Energy = 357.18667062767190
 Nuclear repulsion Energy = 202.42236193300241
 SCF   energy in the final basis set =     -317.3756092500
 Total energy in the final basis set =     -317.3756092500
 
 --------------------------------------------------------------
 
                    Orbital Energies (a.u.)
 --------------------------------------------------------------
 
 Alpha MOs
 -- Occupied --
-24.745 -24.667 -10.272 -10.238 -10.170  -1.460  -1.174  -0.769
 -0.713  -0.677  -0.635  -0.593  -0.528  -0.474  -0.464  -0.407
 -0.396  -0.383  -0.330  -0.291  -0.274
 -- Virtual --
  0.097   0.116   0.133   0.164   0.176   0.184   0.193   0.244
  0.266   0.299   0.513   0.523   0.561   0.599   0.605   0.612
  0.650   0.695   0.780   0.844   0.853   0.875   0.885   0.915
  0.940   0.993   1.037   1.129   1.207   1.230   1.307   1.365
  1.376   1.391   1.406   1.435   1.538   1.637   1.678   1.682
  1.732   1.801   1.819   1.854   1.922   1.991   2.007   2.026
  2.040   2.051   2.073   2.096   2.123   2.139   2.236   2.251
  2.357   2.390   2.441   2.466   2.524   2.643   2.665   2.737
  2.744   2.802   2.852   2.907   3.009   3.044   3.083   3.109
  3.208   3.257   3.330   3.437   3.481   3.513   3.672   4.268
  4.334   4.521   4.628   5.760
 
 Beta MOs
 -- Occupied --
-24.745 -24.667 -10.272 -10.238 -10.170  -1.460  -1.174  -0.769
 -0.713  -0.677  -0.635  -0.593  -0.528  -0.474  -0.464  -0.407
 -0.396  -0.383  -0.330  -0.291  -0.274
 -- Virtual --
  0.097   0.116   0.133   0.164   0.176   0.184   0.193   0.244
  0.266   0.299   0.513   0.523   0.561   0.599   0.605   0.612
  0.650   0.695   0.780   0.844   0.853   0.875   0.885   0.915
  0.940   0.993   1.037   1.129   1.207   1.230   1.307   1.365
  1.376   1.391   1.406   1.435   1.538   1.637   1.678   1.682
  1.732   1.801   1.819   1.854   1.922   1.991   2.007   2.026
  2.040   2.051   2.073   2.096   2.123   2.139   2.236   2.251
  2.357   2.390   2.441   2.466   2.524   2.643   2.665   2.737
  2.744   2.802   2.852   2.907   3.009   3.044   3.083   3.109
  3.208   3.257   3.330   3.437   3.481   3.513   3.672   4.268
  4.334   4.521   4.628   5.760
 --------------------------------------------------------------
 
          Ground-State Mulliken Net Atomic Charges

     Atom                 Charge (a.u.)    Spin (a.u.)
  --------------------------------------------------------
      1 F                     0.105486       0.000000
      2 F                    -0.325915       0.000000
      3 C                     0.115564      -0.000000
      4 C                     0.073387      -0.000000
      5 C                    -0.410950       0.000000
      6 H                    -0.017784       0.000000
      7 H                     0.077320       0.000000
      8 H                     0.075365       0.000000
      9 H                     0.098201      -0.000000
     10 H                     0.102211      -0.000000
     11 H                     0.107116      -0.000000
  --------------------------------------------------------
  Sum of atomic charges =    -0.000000
  Sum of spin   charges =     0.000000

 -----------------------------------------------------------------
                    Cartesian Multipole Moments
 -----------------------------------------------------------------
    Charge (ESU x 10^10)
                -0.0000
    Dipole Moment (Debye)
         X      -1.5387      Y       0.3327      Z       0.5145
       Tot       1.6562
    Quadrupole Moments (Debye-Ang)
        XX     -32.7416     XY       0.8647     YY     -28.3864
        XZ       0.5962     YZ       0.1900     ZZ     -28.9024
    Octopole Moments (Debye-Ang^2)
       XXX       5.3243    XXY      -5.9452    XYY       4.8358
       YYY     -13.6975    XXZ      -0.0120    XYZ      -0.0604
       YYZ      -0.8034    XZZ       4.2260    YZZ      -5.1227
       ZZZ       2.0883
    Hexadecapole Moments (Debye-Ang^3)
      XXXX    -339.6292   XXXY      13.2979   XXYY     -72.2108
      XYYY       9.6962   YYYY    -105.9053   XXXZ       0.1149
      XXYZ      -1.4829   XYYZ      -0.3695   YYYZ      -6.6981
      XXZZ     -63.1146   XYZZ       3.3425   YYZZ     -27.7447
      XZZZ      -3.5085   YZZZ      -4.6737   ZZZZ     -57.6011
 -----------------------------------------------------------------
 Calculating analytic gradient of the SCF energy
 Gradient of SCF Energy
            1           2           3           4           5           6
    1   0.0331981  -0.0037306  -0.0315741  -0.0053932   0.0097705  -0.0024908
    2   0.9069923   0.0053301  -0.8348566  -0.0319566  -0.0258508  -0.0219683
    3  -0.3500797   0.0010665   0.3246657   0.0038747   0.0051776   0.0200225
            7           8           9          10          11
    1  -0.0016258  -0.0003440  -0.0001338   0.0019046   0.0004192
    2   0.0002852   0.0004678   0.0001943   0.0002577   0.0011049
    3  -0.0015474  -0.0016189  -0.0014288  -0.0005497   0.0004175
 Max gradient component =       9.070E-01
 RMS gradient           =       2.304E-01
 Gradient time:  CPU 8.49 s  wall 0.75 s
 Geometry Optimization Parameters
   NAtoms,    NIC,     NZ,  NCons,   NDum,   NFix, NCnnct, MaxDiis
       11      68       0       1       0       0       0       0

 Cartesian Hessian Update
 Hessian Updated using BFGS Update


** CONSTRAINED OPTIMIZATION IN DELOCALIZED INTERNAL COORDINATES **
   Searching for a Minimum

   Optimization Cycle:   4

                       Coordinates (Angstroms)
     ATOM                X               Y               Z
      1  F        -0.4737224437   -1.0506145863    0.0702300376
      2  F         1.9303376278   -0.0176963485   -0.1235187064
      3  C        -0.4408848210   -0.1177227555   -0.2908811120
      4  C         0.7733476751    0.6322704909    0.2779086155
      5  C        -1.7395776054    0.6466610977    0.0348558114
      6  H        -0.3115657222   -0.1409740354   -1.3954982792
      7  H         0.8112788116    1.6743377509   -0.0654375082
      8  H         0.7249275017    0.6124981373    1.3749047334
      9  H        -1.8852181109    0.6879927285    1.1200495995
     10  H        -1.7424210585    1.6694226249   -0.3554131302
     11  H        -2.5928018545    0.1142248955   -0.3955000614
   Point Group: c1    Number of degrees of freedom:    27


   Energy is   -317.375609250

              Constraints and their Current Values
                                        Value     Constraint
   Distance(Angs):        1   3             1.000883     0.700000
 Hessian Updated using BFGS Update
**WARNING** Constraint Gradient Reduced for constraint   1

   Using Lagrange Multiplier Algorithm


 27 Hessian modes will be used to form the next step
  Hessian Eigenvalues:
    -0.329138    0.347589    0.347680    0.506834    0.637319    0.647223
     0.648837    0.649401    0.658161    0.870875    1.227066    1.236190
     1.236191    1.236651    1.371227    1.723195    1.750893    2.200717
     2.382537    2.605425    2.645845    2.647900    2.654136    2.657506
     2.658693    3.679252    4.191119

 Minimum Search - Taking P-RFO Step
 Searching for Lamda that Maximizes Along the Constraint modes Only
 Value Taken    Lamda =   0.14879910
 Searching for Lamda that Minimizes Along All other modes
 Value Taken    Lamda =  -0.02199703
 Calculated Step too Large.  Step scaled by  0.851136
 Step Taken.  Stepsize is  0.300000

                             Maximum     Tolerance    Cnvgd?
         Gradient            0.300000       0.000300      NO
         Displacement        0.470291       0.001200      NO
         Energy change      0.116674       0.000001      NO


 New Cartesian Coordinates Obtained by Inverse Iteration

 Displacement from previous Coordinates is:  0.170305
 ----------------------------------------------------------------
             Standard Nuclear Orientation (Angstroms)
    I     Atom           X                Y                Z
 ----------------------------------------------------------------
    1      F      -0.4730483811    -1.0210736083     0.0507659349
    2      F       1.9416671513    -0.0082919547    -0.1290223066
    3      C      -0.4434092210    -0.1784906185    -0.2674081239
    4      C       0.7694290443     0.6293086327     0.2766897809
    5      C      -1.7361634000     0.6440769775     0.0376797995
    6      H      -0.3084547844    -0.1314526283    -1.3867312833
    7      H       0.7801826075     1.6706924795    -0.0730034767
    8      H       0.7263480443     0.6173550277     1.3760279068
    9      H      -1.8905224590     0.6915567062     1.1224099454
   10      H      -1.7159917635     1.6663691192    -0.3532827590
   11      H      -2.5963368384     0.1303498671    -0.4024254181
 ----------------------------------------------------------------
 Nuclear Repulsion Energy =   205.4507901542 hartrees
 There are       21 alpha and       21 beta electrons

                       Distance Matrix (Angstroms)
             F (  1)   F (  2)   C (  3)   C (  4)   C (  5)   H (  6)
   F (  2)  2.624672
   C (  3)  0.901143  2.395142
   C (  4)  2.078113  1.394733  1.555493
   C (  5)  2.090062  3.738959  1.562341  2.517010
   H (  6)  1.698504  2.580707  1.128410  2.123102  2.160728
   H (  7)  2.971786  2.042345  2.225859  1.098582  2.719961  2.481681
   H (  8)  2.424731  2.033128  2.168544  1.100247  2.802829  3.043742
   H (  9)  2.467946  4.091644  2.186942  2.791856  1.096686  3.078323
   H ( 10)  2.988396  4.029051  2.242844  2.765805  1.094687  2.506260
   H ( 11)  2.457542  4.548346  2.179153  3.469660  1.094306  2.504357
             H (  7)   H (  8)   H (  9)   H ( 10)
   H (  8)  1.792236
   H (  9)  3.085512  2.630179
   H ( 10)  2.511864  3.171115  1.777186
   H ( 11)  3.725863  3.800040  1.771511  1.771095
 
 Applying Cartesian multipole field
    Component          Value
    ---------          -----
     (2,0,0)        1.00000E-11
     (0,2,0)        2.00000E-11
     (0,0,2)       -3.00000E-10
 Nucleus-field energy     =    -0.0000000028 hartrees
 Requested basis set is 6-31G(d,p)
 There are 38 shells and 105 basis functions
 A cutoff of  1.0D-14 yielded    720 shell pairs
 There are      5623 function pairs
 Smallest overlap matrix eigenvalue = 1.77E-03
 Guess from superposition of atomic densities
 Warning:  Energy on first SCF cycle will be non-variational
 SAD guess density has 42.000000 electrons

 -----------------------------------------------------------------------
  General SCF calculation program by
  Eric Jon Sundstrom, Paul Horn, Yuezhi Mao, Dmitri Zuev, Alec White,
  David Stuck, Shaama M.S., Shane Yost, Joonho Lee, David Small,
  Daniel Levine, Susi Lehtola, Hugh Burton, Evgeny Epifanovsky
 -----------------------------------------------------------------------
 Exchange:     0.2000 Hartree-Fock + 0.0800 Slater + 0.7200 B88
 Correlation:  0.1900 VWN1RPA + 0.8100 LYP
 Using SG-1 standard quadrature grid
 using 12 threads for integral computing
 -------------------------------------------------------
 OpenMP Integral computing Module                
 Release: version 1.0, May 2013, Q-Chem Inc. Pittsburgh 
 -------------------------------------------------------
 -------------------------------------------------------
 OpenMP BLAS3 based DFT computing Module                
 Release: version 1.0, May 2013, Q-Chem Inc. Pittsburgh 
 -------------------------------------------------------
 A unrestricted SCF calculation will be
 performed using DIIS
 SCF converges when DIIS error is below 1.0e-06
 Alpha HF Exchange    Energy =  -3.87409489363464
 Beta HF Exchange     Energy =  -3.87409489363464
 DFT Correlation      Energy =  -1.87306042526694
 DFT Exchange         Energy = -29.86300106974867
 One-Electron (alpha) Energy = -419.67667998645476
 One-Electron (beta)  Energy = -419.67667998645476
 Total Coulomb        Energy = 354.28250165924402
 ---------------------------------------
  Cycle       Energy         DIIS error
 ---------------------------------------
    1    -319.1043194445      4.68e-02  
 Alpha HF Exchange    Energy =  -3.86384708171995
 Beta HF Exchange     Energy =  -3.86384708171994
 DFT Correlation      Energy =  -1.90040737139100
 DFT Exchange         Energy = -30.69335070155515
 One-Electron (alpha) Energy = -423.00984516939354
 One-Electron (beta)  Energy = -423.00984516939337
 Total Coulomb        Energy = 363.84389665095762
    2    -317.0464557728      4.21e-03  
 Alpha HF Exchange    Energy =  -3.78320913991047
 Beta HF Exchange     Energy =  -3.78320913991047
 DFT Correlation      Energy =  -1.87420560993402
 DFT Exchange         Energy = -30.04007115586256
 One-Electron (alpha) Energy = -419.00227929993810
 One-Electron (beta)  Energy = -419.00227929993821
 Total Coulomb        Energy = 354.99067770421800
    3    -317.0437857898      4.22e-03  
 Alpha HF Exchange    Energy =  -3.82367408803804
 Beta HF Exchange     Energy =  -3.82367408803804
 DFT Correlation      Energy =  -1.88791633038024
 DFT Exchange         Energy = -30.36489260406756
 One-Electron (alpha) Energy = -421.14237628002087
 One-Electron (beta)  Energy = -421.14237628002081
 Total Coulomb        Energy = 359.60422712254501
    4    -317.1298923966      4.01e-04  
 Alpha HF Exchange    Energy =  -3.82238642348388
 Beta HF Exchange     Energy =  -3.82238642348388
 DFT Correlation      Energy =  -1.88763620161258
 DFT Exchange         Energy = -30.35567189337420
 One-Electron (alpha) Energy = -421.09799476451258
 One-Electron (beta)  Energy = -421.09799476451246
 Total Coulomb        Energy = 359.50276678986927
    5    -317.1305135297      1.67e-04  
 Alpha HF Exchange    Energy =  -3.82245468052685
 Beta HF Exchange     Energy =  -3.82245468052685
 DFT Correlation      Energy =  -1.88746761259281
 DFT Exchange         Energy = -30.35554620721513
 One-Electron (alpha) Energy = -421.07001230641970
 One-Electron (beta)  Energy = -421.07001230641964
 Total Coulomb        Energy = 359.44652994333137
    6    -317.1306276989      4.14e-05  
 Alpha HF Exchange    Energy =  -3.82233130390115
 Beta HF Exchange     Energy =  -3.82233130390115
 DFT Correlation      Energy =  -1.88748945355177
 DFT Exchange         Energy = -30.35472997312624
 One-Electron (alpha) Energy = -421.07299305827382
 One-Electron (beta)  Energy = -421.07299305827382
 Total Coulomb        Energy = 359.45144387251446
    7    -317.1306341271      1.30e-05  
 Alpha HF Exchange    Energy =  -3.82239151625539
 Beta HF Exchange     Energy =  -3.82239151625539
 DFT Correlation      Energy =  -1.88749638764111
 DFT Exchange         Energy = -30.35517119520955
 One-Electron (alpha) Energy = -421.07483287735528
 One-Electron (beta)  Energy = -421.07483287735562
 Total Coulomb        Energy = 359.45569141031444
    8    -317.1306348083      2.16e-06  
 Alpha HF Exchange    Energy =  -3.82238486219678
 Beta HF Exchange     Energy =  -3.82238486219678
 DFT Correlation      Energy =  -1.88749504733079
 DFT Exchange         Energy = -30.35511868167489
 One-Electron (alpha) Energy = -421.07446944050594
 One-Electron (beta)  Energy = -421.07446944050582
 Total Coulomb        Energy = 359.45489735163522
    9    -317.1306348313      3.64e-07  Convergence criterion met
 ---------------------------------------
 SCF time:   CPU 21.58s  wall 2.00s 
<S^2> =          0.000000000
 Alpha HF Exchange    Energy =  -3.82238486219678
 Beta HF Exchange     Energy =  -3.82238486219678
 DFT Correlation      Energy =  -1.88749504733079
 DFT Exchange         Energy = -30.35511868167489
 One-Electron (alpha) Energy = -421.07446944050594
 One-Electron (beta)  Energy = -421.07446944050582
 Total Coulomb        Energy = 359.45489735163522
 Nuclear repulsion Energy = 205.45079015145402
 SCF   energy in the final basis set =     -317.1306348313
 Total energy in the final basis set =     -317.1306348313
 
 --------------------------------------------------------------
 
                    Orbital Energies (a.u.)
 --------------------------------------------------------------
 
 Alpha MOs
 -- Occupied --
-24.789 -24.663 -10.299 -10.228 -10.161  -1.570  -1.168  -0.769
 -0.750  -0.728  -0.694  -0.625  -0.533  -0.470  -0.461  -0.403
 -0.391  -0.381  -0.327  -0.272  -0.257
 -- Virtual --
  0.098   0.119   0.138   0.168   0.178   0.186   0.197   0.253
  0.275   0.293   0.503   0.512   0.545   0.586   0.598   0.613
  0.652   0.690   0.786   0.827   0.859   0.883   0.888   0.919
  0.955   0.999   1.131   1.175   1.209   1.242   1.316   1.347
  1.367   1.389   1.415   1.447   1.546   1.601   1.657   1.675
  1.760   1.811   1.828   1.870   1.930   1.988   2.004   2.035
  2.044   2.053   2.079   2.103   2.124   2.145   2.249   2.265
  2.381   2.396   2.450   2.478   2.526   2.659   2.680   2.750
  2.772   2.822   2.852   2.905   3.034   3.116   3.128   3.152
[...]
     10  H        -1.7214119123    1.6082131994   -0.2582046297
     11  H        -2.7477800025    0.1596816833   -0.3778883763
   Point Group: c1    Number of degrees of freedom:    27


   Energy is   -315.810267615

              Constraints and their Current Values
                                        Value     Constraint
   Distance(Angs):        1   3             0.700000     0.700000
 Hessian Updated using BFGS Update

 26 Hessian modes will be used to form the next step
  Hessian Eigenvalues:
     0.001565    0.007000    0.054581    0.096145    0.134366    0.170652
     0.217166    0.364259    0.640641    0.676294    0.723818    0.832451
     1.056341    1.154102    1.176174    1.212288    1.242752    1.478334
     1.997841    2.260331    2.563114    2.606390    2.639741    2.651349
     2.655987    3.793180

 Minimum Search - Taking Simple RFO Step
 Searching for Lamda that Minimizes Along All modes
 Value Taken    Lamda =   0.00000000
 Step Taken.  Stepsize is  0.008521

                             Maximum     Tolerance    Cnvgd?
         Gradient           0.000311      0.000300      NO
         Displacement       0.004558      0.001200      NO
         Energy change     -0.000001      0.000001      NO


 New Cartesian Coordinates Obtained by Inverse Iteration

 Displacement from previous Coordinates is:  0.008881
 ----------------------------------------------------------------
             Standard Nuclear Orientation (Angstroms)
    I     Atom           X                Y                Z
 ----------------------------------------------------------------
    1      F      -0.4002610823    -0.9858394395    -0.1295377742
    2      F       1.9486517034    -0.1917352340     0.1105696803
    3      C      -0.4346217757    -0.3083645850    -0.3023027133
    4      C       0.8516856152     0.6852366576     0.3169044008
    5      C      -1.8604948055     0.5895072592     0.1090840078
    6      H      -0.3316857478     0.0261945456    -1.5356221910
    7      H       0.9848765603     1.5989754525    -0.2680403941
    8      H       0.8080217464     0.9094884503     1.3937641209
    9      H      -2.0441040411     0.6176293981     1.1938276793
   10      H      -1.7207318203     1.6086011994    -0.2579419161
   11      H      -2.7476363524     0.1607062959    -0.3790049004
 ----------------------------------------------------------------
 Nuclear Repulsion Energy =   208.4887052862 hartrees
 There are       21 alpha and       21 beta electrons

                       Distance Matrix (Angstroms)
             F (  1)   F (  2)   C (  3)   C (  4)   C (  5)   H (  6)
   F (  2)  2.491113
   C (  3)  0.700000  2.421582
   C (  4)  2.135223  1.419503  1.739324
   C (  5)  2.161236  3.888437  1.734511  2.721815
   H (  6)  1.733779  2.820883  1.282031  2.294898  2.315089
   H (  7)  2.935823  2.068539  2.377834  1.093078  3.042595  2.411170
   H (  8)  2.715265  2.039686  2.429809  1.100828  2.978888  3.265034
   H (  9)  2.650401  4.215521  2.384597  3.026411  1.100533  3.275984
   H ( 10)  2.913975  4.103826  2.308854  2.792916  1.092151  2.462910
   H ( 11)  2.624304  4.734873  2.361344  3.703315  1.099600  2.681916
             H (  7)   H (  8)   H (  9)   H ( 10)
   H (  8)  1.807834
   H (  9)  3.503544  2.873983
   H ( 10)  2.705644  3.100240  1.787241
   H ( 11)  4.001573  4.043030  1.782565  1.779210
 
 Applying Cartesian multipole field
    Component          Value
    ---------          -----
     (2,0,0)        1.00000E-11
     (0,2,0)        2.00000E-11
     (0,0,2)       -3.00000E-10
 Nucleus-field energy     =    -0.0000000037 hartrees
 Requested basis set is 6-31G(d,p)
 There are 38 shells and 105 basis functions
 A cutoff of  1.0D-14 yielded    720 shell pairs
 There are      5623 function pairs
 Smallest overlap matrix eigenvalue = 1.49E-03
 Guess from superposition of atomic densities
 Warning:  Energy on first SCF cycle will be non-variational
 SAD guess density has 42.000000 electrons

 -----------------------------------------------------------------------
  General SCF calculation program by
  Eric Jon Sundstrom, Paul Horn, Yuezhi Mao, Dmitri Zuev, Alec White,
  David Stuck, Shaama M.S., Shane Yost, Joonho Lee, David Small,
  Daniel Levine, Susi Lehtola, Hugh Burton, Evgeny Epifanovsky
 -----------------------------------------------------------------------
 Exchange:     0.2000 Hartree-Fock + 0.0800 Slater + 0.7200 B88
 Correlation:  0.1900 VWN1RPA + 0.8100 LYP
 Using SG-1 standard quadrature grid
 using 12 threads for integral computing
 -------------------------------------------------------
 OpenMP Integral computing Module                
 Release: version 1.0, May 2013, Q-Chem Inc. Pittsburgh 
 -------------------------------------------------------
 -------------------------------------------------------
 OpenMP BLAS3 based DFT computing Module                
 Release: version 1.0, May 2013, Q-Chem Inc. Pittsburgh 
 -------------------------------------------------------
 A unrestricted SCF calculation will be
 performed using DIIS
 SCF converges when DIIS error is below 1.0e-06
 Alpha HF Exchange    Energy =  -3.89573498342781
 Beta HF Exchange     Energy =  -3.89573498342781
 DFT Correlation      Energy =  -1.87158112323874
 DFT Exchange         Energy = -29.93460531075254
 One-Electron (alpha) Energy = -420.67834950432564
 One-Electron (beta)  Energy = -420.67834950432564
 Total Coulomb        Energy = 353.52455426700652
 ---------------------------------------
  Cycle       Energy         DIIS error
 ---------------------------------------
    1    -318.9410958601      5.84e-02  
 Alpha HF Exchange    Energy =  -3.89049096900853
 Beta HF Exchange     Energy =  -3.89049096900853
 DFT Correlation      Energy =  -1.90068884062285
 DFT Exchange         Energy = -30.92430044670856
 One-Electron (alpha) Energy = -423.74147962076017
 One-Electron (beta)  Energy = -423.74147962076023
 Total Coulomb        Energy = 363.90383692623442
    2    -315.6963882582      5.14e-03  
 Alpha HF Exchange    Energy =  -3.80103276921742
 Beta HF Exchange     Energy =  -3.80103276921742
 DFT Correlation      Energy =  -1.87257669842648
 DFT Exchange         Energy = -30.19709147221726
 One-Electron (alpha) Energy = -419.64208446337523
 One-Electron (beta)  Energy = -419.64208446337534
 Total Coulomb        Energy = 354.77425278902047
    3    -315.6929445644      4.80e-03  
 Alpha HF Exchange    Energy =  -3.84507790823240
 Beta HF Exchange     Energy =  -3.84507790823240
 DFT Correlation      Energy =  -1.88801377770156
 DFT Exchange         Energy = -30.55235562798843
 One-Electron (alpha) Energy = -421.85242085166271
 One-Electron (beta)  Energy = -421.85242085166283
 Total Coulomb        Energy = 359.53996345763431
    4    -315.8066981854      8.28e-04  
 Alpha HF Exchange    Energy =  -3.84327511886828
 Beta HF Exchange     Energy =  -3.84327511886828
 DFT Correlation      Energy =  -1.88721684309782
 DFT Exchange         Energy = -30.53894747406549
 One-Electron (alpha) Energy = -421.80019678721891
 One-Electron (beta)  Energy = -421.80019678721902
 Total Coulomb        Energy = 359.41440374418511
    5    -315.8099991027      2.36e-04  
 Alpha HF Exchange    Energy =  -3.84252999555892
 Beta HF Exchange     Energy =  -3.84252999555891
 DFT Correlation      Energy =  -1.88681996858682
 DFT Exchange         Energy = -30.53235065534542
 One-Electron (alpha) Energy = -421.72043942756676
 One-Electron (beta)  Energy = -421.72043942756636
 Total Coulomb        Energy = 359.24615054683585
    6    -315.8102536409      5.42e-05  
 Alpha HF Exchange    Energy =  -3.84244373490661
 Beta HF Exchange     Energy =  -3.84244373490661
 DFT Correlation      Energy =  -1.88687816344436
 DFT Exchange         Energy = -30.53191267895825
 One-Electron (alpha) Energy = -421.72892841616675
 One-Electron (beta)  Energy = -421.72892841616670
 Total Coulomb        Energy = 359.26256317315068
    7    -315.8102666890      1.95e-05  
 Alpha HF Exchange    Energy =  -3.84254122972526
 Beta HF Exchange     Energy =  -3.84254122972526
 DFT Correlation      Energy =  -1.88688286794160
 DFT Exchange         Energy = -30.53260174050997
 One-Electron (alpha) Energy = -421.73198042437360
 One-Electron (beta)  Energy = -421.73198042437360
 Total Coulomb        Energy = 359.26955456245065
    8    -315.8102680718      5.07e-06  
 Alpha HF Exchange    Energy =  -3.84251996330380
 Beta HF Exchange     Energy =  -3.84251996330381
 DFT Correlation      Energy =  -1.88687961236925
 DFT Exchange         Energy = -30.53243874153244
 One-Electron (alpha) Energy = -421.73091525725255
 One-Electron (beta)  Energy = -421.73091525725249
 Total Coulomb        Energy = 359.26721532892464
    9    -315.8102681837      8.82e-07  Convergence criterion met
 ---------------------------------------
 SCF time:   CPU 21.35s  wall 1.00s 
<S^2> =         -0.000000000
 Alpha HF Exchange    Energy =  -3.84251996330380
 Beta HF Exchange     Energy =  -3.84251996330381
 DFT Correlation      Energy =  -1.88687961236925
 DFT Exchange         Energy = -30.53243874153244
 One-Electron (alpha) Energy = -421.73091525725255
 One-Electron (beta)  Energy = -421.73091525725249
 Total Coulomb        Energy = 359.26721532892464
 Nuclear repulsion Energy = 208.48870528242779
 SCF   energy in the final basis set =     -315.8102681837
 Total energy in the final basis set =     -315.8102681837
 
 --------------------------------------------------------------
 
                    Orbital Energies (a.u.)
 --------------------------------------------------------------
 
 Alpha MOs
 -- Occupied --
-24.992 -24.657 -10.500 -10.211 -10.143  -1.803  -1.156  -0.976
 -0.975  -0.857  -0.702  -0.639  -0.527  -0.454  -0.450  -0.389
 -0.375  -0.374  -0.322  -0.226  -0.213
 -- Virtual --
  0.090   0.125   0.131   0.167   0.172   0.182   0.191   0.248
  0.272   0.293   0.430   0.440   0.524   0.568   0.579   0.603
  0.654   0.685   0.753   0.818   0.859   0.892   0.898   0.929
  0.971   0.988   1.099   1.126   1.163   1.239   1.268   1.306
  1.348   1.423   1.454   1.500   1.539   1.550   1.585   1.652
  1.790   1.837   1.850   1.863   1.919   1.983   1.988   1.999
  2.039   2.059   2.071   2.104   2.108   2.123   2.235   2.293
  2.353   2.374   2.390   2.462   2.507   2.591   2.648   2.716
  2.791   2.818   2.838   2.863   2.984   3.034   3.182   3.246
  3.396   3.419   3.442   3.486   3.582   3.766   4.202   4.243
  4.513   4.570   6.023   7.807
 
 Beta MOs
 -- Occupied --
-24.992 -24.657 -10.500 -10.211 -10.143  -1.803  -1.156  -0.976
 -0.975  -0.857  -0.702  -0.639  -0.527  -0.454  -0.450  -0.389
 -0.375  -0.374  -0.322  -0.226  -0.213
 -- Virtual --
  0.090   0.125   0.131   0.167   0.172   0.182   0.191   0.248
  0.272   0.293   0.430   0.440   0.524   0.568   0.579   0.603
  0.654   0.685   0.753   0.818   0.859   0.892   0.898   0.929
  0.971   0.988   1.099   1.126   1.163   1.239   1.268   1.306
  1.348   1.423   1.454   1.500   1.539   1.550   1.585   1.652
  1.790   1.837   1.850   1.863   1.919   1.983   1.988   1.999
  2.039   2.059   2.071   2.104   2.108   2.123   2.235   2.293
  2.353   2.374   2.390   2.462   2.507   2.591   2.648   2.716
  2.791   2.818   2.838   2.863   2.984   3.034   3.182   3.246
  3.396   3.419   3.442   3.486   3.582   3.766   4.202   4.243
  4.513   4.570   6.023   7.807
 --------------------------------------------------------------
 
          Ground-State Mulliken Net Atomic Charges

     Atom                 Charge (a.u.)    Spin (a.u.)
  --------------------------------------------------------
      1 F                     0.999301       0.000000
      2 F                    -0.361004       0.000000
      3 C                    -0.292204      -0.000000
      4 C                    -0.067784       0.000000
      5 C                    -0.532123       0.000000
      6 H                    -0.181608       0.000000
      7 H                     0.092493      -0.000000
      8 H                     0.073545      -0.000000
      9 H                     0.078336      -0.000000
     10 H                     0.109635      -0.000000
     11 H                     0.081415      -0.000000
  --------------------------------------------------------
  Sum of atomic charges =    -0.000000
  Sum of spin   charges =     0.000000

 -----------------------------------------------------------------
                    Cartesian Multipole Moments
 -----------------------------------------------------------------
    Charge (ESU x 10^10)
                 0.0000
    Dipole Moment (Debye)
         X      -1.2727      Y      -2.1826      Z       0.9656
       Tot       2.7048
    Quadrupole Moments (Debye-Ang)
        XX     -35.9180     XY       2.8091     YY     -25.9111
        XZ      -0.1560     YZ       0.2114     ZZ     -31.4337
    Octopole Moments (Debye-Ang^2)
       XXX      10.0281    XXY      -6.5043    XYY       3.9549
       YYY     -16.0182    XXZ      -1.9845    XYZ       0.0222
       YYZ      -1.6907    XZZ       5.2149    YZZ      -5.1451
       ZZZ       4.9822
    Hexadecapole Moments (Debye-Ang^3)
      XXXX    -393.0031   XXXY      21.7090   XXYY     -78.1193
      XYYY      14.8196   YYYY     -99.1300   XXXZ      -5.9819
      XXYZ      -3.6319   XYYZ      -2.1442   YYYZ     -10.7631
      XXZZ     -72.1939   XYZZ       5.0153   YYZZ     -28.4266
      XZZZ     -10.0054   YZZZ      -9.1782   ZZZZ     -76.9846
 -----------------------------------------------------------------
 Calculating analytic gradient of the SCF energy
 Gradient of SCF Energy
            1           2           3           4           5           6
    1  -0.3012710  -0.0001280   0.3011021   0.0000430  -0.0000249   0.0000487
    2   5.9337635   0.0000688  -5.9337403   0.0000389  -0.0001499   0.0001584
    3  -1.5130987  -0.0000480   1.5129629   0.0002815   0.0001620   0.0000598
            7           8           9          10          11
    1   0.0000634   0.0000244   0.0000761   0.0000699  -0.0000039
    2   0.0001405  -0.0000756  -0.0000034  -0.0000654  -0.0001355
    3   0.0000160  -0.0002051  -0.0001674   0.0000170   0.0000200
 Max gradient component =       5.934E+00
 RMS gradient           =       1.509E+00
 Gradient time:  CPU 8.42 s  wall 0.76 s
 Geometry Optimization Parameters
   NAtoms,    NIC,     NZ,  NCons,   NDum,   NFix, NCnnct, MaxDiis
       11      68       0       1       0       0       0       0

 Cartesian Hessian Update
 Hessian Updated using BFGS Update
**WARNING** Hereditary positive definiteness endangered


** CONSTRAINED OPTIMIZATION IN DELOCALIZED INTERNAL COORDINATES **
   Searching for a Minimum

   Optimization Cycle:  48

                       Coordinates (Angstroms)
     ATOM                X               Y               Z
      1  F        -0.4002610823   -0.9858394395   -0.1295377742
      2  F         1.9486517034   -0.1917352340    0.1105696803
      3  C        -0.4346217757   -0.3083645850   -0.3023027133
      4  C         0.8516856152    0.6852366576    0.3169044008
      5  C        -1.8604948055    0.5895072592    0.1090840078
      6  H        -0.3316857478    0.0261945456   -1.5356221910
      7  H         0.9848765603    1.5989754525   -0.2680403941
      8  H         0.8080217464    0.9094884503    1.3937641209
      9  H        -2.0441040411    0.6176293981    1.1938276793
     10  H        -1.7207318203    1.6086011994   -0.2579419161
     11  H        -2.7476363524    0.1607062959   -0.3790049004
   Point Group: c1    Number of degrees of freedom:    27


   Energy is   -315.810268184

              Constraints and their Current Values
                                        Value     Constraint
   Distance(Angs):        1   3             0.700000     0.700000
 Hessian Updated using BFGS Update

 26 Hessian modes will be used to form the next step
  Hessian Eigenvalues:
     0.001526    0.006732    0.054216    0.089705    0.134310    0.168152
     0.217921    0.364105    0.627474    0.665687    0.721460    0.811898
     0.958726    1.066002    1.157384    1.208489    1.221696    1.436460
     1.993136    2.176730    2.563085    2.581731    2.636945    2.651024
     2.655257    3.760507

 Minimum Search - Taking Simple RFO Step
 Searching for Lamda that Minimizes Along All modes
 Value Taken    Lamda =   0.00000000
 Step Taken.  Stepsize is  0.005991

                             Maximum     Tolerance    Cnvgd?
         Gradient           0.000293      0.000300     YES
         Displacement       0.003291      0.001200      NO
         Energy change     -0.000001      0.000001     YES


                       Distance Matrix (Angstroms)
             F (  1)   F (  2)   C (  3)   C (  4)   C (  5)   H (  6)
   F (  2)  2.491113
   C (  3)  0.700000  2.421582
   C (  4)  2.135223  1.419503  1.739324
   C (  5)  2.161236  3.888437  1.734511  2.721815
   H (  6)  1.733779  2.820883  1.282031  2.294898  2.315089
   H (  7)  2.935823  2.068539  2.377834  1.093078  3.042595  2.411170
   H (  8)  2.715265  2.039686  2.429809  1.100828  2.978888  3.265034
   H (  9)  2.650401  4.215521  2.384597  3.026411  1.100533  3.275984
   H ( 10)  2.913975  4.103826  2.308854  2.792916  1.092151  2.462910
   H ( 11)  2.624304  4.734873  2.361344  3.703315  1.099600  2.681916
             H (  7)   H (  8)   H (  9)   H ( 10)
   H (  8)  1.807834
   H (  9)  3.503544  2.873983
   H ( 10)  2.705644  3.100240  1.787241
   H ( 11)  4.001573  4.043030  1.782565  1.779210
 
 Final energy is   -315.810268183662     


 ******************************
 **  OPTIMIZATION CONVERGED  **
 ******************************

                       Coordinates (Angstroms)
     ATOM                X               Y               Z
      1  F        -0.4002610823   -0.9858394395   -0.1295377742
      2  F         1.9486517034   -0.1917352340    0.1105696803
      3  C        -0.4346217757   -0.3083645850   -0.3023027133
      4  C         0.8516856152    0.6852366576    0.3169044008
      5  C        -1.8604948055    0.5895072592    0.1090840078
      6  H        -0.3316857478    0.0261945456   -1.5356221910
      7  H         0.9848765603    1.5989754525   -0.2680403941
      8  H         0.8080217464    0.9094884503    1.3937641209
      9  H        -2.0441040411    0.6176293981    1.1938276793
     10  H        -1.7207318203    1.6086011994   -0.2579419161
     11  H        -2.7476363524    0.1607062959   -0.3790049004

Z-matrix Print:
$molecule
0 1
F 
C  1 0.700000
H  2 1.282031 1 119.081352
C  2 1.734511 1 118.869020 3 120.963567 0
H  4 1.092151 2 107.344688 1 -179.114067 0
H  4 1.099600 2 110.859952 1 -60.723728 0
H  4 1.100533 2 112.591123 1 60.688873 0
C  2 1.739324 1 115.385616 3 -115.700293 0
H  8 1.093078 2 112.156310 1 157.572886 0
H  8 1.100828 2 115.803838 1 -73.651592 0
F  8 1.419503 2 99.603846 1 41.076180 0
$end

PES scan, value:    0.7000 energy: -315.8102681837
------- Summary of potential scan: ------ 
    0.7000      -315.8102681837
----------------------------------------- 
Archival summary:
1\1\hpc0244\JobtypUnspecified\ProcedureUnspecified\6-31G**\236\knomura\WedMar1316:30:032019WedMar1316:30:032019\0\\#,JobtypUnspecified,ProcedureUnspecified,6-31G**,\\0,1\F\C,1,0.7\H,2,1.28203,1,119.081\C,2,1.73451,1,118.869,3,120.964,0\H,4,1.09215,2,107.345,1,-179.114,0\H,4,1.0996,2,110.86,1,-60.7237,0\H,4,1.10053,2,112.591,1,60.6889,0\C,2,1.73932,1,115.386,3,-115.7,0\H,8,1.09308,2,112.156,1,157.573,0\H,8,1.10083,2,115.804,1,-73.6516,0\F,8,1.4195,2,99.6038,1,41.0762,0\\\@

 Total job time:  142.88s(wall), 1630.52s(cpu) 
 Wed Mar 13 16:30:03 2019

        *************************************************************
        *                                                           *
        *  Thank you very much for using Q-Chem.  Have a nice day.  *
        *                                                           *
        *************************************************************


