
Running Job 1 of 1 ruruma/CH3CH2CHCl2_afterGeo_siglet.xyz.data/inputs/bond_singlet_4.7.in
qchem ruruma/CH3CH2CHCl2_afterGeo_siglet.xyz.data/inputs/bond_singlet_4.7.in_17864.0 /staging/scratch/2858534/qchem17864/ 1
/usr/usc/qchem/5.1.1/exe/qcprog.exe_s ruruma/CH3CH2CHCl2_afterGeo_siglet.xyz.data/inputs/bond_singlet_4.7.in_17864.0 /staging/scratch/2858534/qchem17864/
Check license passed

                  Welcome to Q-Chem
     A Quantum Leap Into The Future Of Chemistry


 Q-Chem 5.1, Q-Chem, Inc., Pleasanton, CA (2018)

 Yihan Shao,  Zhengting Gan,  E. Epifanovsky,  A. T. B. Gilbert,  M. Wormit,  
 J. Kussmann,  A. W. Lange,  A. Behn,  Jia Deng,  Xintian Feng,  D. Ghosh,  
 M. Goldey,  P. R. Horn,  L. D. Jacobson,  I. Kaliman,  T. Kus,  A. Landau,  
 Jie Liu,  E. I. Proynov,  R. M. Richard,  R. P. Steele,  E. J. Sundstrom,  
 H. L. Woodcock III,  P. M. Zimmerman,  D. Zuev,  B. Albrecht,  E. Alguire,  
 S. A. Baeppler,  D. Barton,  Z. Benda,  Y. A. Bernard,  E. J. Berquist,  
 K. B. Bravaya,  H. Burton,  D. Casanova,  Chun-Min Chang,  Yunqing Chen,  
 A. Chien,  K. D. Closser,  M. P. Coons,  S. Coriani,  S. Dasgupta,  
 A. L. Dempwolff,  M. Diedenhofen,  Hainam Do,  R. G. Edgar,  Po-Tung Fang,  
 S. Faraji,  S. Fatehi,  Qingguo Feng,  K. D. Fenk,  J. Fosso-Tande,  
 Qinghui Ge,  A. Ghysels,  G. Gidofalvi,  J. Gomes,  J. Gonthier,  A. Gunina,  
 D. Hait,  M. W. D. Hanson-Heine,  P. H. P. Harbach,  A. W. Hauser,  
 J. E. Herr,  E. G. Hohenstein,  Z. C. Holden,  Kerwin Hui,  B. C. Huynh,  
 T.-C. Jagau,  Hyunjun Ji,  B. Kaduk,  K. Khistyaev,  Jaehoon Kim,  
 P. Klunzinger,  K. Koh,  D. Kosenkov,  L. Koulias,  T. Kowalczyk,  
 C. M. Krauter,  A. Kunitsa,  Ka Un Lao,  A. Laurent,  K. V. Lawler,  
 Joonho Lee,  D. Lefrancois,  S. Lehtola,  D. S. Levine,  Yi-Pei Li,  
 You-Sheng Lin,  Fenglai Liu,  E. Livshits,  A. Luenser,  P. Manohar,  
 E. Mansoor,  S. F. Manzer,  Shan-Ping Mao,  Yuezhi Mao,  N. Mardirossian,  
 A. V. Marenich,  T. Markovich,  L. A. Martinez-Martinez,  S. A. Maurer,  
 N. J. Mayhall,  S. C. McKenzie,  J.-M. Mewes,  A. F. Morrison,  
 J. W. Mullinax,  K. Nanda,  T. S. Nguyen-Beck,  R. Olivares-Amaya,  
 J. A. Parkhill,  T. M. Perrine,  F. Plasser,  P. Pokhilko,  S. Prager,  
 A. Prociuk,  E. Ramos,  D. R. Rehn,  F. Rob,  M. Schneider,  N. Sergueev,  
 S. M. Sharada,  S. Sharma,  D. W. Small,  T. Stauch,  T. Stein,  
 Yu-Chuan Su,  A. J. W. Thom,  A. Tkatchenko,  T. Tsuchimochi,  N. M. Tubman,  
 L. Vogt,  M. L. Vidal,  O. Vydrov,  M. A. Watson,  J. Wenzel,  
 M. de Wergifosse,  T. A. Wesolowski,  A. White,  J. Witte,  A. Yamada,  
 Jun Yang,  K. Yao,  S. Yeganeh,  S. R. Yost,  Zhi-Qiang You,  A. Zech,  
 Igor Ying Zhang,  Xing Zhang,  Yan Zhao,  Ying Zhu,  B. R. Brooks,  
 G. K. L. Chan,  C. J. Cramer,  M. S. Gordon,  W. J. Hehre,  A. Klamt,  
 M. W. Schmidt,  C. D. Sherrill,  D. G. Truhlar,  A. Aspuru-Guzik,  R. Baer,  
 A. T. Bell,  N. A. Besley,  Jeng-Da Chai,  A. E. DePrince, III,  
 R. A. DiStasio Jr.,  A. Dreuw,  B. D. Dunietz,  T. R. Furlani,  
 Chao-Ping Hsu,  Yousung Jung,  Jing Kong,  D. S. Lambrecht,  WanZhen Liang,  
 C. Ochsenfeld,  V. A. Rassolov,  L. V. Slipchenko,  J. E. Subotnik,  
 T. Van Voorhis,  J. M. Herbert,  A. I. Krylov,  P. M. W. Gill,  M. Head-Gordon

 Contributors to earlier versions of Q-Chem not listed above: 
 R. D. Adamson,  B. Austin,  J. Baker,  G. J. O. Beran,  K. Brandhorst,  
 S. T. Brown,  E. F. C. Byrd,  A. K. Chakraborty,  C.-L. Cheng,  
 Siu Hung Chien,  D. M. Chipman,  D. L. Crittenden,  H. Dachsel,  
 R. J. Doerksen,  A. D. Dutoi,  L. Fusti-Molnar,  W. A. Goddard III,  
 A. Golubeva-Zadorozhnaya,  S. R. Gwaltney,  G. Hawkins,  A. Heyden,  
 S. Hirata,  G. Kedziora,  F. J. Keil,  C. Kelley,  Jihan Kim,  R. A. King,  
 R. Z. Khaliullin,  P. P. Korambath,  W. Kurlancheek,  A. M. Lee,  M. S. Lee,  
 S. V. Levchenko,  Ching Yeh Lin,  D. Liotard,  R. C. Lochan,  I. Lotan,  
 P. E. Maslen,  N. Nair,  D. P. O'Neill,  D. Neuhauser,  E. Neuscamman,  
 C. M. Oana,  R. Olson,  B. Peters,  R. Peverati,  P. A. Pieniazek,  
 Y. M. Rhee,  J. Ritchie,  M. A. Rohrdanz,  E. Rosta,  N. J. Russ,  
 H. F. Schaefer III,  N. E. Schultz,  N. Shenvi,  A. C. Simmonett,  A. Sodt,  
 D. Stuck,  K. S. Thanthiriwatte,  V. Vanovschi,  Tao Wang,  A. Warshel,  
 C. F. Williams,  Q. Wu,  X. Xu,  W. Zhang

 Please cite Q-Chem as follows:
 Y. Shao et al., Mol. Phys. 113, 184-215 (2015)
 DOI: 10.1080/00268976.2014.952696

 Q-Chem 5.1.1 for Intel X86 EM64T Linux

 Parts of Q-Chem use Armadillo 8.300.2 (Tropical Shenanigans).
 http://arma.sourceforge.net/

 Q-Chem begins on Mon Mar 11 22:02:12 2019  

Host: 
0

     Scratch files written to /staging/scratch/2858534/qchem17864//
 Aug318 |scratch|qcdevops|jenkins|workspace|build_RNUM 6013   
Processing $rem in /usr/usc/qchem/5.1.1/config/preferences.
 MEM_TOTAL  2000 
Input Ideriv = 2
Curr. Ideriv = -1
Max.  Ideriv = 2

Checking the input file for inconsistencies... 	...done.

--------------------------------------------------------------
User input:
--------------------------------------------------------------

$comment
potential surface scanner
$end

$rem
JOBTYPE  PES_SCAN
UNRESTRICTED TRUE
SYM_IGNORE  TRUE
GEOM_OPT_MAX_CYCLES 400
SCF_MAX_CYCLES 400
METHOD   B3LYP
BASIS   6-31G**
PDB_PRINT 2
SCF_CONVERGENCE 6
THRESH 14
SCF_PRINT 1
$end
$molecule
0 1
Cl 0.057193 -2.811992 -1.773797
Cl 0.964350 1.959183 -0.051771
C -0.974104 0.205695 0.829289
C 0.320774 0.832432 1.020608
C -1.442606 -0.212540 -0.578799
H -1.700142 0.988484 1.144246
H -1.073720 -0.607124 1.555047
H 0.944154 0.638765 1.887858
H -0.886419 -1.130521 -0.887546
H -2.511954 -0.433104 -0.548953
H -1.269628 0.570722 -1.320784
$end
$scan
stre 1 4 4.700000 4.701000 0.100000
$end
--------------------------------------------------------------
 ----------------------------------------------------------------
             Standard Nuclear Orientation (Angstroms)
    I     Atom           X                Y                Z
 ----------------------------------------------------------------
    1      Cl      0.0571930000    -2.8119920000    -1.7737970000
    2      Cl      0.9643500000     1.9591830000    -0.0517710000
    3      C      -0.9741040000     0.2056950000     0.8292890000
    4      C       0.3207740000     0.8324320000     1.0206080000
    5      C      -1.4426060000    -0.2125400000    -0.5787990000
    6      H      -1.7001420000     0.9884840000     1.1442460000
    7      H      -1.0737200000    -0.6071240000     1.5550470000
    8      H       0.9441540000     0.6387650000     1.8878580000
    9      H      -0.8864190000    -1.1305210000    -0.8875460000
   10      H      -2.5119540000    -0.4331040000    -0.5489530000
   11      H      -1.2696280000     0.5707220000    -1.3207840000
 ----------------------------------------------------------------
 Nuclear Repulsion Energy =   240.1193400988 hartrees
 There are       29 alpha and       29 beta electrons
 Requested basis set is 6-31G(d,p)
 There are 40 shells and 113 basis functions

 Total QAlloc Memory Limit   2000 MB
 Mega-Array Size       188 MB
 MEM_STATIC part       192 MB
A total of 1 constraints
  
            1
    1   1.0100000
    2   1.0100000
    3   4.0100000
    4   4.7000000
    5   4.7010000
    6   0.1000000
    7   0.0000000
    8   0.0000000
    9   0.0000000
   10   0.0000000

                       Distance Matrix (Angstroms)
             Cl(  1)   Cl(  2)   C (  3)   C (  4)   C (  5)   H (  6)
   Cl(  2)  5.152904
   C (  3)  4.116560  2.758367
   C (  4)  4.600000  1.683376  1.451245
   C (  5)  3.230258  3.284445  1.541793  2.599919
   H (  6)  5.103608  3.077699  1.113143  2.030699  2.116050
   H (  7)  4.149893  3.649866  1.094222  2.074261  2.201152  1.762704
   H (  8)  5.109025  2.346502  2.233345  1.085464  3.536346  2.769037
   H (  9)  2.122072  3.697315  2.177311  2.991914  1.116852  3.046392
   H ( 10)  3.709430  4.249108  2.161619  3.476989  1.092266  2.355180
   H ( 11)  3.661752  2.920424  2.200771  2.842532  1.092686  2.536975
             H (  7)   H (  8)   H (  9)   H ( 10)
   H (  8)  2.394748
   H (  9)  2.505052  3.766197
   H ( 10)  2.554529  4.362526  1.800944
   H ( 11)  3.113857  3.898826  1.796878  1.773912
 
 A cutoff of  1.0D-14 yielded    757 shell pairs
 There are      6125 function pairs
 
 -------------------------------------------------------
 OpenMP Integral Computing Module                       
 Release: version 1.0, May 2013, Q-Chem Inc. Pittsburgh 
 -------------------------------------------------------
 Integral Job Info:
 Integral job number is                      11
 Integral operator is                         1
 short-range coefficients                     0
 long-range coefficients              100000000
 Omega coefficients                           0
 if combine SR and LR in K                    0
 Integral screening is                        0
 Integral computing path is                   2
 max size of driver memory is            800000
 size of driver memory is                593474
 size of scratch memory is             15267112
 max col of scratch BK array               1296
 max len of scratch array in speh3          155
 max len of scratch index in speh4           18
 max int batch size is                      520
 min int batch size is                       52
 fixed nKL is                                52
 max L of basis functions is                  2
 order of int derivative is                   0
 number of shells is                         40
 number of basis is                         113
 number of cartesian basis is               113
 number of contracted shell pairs           757
 number of primitive shell pairs           3035
 maxK2 (contraction) of shell pair           36
 max number of K2 of shell pair               1
 max number of CS2 of shell pair             60
 max number of PS2 of shell pair            306
 mem total for path MDJ                  516588
 -------------------------------------------------------
 Smallest overlap matrix eigenvalue = 5.21E-03

 Scale SEOQF with 1.000000e-01/1.000000e-01/1.000000e-01

 Standard Electronic Orientation quadrupole field applied
 Nucleus-field energy     =     0.0000000084 hartrees
 Guess from superposition of atomic densities
 Warning:  Energy on first SCF cycle will be non-variational
 SAD guess density has 58.000000 electrons

 -----------------------------------------------------------------------
  General SCF calculation program by
  Eric Jon Sundstrom, Paul Horn, Yuezhi Mao, Dmitri Zuev, Alec White,
  David Stuck, Shaama M.S., Shane Yost, Joonho Lee, David Small,
  Daniel Levine, Susi Lehtola, Hugh Burton, Evgeny Epifanovsky
 -----------------------------------------------------------------------
 Exchange:     0.2000 Hartree-Fock + 0.0800 Slater + 0.7200 B88
 Correlation:  0.1900 VWN1RPA + 0.8100 LYP
 Using SG-1 standard quadrature grid
 using 12 threads for integral computing
 -------------------------------------------------------
 OpenMP Integral computing Module                
 Release: version 1.0, May 2013, Q-Chem Inc. Pittsburgh 
 -------------------------------------------------------
 -------------------------------------------------------
 OpenMP BLAS3 based DFT computing Module                
 Release: version 1.0, May 2013, Q-Chem Inc. Pittsburgh 
 -------------------------------------------------------
 A unrestricted SCF calculation will be
 performed using DIIS
 SCF converges when DIIS error is below 1.0e-06
 Alpha HF Exchange    Energy =  -7.28103724196946
 Beta HF Exchange     Energy =  -7.28103724196946
 DFT Correlation      Energy =  -2.75958437915714
 DFT Exchange         Energy = -57.35077443318583
 One-Electron (alpha) Energy = -951.20720360563996
 One-Electron (beta)  Energy = -951.20720360563996
 Total Coulomb        Energy = 698.21564744012255
 ---------------------------------------
  Cycle       Energy         DIIS error
 ---------------------------------------
    1   -1038.7518529602      2.77e-02  
 Alpha HF Exchange    Energy =  -7.29549038418744
 Beta HF Exchange     Energy =  -7.29549038418744
 DFT Correlation      Energy =  -2.78303075776260
 DFT Exchange         Energy = -57.88539968688575
 One-Electron (alpha) Energy = -954.22945401519814
 One-Electron (beta)  Energy = -954.22945401519826
 Total Coulomb        Energy = 705.55121905898397
    2   -1038.0477600772      4.05e-03  
 Alpha HF Exchange    Energy =  -7.26596432402059
 Beta HF Exchange     Energy =  -7.26596432402058
 DFT Correlation      Energy =  -2.77744723896314
 DFT Exchange         Energy = -57.69339202930773
 One-Electron (alpha) Energy = -951.84538164099763
 One-Electron (beta)  Energy = -951.84538164099683
 Total Coulomb        Energy = 706.14274199107024
    3   -1032.4314491000      2.02e-02  
 Alpha HF Exchange    Energy =  -7.23055232215417
 Beta HF Exchange     Energy =  -7.23055232215418
 DFT Correlation      Energy =  -2.76466994989705
 DFT Exchange         Energy = -57.45604708945336
 One-Electron (alpha) Energy = -951.41887083750237
 One-Electron (beta)  Energy = -951.41887083750282
 Total Coulomb        Energy = 699.36968714466877
    4   -1038.0305361067      4.67e-03  
 Alpha HF Exchange    Energy =  -7.25513052220287
 Beta HF Exchange     Energy =  -7.25513052220288
 DFT Correlation      Energy =  -2.77094161315295
 DFT Exchange         Energy = -57.60598616244110
 One-Electron (alpha) Energy = -952.41875719075313
 One-Electron (beta)  Energy = -952.41875719075369
 Total Coulomb        Energy = 701.39788348450907
    5   -1038.2074796097      1.02e-03  
 Alpha HF Exchange    Energy =  -7.25058688364029
 Beta HF Exchange     Energy =  -7.25058688364029
 DFT Correlation      Energy =  -2.77357442656417
 DFT Exchange         Energy = -57.62436940314886
 One-Electron (alpha) Energy = -952.67423275655449
 One-Electron (beta)  Energy = -952.67423275655472
 Total Coulomb        Energy = 702.00155700459402
    6   -1038.1266859982      3.00e-03  
 Alpha HF Exchange    Energy =  -7.25543769405523
 Beta HF Exchange     Energy =  -7.25543769405523
 DFT Correlation      Energy =  -2.77314022048889
 DFT Exchange         Energy = -57.63679008962097
 One-Electron (alpha) Energy = -952.72976392113321
 One-Electron (beta)  Energy = -952.72976392113333
 Total Coulomb        Energy = 702.04507486188277
    7   -1038.2159185713      5.55e-04  
 Alpha HF Exchange    Energy =  -7.25354435137766
 Beta HF Exchange     Energy =  -7.25354435137766
 DFT Correlation      Energy =  -2.77264080384464
 DFT Exchange         Energy = -57.62668449286315
 One-Electron (alpha) Energy = -952.65584523439225
 One-Electron (beta)  Energy = -952.65584523439202
 Total Coulomb        Energy = 701.88445230494290
    8   -1038.2143120560      5.63e-04  
 Alpha HF Exchange    Energy =  -7.25455969963601
 Beta HF Exchange     Energy =  -7.25455969963603
 DFT Correlation      Energy =  -2.77256633267127
 DFT Exchange         Energy = -57.62748227034108
 One-Electron (alpha) Energy = -952.64388683945606
 One-Electron (beta)  Energy = -952.64388683945663
 Total Coulomb        Energy = 701.85985272387643
    9   -1038.2177488500      1.73e-04  
 Alpha HF Exchange    Energy =  -7.25520475951641
 Beta HF Exchange     Energy =  -7.25520475951643
 DFT Correlation      Energy =  -2.77260711814603
 DFT Exchange         Energy = -57.62986928455320
 One-Electron (alpha) Energy = -952.65844409143483
 One-Electron (beta)  Energy = -952.65844409143540
 Total Coulomb        Energy = 701.89234791160686
   10   -1038.2180860857      4.03e-05  
 Alpha HF Exchange    Energy =  -7.25536559202874
 Beta HF Exchange     Energy =  -7.25536559202878
 DFT Correlation      Energy =  -2.77259664680735
 DFT Exchange         Energy = -57.63006036145681
 One-Electron (alpha) Energy = -952.65610943787965
 One-Electron (beta)  Energy = -952.65610943787942
 Total Coulomb        Energy = 701.88816138770778
   11   -1038.2181055731      1.03e-05  
 Alpha HF Exchange    Energy =  -7.25534755401904
 Beta HF Exchange     Energy =  -7.25534755401914
 DFT Correlation      Energy =  -2.77259898379293
 DFT Exchange         Energy = -57.63004529557750
 One-Electron (alpha) Energy = -952.65661836206630
 One-Electron (beta)  Energy = -952.65661836206766
 Total Coulomb        Energy = 701.88912919815516
   12   -1038.2181068061      4.02e-06  
 Alpha HF Exchange    Energy =  -7.25532999834637
 Beta HF Exchange     Energy =  -7.25532999834669
 DFT Correlation      Energy =  -2.77259938527280
 DFT Exchange         Energy = -57.63000371674720
 One-Electron (alpha) Energy = -952.65654000963877
 One-Electron (beta)  Energy = -952.65654000964173
 Total Coulomb        Energy = 701.88889583499622
   13   -1038.2181071757      1.11e-06  
 Alpha HF Exchange    Energy =  -7.25532538990707
 Beta HF Exchange     Energy =  -7.25532538990794
 DFT Correlation      Energy =  -2.77259868816277
 DFT Exchange         Energy = -57.62998092123274
 One-Electron (alpha) Energy = -952.65633407388486
 One-Electron (beta)  Energy = -952.65633407389180
 Total Coulomb        Energy = 701.88845122439682
   14   -1038.2181072053      1.67e-06  
 Alpha HF Exchange    Energy =  -7.25533075983441
 Beta HF Exchange     Energy =  -7.25533075983628
 DFT Correlation      Energy =  -2.77259888124818
 DFT Exchange         Energy = -57.62999848530573
 One-Electron (alpha) Energy = -952.65642525701821
 One-Electron (beta)  Energy = -952.65642525703367
 Total Coulomb        Energy = 701.88866205666841
   15   -1038.2181072363      4.84e-07  Convergence criterion met
 ---------------------------------------
 SCF time:   CPU 37.87s  wall 3.00s 
<S^2> =         -0.000000000
 Alpha HF Exchange    Energy =  -7.25533075983441
 Beta HF Exchange     Energy =  -7.25533075983628
 DFT Correlation      Energy =  -2.77259888124818
 DFT Exchange         Energy = -57.62999848530573
 One-Electron (alpha) Energy = -952.65642525701821
 One-Electron (beta)  Energy = -952.65642525703367
 Total Coulomb        Energy = 701.88866205666841
 Nuclear repulsion Energy = 240.11934010727691
 SCF   energy in the final basis set =    -1038.2181072363
 Total energy in the final basis set =    -1038.2181072363
 
 --------------------------------------------------------------
 
                    Orbital Energies (a.u.)
 --------------------------------------------------------------
 
 Alpha MOs
 -- Occupied --
*******-101.440 -10.352 -10.264 -10.208  -9.554  -9.353  -7.318
 -7.310  -7.307  -7.115  -7.109  -7.109  -0.965  -0.838  -0.723
 -0.685  -0.634  -0.553  -0.513  -0.490  -0.436  -0.416  -0.401
 -0.388  -0.377  -0.221  -0.220  -0.219
 -- Virtual --
 -0.179  -0.009   0.052   0.073   0.122   0.137   0.152   0.183
  0.219   0.229   0.312   0.367   0.386   0.405   0.440   0.458
  0.472   0.495   0.501   0.523   0.529   0.568   0.597   0.647
  0.657   0.673   0.737   0.765   0.776   0.795   0.807   0.829
  0.853   0.865   0.886   0.897   0.933   0.970   0.972   0.980
  0.981   1.008   1.030   1.153   1.236   1.365   1.418   1.484
  1.581   1.619   1.667   1.801   1.850   1.871   1.948   2.021
  2.030   2.052   2.079   2.119   2.203   2.230   2.313   2.369
  2.386   2.497   2.539   2.633   2.666   2.749   2.788   2.846
  2.876   3.146   3.215   3.258   3.362   3.429   3.489   4.039
  4.265   4.326   4.388   4.572
 
 Beta MOs
 -- Occupied --
*******-101.440 -10.352 -10.264 -10.208  -9.554  -9.353  -7.318
 -7.310  -7.307  -7.115  -7.109  -7.109  -0.965  -0.838  -0.723
 -0.685  -0.634  -0.553  -0.513  -0.490  -0.436  -0.416  -0.401
 -0.388  -0.377  -0.221  -0.220  -0.219
 -- Virtual --
 -0.179  -0.009   0.052   0.073   0.122   0.137   0.152   0.183
  0.219   0.229   0.312   0.367   0.386   0.405   0.440   0.458
  0.472   0.495   0.501   0.523   0.529   0.568   0.597   0.647
  0.657   0.673   0.737   0.765   0.776   0.795   0.807   0.829
  0.853   0.865   0.886   0.897   0.933   0.970   0.972   0.980
  0.981   1.008   1.030   1.153   1.236   1.365   1.418   1.484
  1.581   1.619   1.667   1.801   1.850   1.871   1.948   2.021
  2.030   2.052   2.079   2.119   2.203   2.230   2.313   2.369
  2.386   2.497   2.539   2.633   2.666   2.749   2.788   2.846
  2.876   3.146   3.215   3.258   3.362   3.429   3.489   4.039
  4.265   4.326   4.388   4.572
 --------------------------------------------------------------
 
          Ground-State Mulliken Net Atomic Charges

     Atom                 Charge (a.u.)    Spin (a.u.)
  --------------------------------------------------------
      1 Cl                   -0.503766      -0.000000
      2 Cl                    0.169117       0.000000
      3 C                    -0.238039      -0.000000
      4 C                    -0.124425       0.000000
      5 C                    -0.308338      -0.000000
      6 H                     0.190009       0.000000
      7 H                     0.173907       0.000000
      8 H                     0.206607      -0.000000
      9 H                     0.174560       0.000000
     10 H                     0.129945       0.000000
     11 H                     0.130424      -0.000000
  --------------------------------------------------------
  Sum of atomic charges =    -0.000000
  Sum of spin   charges =     0.000000

 -----------------------------------------------------------------
                    Cartesian Multipole Moments
 -----------------------------------------------------------------
    Charge (ESU x 10^10)
                 0.0000
    Dipole Moment (Debye)
         X      -0.9553      Y       7.9797      Z       6.2476
       Tot      10.1794
    Quadrupole Moments (Debye-Ang)
        XX     -41.5711     XY       1.1056     YY     -61.4788
        XZ       0.2603     YZ     -11.2820     ZZ     -48.5666
    Octopole Moments (Debye-Ang^2)
       XXX       3.6487    XXY      13.4793    XYY       5.4197
       YYY      89.1846    XXZ      19.8602    XYZ      -0.6613
       YYZ      47.9563    XZZ       4.0747    YZZ      34.1285
       ZZZ      73.9906
    Hexadecapole Moments (Debye-Ang^3)
      XXXX    -255.1821   XXXY     -67.8476   XXYY    -211.1304
      XYYY     -69.6520   YYYY   -1138.5567   XXXZ      -5.6564
      XXYZ     -75.3708   XYYZ     -10.3029   YYYZ    -311.8608
      XXZZ    -108.1667   XYZZ     -22.7324   YYZZ    -288.3834
      XZZZ      -1.2591   YZZZ    -262.5116   ZZZZ    -430.6663
 -----------------------------------------------------------------
 Calculating analytic gradient of the SCF energy
 Gradient of SCF Energy
            1           2           3           4           5           6
    1  -0.0002601   0.0000240  -0.0000180   0.0001798   0.0000578  -0.0000125
    2  -0.0027880   0.0000024   0.0000342   0.0028189   0.0000743  -0.0000190
    3  -0.0020662  -0.0000287  -0.0000237   0.0021893   0.0002629  -0.0000550
            7           8           9          10          11
    1   0.0000293   0.0000104  -0.0000046  -0.0000204   0.0000142
    2  -0.0000267  -0.0000163  -0.0000940   0.0000218  -0.0000075
    3  -0.0000093   0.0000142  -0.0002316  -0.0000134  -0.0000385
 Max gradient component =       2.819E-03
 RMS gradient           =       8.710E-04
 Gradient time:  CPU 9.11 s  wall 0.86 s
 Geometry Optimization Parameters
   NAtoms,    NIC,     NZ,  NCons,   NDum,   NFix, NCnnct, MaxDiis
       11      66       0       1       0       0       0       0


** CONSTRAINED OPTIMIZATION IN DELOCALIZED INTERNAL COORDINATES **
   Searching for a Minimum

   Optimization Cycle:   1

                       Coordinates (Angstroms)
     ATOM                X               Y               Z
      1  Cl        0.0571930000   -2.8119920000   -1.7737970000
      2  Cl        0.9643500000    1.9591830000   -0.0517710000
      3  C        -0.9741040000    0.2056950000    0.8292890000
      4  C         0.3207740000    0.8324320000    1.0206080000
      5  C        -1.4426060000   -0.2125400000   -0.5787990000
      6  H        -1.7001420000    0.9884840000    1.1442460000
      7  H        -1.0737200000   -0.6071240000    1.5550470000
      8  H         0.9441540000    0.6387650000    1.8878580000
      9  H        -0.8864190000   -1.1305210000   -0.8875460000
     10  H        -2.5119540000   -0.4331040000   -0.5489530000
     11  H        -1.2696280000    0.5707220000   -1.3207840000
   Point Group: c1    Number of degrees of freedom:    27


   Energy is  -1038.218107236

              Constraints and their Current Values
                                        Value     Constraint
   Distance(Angs):        1   4             4.600000     4.700000

 Attempting to Generate Delocalized Internal Coordinates

   Using Lagrange Multiplier Algorithm


 28 Hessian modes will be used to form the next step
  Hessian Eigenvalues:
    -0.997651    0.045000    0.045025    0.045243    0.053107    0.067944
     0.081509    0.085414    0.092254    0.120088    0.143096    0.160000
     0.160208    0.160350    0.189633    0.200000    0.212032    0.220014
     0.277361    0.312668    0.322695    0.343292    0.345040    0.345518
     0.353421    0.377736    0.379679    1.002354

 Minimum Search - Taking P-RFO Step
 Searching for Lamda that Maximizes Along the Constraint modes Only
 Value Taken    Lamda =   0.01828828
 Searching for Lamda that Minimizes Along All other modes
 Value Taken    Lamda =  -0.01682146
 Step Taken.  Stepsize is  0.185720

                             Maximum     Tolerance    Cnvgd?
         Gradient            0.188973       0.000300      NO
         Displacement        0.185709       0.001200      NO
         Energy change     *********       0.000001      NO


 New Cartesian Coordinates Obtained by Inverse Iteration

 Displacement from previous Coordinates is:  0.226534
 ----------------------------------------------------------------
             Standard Nuclear Orientation (Angstroms)
    I     Atom           X                Y                Z
 ----------------------------------------------------------------
    1      Cl      0.0088477404    -2.8480043332    -1.8323412242
    2      Cl      0.9718150437     1.9844881129    -0.0266857836
    3      C      -0.9649344828     0.2125414284     0.8305852984
    4      C       0.3227739224     0.8561755650     1.0406836082
    5      C      -1.4310214754    -0.2271320305    -0.5784810960
    6      H      -1.6984464499     0.9938714911     1.1316705602
    7      H      -1.0647863115    -0.5949950395     1.5621506586
    8      H       0.9336031083     0.6739267422     1.9192348968
    9      H      -0.8868750338    -1.1534261785    -0.9047843695
   10      H      -2.4998107468    -0.4491226167    -0.5403603952
   11      H      -1.2632673146     0.5516768588    -1.3262741537
 ----------------------------------------------------------------
 Nuclear Repulsion Energy =   238.5377536784 hartrees
 There are       29 alpha and       29 beta electrons

                       Distance Matrix (Angstroms)
             Cl(  1)   Cl(  2)   C (  3)   C (  4)   C (  5)   H (  6)
   Cl(  2)  5.247922
   C (  3)  4.172094  2.761468
   C (  4)  4.698273  1.683336  1.454854
   C (  5)  3.242585  3.312003  1.547908  2.621268
   H (  6)  5.143951  3.074639  1.113180  2.027947  2.118250
   H (  7)  4.213231  3.650463  1.094200  2.074403  2.202670  1.763898
   H (  8)  5.228144  2.346410  2.236622  1.085440  3.555551  2.765919
   H (  9)  2.129384  3.751305  2.209857  3.047392  1.122760  3.068662
   H ( 10)  3.703676  4.270657  2.161744  3.488623  1.092265  2.349490
   H ( 11)  3.664998  2.955921  2.203647  2.865438  1.092648  2.535036
             H (  7)   H (  8)   H (  9)   H ( 10)
   H (  8)  2.393999
   H (  9)  2.535600  3.824715
   H ( 10)  2.549731  4.370261  1.797334
   H ( 11)  3.114041  3.921035  1.796302  1.774345
 
 Applying Cartesian multipole field
    Component          Value
    ---------          -----
     (2,0,0)        1.00000E-11
     (0,2,0)        2.00000E-11
     (0,0,2)       -3.00000E-11
 Nucleus-field energy     =     0.0000000084 hartrees
 Requested basis set is 6-31G(d,p)
 There are 40 shells and 113 basis functions
 A cutoff of  1.0D-14 yielded    756 shell pairs
 There are      6121 function pairs
 Smallest overlap matrix eigenvalue = 5.29E-03
 Guess from superposition of atomic densities
 Warning:  Energy on first SCF cycle will be non-variational
 SAD guess density has 58.000000 electrons

 -----------------------------------------------------------------------
  General SCF calculation program by
  Eric Jon Sundstrom, Paul Horn, Yuezhi Mao, Dmitri Zuev, Alec White,
  David Stuck, Shaama M.S., Shane Yost, Joonho Lee, David Small,
  Daniel Levine, Susi Lehtola, Hugh Burton, Evgeny Epifanovsky
 -----------------------------------------------------------------------
 Exchange:     0.2000 Hartree-Fock + 0.0800 Slater + 0.7200 B88
 Correlation:  0.1900 VWN1RPA + 0.8100 LYP
 Using SG-1 standard quadrature grid
 using 12 threads for integral computing
 -------------------------------------------------------
 OpenMP Integral computing Module                
 Release: version 1.0, May 2013, Q-Chem Inc. Pittsburgh 
 -------------------------------------------------------
 -------------------------------------------------------
 OpenMP BLAS3 based DFT computing Module                
 Release: version 1.0, May 2013, Q-Chem Inc. Pittsburgh 
 -------------------------------------------------------
 A unrestricted SCF calculation will be
 performed using DIIS
 SCF converges when DIIS error is below 1.0e-06
 Alpha HF Exchange    Energy =  -7.27934035929901
 Beta HF Exchange     Energy =  -7.27934035929901
 DFT Correlation      Energy =  -2.75904881106194
 DFT Exchange         Energy = -57.34751894764182
 One-Electron (alpha) Energy = -949.63254727258163
 One-Electron (beta)  Energy = -949.63254727258163
 Total Coulomb        Energy = 696.65512635004598
 ---------------------------------------
  Cycle       Energy         DIIS error
 ---------------------------------------
    1   -1038.7374629856      2.76e-02  
 Alpha HF Exchange    Energy =  -7.29462203983416
 Beta HF Exchange     Energy =  -7.29462203983415
 DFT Correlation      Energy =  -2.78241904547090
 DFT Exchange         Energy = -57.87903150940647
 One-Electron (alpha) Energy = -952.62948439872525
 One-Electron (beta)  Energy = -952.62948439872480
 Total Coulomb        Energy = 703.92544468216488
    2   -1038.0464650630      4.04e-03  
 Alpha HF Exchange    Energy =  -7.26183571702627
 Beta HF Exchange     Energy =  -7.26183571702626
 DFT Correlation      Energy =  -2.77652317666888
 DFT Exchange         Energy = -57.66738976200057
 One-Electron (alpha) Energy = -948.56492482704607
 One-Electron (beta)  Energy = -948.56492482704630
 Total Coulomb        Energy = 704.18316690383176
    3   -1029.3765134361      2.38e-02  
 Alpha HF Exchange    Energy =  -7.24105304132421
 Beta HF Exchange     Energy =  -7.24105304132420
 DFT Correlation      Energy =  -2.76517879771031
 DFT Exchange         Energy = -57.47529752119185
 One-Electron (alpha) Energy = -949.85140320908806
 One-Electron (beta)  Energy = -949.85140320908749
 Total Coulomb        Energy = 698.30990501053191
    4   -1037.5777301224      7.04e-03  
 Alpha HF Exchange    Energy =  -7.26043197354752
 Beta HF Exchange     Energy =  -7.26043197354753
 DFT Correlation      Energy =  -2.76852854693552
 DFT Exchange         Energy = -57.59906225020308
 One-Electron (alpha) Energy = -950.66912318298216
 One-Electron (beta)  Energy = -950.66912318298262
 Total Coulomb        Energy = 699.55636502795664
    5   -1038.1325823954      2.59e-03  
 Alpha HF Exchange    Energy =  -7.24948964500057
 Beta HF Exchange     Energy =  -7.24948964500057
 DFT Correlation      Energy =  -2.77241740718167
 DFT Exchange         Energy = -57.61019490741252
 One-Electron (alpha) Energy = -951.01724176991058
 One-Electron (beta)  Energy = -951.01724176991070
 Total Coulomb        Energy = 700.19145483154091
    6   -1038.1868666260      1.77e-03  
 Alpha HF Exchange    Energy =  -7.25265424352723
 Beta HF Exchange     Energy =  -7.25265424352723
 DFT Correlation      Energy =  -2.77256356323048
 DFT Exchange         Energy = -57.62767065849168
 One-Electron (alpha) Energy = -951.14501702375208
 One-Electron (beta)  Energy = -951.14501702375230
 Total Coulomb        Energy = 700.45150292879237
    7   -1038.2063201407      1.07e-03  
 Alpha HF Exchange    Energy =  -7.24924085811764
 Beta HF Exchange     Energy =  -7.24924085811763
 DFT Correlation      Energy =  -2.77194511080920
 DFT Exchange         Energy = -57.60696269342826
 One-Electron (alpha) Energy = -950.97823044617041
 One-Electron (beta)  Energy = -950.97823044616973
 Total Coulomb        Energy = 700.10679194218221
    8   -1038.1893047838      1.61e-03  
 Alpha HF Exchange    Energy =  -7.24898098887377
 Beta HF Exchange     Energy =  -7.24898098887376
 DFT Correlation      Energy =  -2.77195155207970
 DFT Exchange         Energy = -57.60634725078896
 One-Electron (alpha) Energy = -950.97547857107202
 One-Electron (beta)  Energy = -950.97547857107122
 Total Coulomb        Energy = 700.10648591908046
    9   -1038.1829783168      1.78e-03  
 Alpha HF Exchange    Energy =  -7.25441156350092
 Beta HF Exchange     Energy =  -7.25441156350088
 DFT Correlation      Energy =  -2.77217330495209
 DFT Exchange         Energy = -57.62652330776316
 One-Electron (alpha) Energy = -951.09751903582924
 One-Electron (beta)  Energy = -951.09751903582912
 Total Coulomb        Energy = 700.34769151759144
   10   -1038.2171126069      1.24e-04  
 Alpha HF Exchange    Energy =  -7.25419070094839
 Beta HF Exchange     Energy =  -7.25419070094830
 DFT Correlation      Energy =  -2.77203979199088
 DFT Exchange         Energy = -57.62372442563506
 One-Electron (alpha) Energy = -951.06324703233406
 One-Electron (beta)  Energy = -951.06324703233383
 Total Coulomb        Energy = 700.27563690851753
   11   -1038.2172490888      6.04e-05  
 Alpha HF Exchange    Energy =  -7.25449702833077
 Beta HF Exchange     Energy =  -7.25449702833058
 DFT Correlation      Energy =  -2.77206083363702
 DFT Exchange         Energy = -57.62489559116570
 One-Electron (alpha) Energy = -951.07251277376770
 One-Electron (beta)  Energy = -951.07251277376656
 Total Coulomb        Energy = 700.29593074750073
   12   -1038.2172915947      4.38e-06  
 Alpha HF Exchange    Energy =  -7.25453668659814
 Beta HF Exchange     Energy =  -7.25453668659773
 DFT Correlation      Energy =  -2.77206436749133
 DFT Exchange         Energy = -57.62506340664001
 One-Electron (alpha) Energy = -951.07355528407129
 One-Electron (beta)  Energy = -951.07355528406902
 Total Coulomb        Energy = 700.29826676219432
   13   -1038.2172912664      6.52e-06  
 Alpha HF Exchange    Energy =  -7.25450933079897
 Beta HF Exchange     Energy =  -7.25450933079808
 DFT Correlation      Energy =  -2.77206209780994
 DFT Exchange         Energy = -57.62495879779308
 One-Electron (alpha) Energy = -951.07285336309678
 One-Electron (beta)  Energy = -951.07285336308996
 Total Coulomb        Energy = 700.29670079389973
   14   -1038.2172918027      1.22e-06  
 Alpha HF Exchange    Energy =  -7.25450323224553
 Beta HF Exchange     Energy =  -7.25450323224317
 DFT Correlation      Energy =  -2.77206249176131
 DFT Exchange         Energy = -57.62494970418818
 One-Electron (alpha) Energy = -951.07291789373528
 One-Electron (beta)  Energy = -951.07291789371754
 Total Coulomb        Energy = 700.29680892175804
   15   -1038.2172918393      6.96e-07  Convergence criterion met
 ---------------------------------------
 SCF time:   CPU 36.69s  wall 3.00s 
<S^2> =         -0.000000000
 Alpha HF Exchange    Energy =  -7.25450323224553
 Beta HF Exchange     Energy =  -7.25450323224317
 DFT Correlation      Energy =  -2.77206249176131
 DFT Exchange         Energy = -57.62494970418818
 One-Electron (alpha) Energy = -951.07291789373528
 One-Electron (beta)  Energy = -951.07291789371754
 Total Coulomb        Energy = 700.29680892175804
 Nuclear repulsion Energy = 238.53775368683446
 SCF   energy in the final basis set =    -1038.2172918393
 Total energy in the final basis set =    -1038.2172918393
 
 --------------------------------------------------------------
 
                    Orbital Energies (a.u.)
 --------------------------------------------------------------
 
 Alpha MOs
 -- Occupied --
*******-101.440 -10.353 -10.265 -10.210  -9.555  -9.353  -7.318
 -7.311  -7.308  -7.115  -7.109  -7.109  -0.965  -0.837  -0.723
 -0.685  -0.635  -0.553  -0.512  -0.490  -0.437  -0.416  -0.401
 -0.388  -0.377  -0.220  -0.220  -0.219
 -- Virtual --
 -0.180  -0.009   0.052   0.072   0.122   0.136   0.152   0.180
  0.218   0.228   0.311   0.367   0.385   0.403   0.441   0.458
  0.471   0.495   0.501   0.523   0.526   0.565   0.597   0.644
  0.659   0.673   0.737   0.764   0.776   0.794   0.807   0.829
  0.853   0.864   0.888   0.896   0.929   0.970   0.972   0.980
  0.981   1.007   1.029   1.147   1.235   1.361   1.415   1.485
  1.580   1.614   1.666   1.792   1.846   1.873   1.947   2.019
  2.030   2.052   2.081   2.118   2.198   2.228   2.314   2.364
  2.384   2.495   2.535   2.629   2.672   2.744   2.783   2.846
  2.865   3.139   3.216   3.258   3.361   3.428   3.484   4.035
  4.263   4.325   4.384   4.570
 
 Beta MOs
 -- Occupied --
*******-101.440 -10.353 -10.265 -10.210  -9.555  -9.353  -7.318
 -7.311  -7.308  -7.115  -7.109  -7.109  -0.965  -0.837  -0.723
 -0.685  -0.635  -0.553  -0.512  -0.490  -0.437  -0.416  -0.401
 -0.388  -0.377  -0.220  -0.220  -0.219
 -- Virtual --
 -0.180  -0.009   0.052   0.072   0.122   0.136   0.152   0.180
  0.218   0.228   0.311   0.367   0.385   0.403   0.441   0.458
  0.471   0.495   0.501   0.523   0.526   0.565   0.597   0.644
  0.659   0.673   0.737   0.764   0.776   0.794   0.807   0.829
  0.853   0.864   0.888   0.896   0.929   0.970   0.972   0.980
  0.981   1.007   1.029   1.147   1.235   1.361   1.415   1.485
  1.580   1.614   1.666   1.792   1.846   1.873   1.947   2.019
  2.030   2.052   2.081   2.118   2.198   2.228   2.314   2.364
  2.384   2.495   2.535   2.629   2.672   2.744   2.783   2.846
  2.865   3.139   3.216   3.258   3.361   3.428   3.484   4.035
  4.263   4.325   4.384   4.570
 --------------------------------------------------------------
 
          Ground-State Mulliken Net Atomic Charges

     Atom                 Charge (a.u.)    Spin (a.u.)
  --------------------------------------------------------
      1 Cl                   -0.501422       0.000000
      2 Cl                    0.169150      -0.000000
      3 C                    -0.237712       0.000000
      4 C                    -0.126756      -0.000000
      5 C                    -0.309569       0.000000
      6 H                     0.190205      -0.000000
      7 H                     0.172983      -0.000000
      8 H                     0.206500       0.000000
      9 H                     0.175452      -0.000000
     10 H                     0.130686      -0.000000
     11 H                     0.130483       0.000000
  --------------------------------------------------------
  Sum of atomic charges =    -0.000000
  Sum of spin   charges =     0.000000

 -----------------------------------------------------------------
                    Cartesian Multipole Moments
 -----------------------------------------------------------------
    Charge (ESU x 10^10)
                 0.0000
    Dipole Moment (Debye)
         X      -0.8333      Y       8.0628      Z       6.3829
       Tot      10.3171
    Quadrupole Moments (Debye-Ang)
        XX     -41.6066     XY       0.8200     YY     -61.7908
        XZ       0.0896     YZ     -11.6423     ZZ     -48.9523
    Octopole Moments (Debye-Ang^2)
       XXX       5.1487    XXY      13.6616    XYY       6.8442
       YYY      91.3626    XXZ      20.2368    XYZ      -0.0518
       YYZ      50.0902    XZZ       5.0175    YZZ      35.8145
       ZZZ      76.6738
    Hexadecapole Moments (Debye-Ang^3)
      XXXX    -254.2903   XXXY     -75.4031   XXYY    -215.3010
      XYYY     -79.5248   YYYY   -1170.1761   XXXZ     -10.3850
      XXYZ     -79.6291   XYYZ     -13.4030   YYYZ    -329.7850
      XXZZ    -111.4348   XYZZ     -26.2909   YYZZ    -300.4528
      XZZZ      -6.3361   YZZZ    -278.3163   ZZZZ    -452.4617
 -----------------------------------------------------------------
 Calculating analytic gradient of the SCF energy
 Gradient of SCF Energy
            1           2           3           4           5           6
    1   0.0000364   0.0001159  -0.0013296   0.0021384  -0.0018353   0.0003029
    2  -0.0031123   0.0000368   0.0015861   0.0039230   0.0006255   0.0003149
    3  -0.0021653   0.0001415   0.0011132   0.0039571   0.0003338   0.0000830
            7           8           9          10          11
    1   0.0001947   0.0001535  -0.0002476   0.0001974   0.0002733
    2  -0.0001894   0.0000661  -0.0024505  -0.0004837  -0.0003164
    3  -0.0002717  -0.0000822  -0.0031460   0.0000083   0.0000283
 Max gradient component =       3.957E-03
 RMS gradient           =       1.520E-03
 Gradient time:  CPU 9.24 s  wall 0.84 s
 Geometry Optimization Parameters
   NAtoms,    NIC,     NZ,  NCons,   NDum,   NFix, NCnnct, MaxDiis
       11      66       0       1       0       0       0       0

 Cartesian Hessian Update
 Hessian Updated using BFGS Update


** CONSTRAINED OPTIMIZATION IN DELOCALIZED INTERNAL COORDINATES **
   Searching for a Minimum

   Optimization Cycle:   2

                       Coordinates (Angstroms)
     ATOM                X               Y               Z
      1  Cl        0.0088477404   -2.8480043332   -1.8323412242
      2  Cl        0.9718150437    1.9844881129   -0.0266857836
      3  C        -0.9649344828    0.2125414284    0.8305852984
      4  C         0.3227739224    0.8561755650    1.0406836082
      5  C        -1.4310214754   -0.2271320305   -0.5784810960
      6  H        -1.6984464499    0.9938714911    1.1316705602
      7  H        -1.0647863115   -0.5949950395    1.5621506586
      8  H         0.9336031083    0.6739267422    1.9192348968
      9  H        -0.8868750338   -1.1534261785   -0.9047843695
     10  H        -2.4998107468   -0.4491226167   -0.5403603952
     11  H        -1.2632673146    0.5516768588   -1.3262741537
   Point Group: c1    Number of degrees of freedom:    27


   Energy is  -1038.217291839

              Constraints and their Current Values
                                        Value     Constraint
   Distance(Angs):        1   4             4.698273     4.700000
 Hessian Updated using BFGS Update

   Using Lagrange Multiplier Algorithm


 28 Hessian modes will be used to form the next step
  Hessian Eigenvalues:
    -0.995850    0.045010    0.045030    0.045389    0.053900    0.069841
     0.081526    0.085414    0.097166    0.120253    0.143302    0.160073
     0.160268    0.160504    0.191060    0.199938    0.219768    0.225779
     0.298113    0.322658    0.329900    0.343325    0.345300    0.345743
     0.353421    0.379672    0.396094    1.004979

 Minimum Search - Taking P-RFO Step
 Searching for Lamda that Maximizes Along the Constraint modes Only
 Value Taken    Lamda =   0.00000859
 Searching for Lamda that Minimizes Along All other modes
 Value Taken    Lamda =  -0.00009667
 Step Taken.  Stepsize is  0.022928

                             Maximum     Tolerance    Cnvgd?
         Gradient            0.003263       0.000300      NO
         Displacement        0.008651       0.001200      NO
         Energy change      0.000815       0.000001      NO


 New Cartesian Coordinates Obtained by Inverse Iteration

 Displacement from previous Coordinates is:  0.033994
 ----------------------------------------------------------------
             Standard Nuclear Orientation (Angstroms)
    I     Atom           X                Y                Z
 ----------------------------------------------------------------
    1      Cl      0.0059211128    -2.8526154241    -1.8322104208
    2      Cl      0.9647065961     1.9837025604    -0.0312179369
    3      C      -0.9645796423     0.2095167034     0.8309641115
    4      C       0.3201484419     0.8553028695     1.0387828333
    5      C      -1.4266822642    -0.2244955396    -0.5772794922
    6      H      -1.6998738232     0.9894514830     1.1311731803
    7      H      -1.0653868567    -0.5978141461     1.5627075882
    8      H       0.9321469445     0.6746712250     1.9168417227
    9      H      -0.8846123908    -1.1498996545    -0.9006532809
   10      H      -2.4961179657    -0.4441206207    -0.5406578318
   11      H      -1.2577721525     0.5563005439    -1.3230524734
 ----------------------------------------------------------------
 Nuclear Repulsion Energy =   238.6968414502 hartrees
 There are       29 alpha and       29 beta electrons

                       Distance Matrix (Angstroms)
             Cl(  1)   Cl(  2)   C (  3)   C (  4)   C (  5)   H (  6)
   Cl(  2)  5.249078
   C (  3)  4.172652  2.759210
   C (  4)  4.700000  1.683343  1.452844
   C (  5)  3.245646  3.300464  1.544362  2.613243
   H (  6)  5.143234  3.072406  1.113140  2.026579  2.113554
   H (  7)  4.213941  3.650494  1.094255  2.075031  2.202146  1.763011
   H (  8)  5.230204  2.347245  2.234518  1.085430  3.548692  2.764759
   H (  9)  2.135437  3.741037  2.202931  3.038700  1.120171  3.061012
   H ( 10)  3.705287  4.258070  2.157359  3.480588  1.092369  2.341827
   H ( 11)  3.671086  2.940361  2.201365  2.856134  1.092863  2.531066
             H (  7)   H (  8)   H (  9)   H ( 10)
   H (  8)  2.394738
   H (  9)  2.530934  3.816799
   H ( 10)  2.548482  4.363943  1.795737
   H ( 11)  3.113937  3.912374  1.796883  1.773833
 
 Applying Cartesian multipole field
    Component          Value
    ---------          -----
     (2,0,0)        1.00000E-11
     (0,2,0)        2.00000E-11
     (0,0,2)       -3.00000E-11
 Nucleus-field energy     =     0.0000000084 hartrees
 Requested basis set is 6-31G(d,p)
 There are 40 shells and 113 basis functions
 A cutoff of  1.0D-14 yielded    756 shell pairs
 There are      6121 function pairs
 Smallest overlap matrix eigenvalue = 5.23E-03
 Guess from superposition of atomic densities
 Warning:  Energy on first SCF cycle will be non-variational
 SAD guess density has 58.000000 electrons

 -----------------------------------------------------------------------
  General SCF calculation program by
  Eric Jon Sundstrom, Paul Horn, Yuezhi Mao, Dmitri Zuev, Alec White,
  David Stuck, Shaama M.S., Shane Yost, Joonho Lee, David Small,
  Daniel Levine, Susi Lehtola, Hugh Burton, Evgeny Epifanovsky
 -----------------------------------------------------------------------
 Exchange:     0.2000 Hartree-Fock + 0.0800 Slater + 0.7200 B88
 Correlation:  0.1900 VWN1RPA + 0.8100 LYP
 Using SG-1 standard quadrature grid
 using 12 threads for integral computing
 -------------------------------------------------------
 OpenMP Integral computing Module                
 Release: version 1.0, May 2013, Q-Chem Inc. Pittsburgh 
 -------------------------------------------------------
 -------------------------------------------------------
 OpenMP BLAS3 based DFT computing Module                
 Release: version 1.0, May 2013, Q-Chem Inc. Pittsburgh 
 -------------------------------------------------------
 A unrestricted SCF calculation will be
 performed using DIIS
 SCF converges when DIIS error is below 1.0e-06
 Alpha HF Exchange    Energy =  -7.28010298749188
 Beta HF Exchange     Energy =  -7.28010298749188
 DFT Correlation      Energy =  -2.75922678079209
 DFT Exchange         Energy = -57.34896393401304
 One-Electron (alpha) Energy = -949.78829938855733
 One-Electron (beta)  Energy = -949.78829938855733
 Total Coulomb        Energy = 696.80408481761538
 ---------------------------------------
  Cycle       Energy         DIIS error
 ---------------------------------------
    1   -1038.7440691907      2.77e-02  
 Alpha HF Exchange    Energy =  -7.29501289520348
 Beta HF Exchange     Energy =  -7.29501289520347
 DFT Correlation      Energy =  -2.78263840276495
 DFT Exchange         Energy = -57.88183004688363
 One-Electron (alpha) Energy = -952.79106183217402
 One-Electron (beta)  Energy = -952.79106183217368
 Total Coulomb        Energy = 704.09343249267840
    2   -1038.0463439531      4.05e-03  
 Alpha HF Exchange    Energy =  -7.26202130148738
 Beta HF Exchange     Energy =  -7.26202130148737
 DFT Correlation      Energy =  -2.77668261684413
 DFT Exchange         Energy = -57.66879447767933
 One-Electron (alpha) Energy = -948.73272104183150
 One-Electron (beta)  Energy = -948.73272104183195
 Total Coulomb        Energy = 704.35192045264853
    3   -1029.3861998699      2.38e-02  
 Alpha HF Exchange    Energy =  -7.24127196951405
 Beta HF Exchange     Energy =  -7.24127196951405
 DFT Correlation      Energy =  -2.76533517010118
 DFT Exchange         Energy = -57.47688731641272
 One-Electron (alpha) Energy = -950.00184532956973
 One-Electron (beta)  Energy = -950.00184532956894
 Total Coulomb        Energy = 698.45265077994577
    4   -1037.5789648462      7.04e-03  
 Alpha HF Exchange    Energy =  -7.26078727797915
 Beta HF Exchange     Energy =  -7.26078727797915
 DFT Correlation      Energy =  -2.76870728037099
 DFT Exchange         Energy = -57.60140471121861
 One-Electron (alpha) Energy = -950.82495094439855
 One-Electron (beta)  Energy = -950.82495094439832
 Total Coulomb        Energy = 699.71261480894157
    5   -1038.1321321688      2.60e-03  
 Alpha HF Exchange    Energy =  -7.24987933349280
 Beta HF Exchange     Energy =  -7.24987933349280
 DFT Correlation      Energy =  -2.77259847566246
 DFT Exchange         Energy = -57.61255858020503
 One-Electron (alpha) Energy = -951.17450174528904
 One-Electron (beta)  Energy = -951.17450174528926
 Total Coulomb        Energy = 700.34853885456914
    6   -1038.1885389003      1.73e-03  
 Alpha HF Exchange    Energy =  -7.25286303091509
 Beta HF Exchange     Energy =  -7.25286303091509
 DFT Correlation      Energy =  -2.77274052843433
 DFT Exchange         Energy = -57.62955678162349
 One-Electron (alpha) Energy = -951.29940157028818
 One-Electron (beta)  Energy = -951.29940157028807
 Total Coulomb        Energy = 700.60434245741192
    7   -1038.2056425965      1.10e-03  
 Alpha HF Exchange    Energy =  -7.24973078853299
 Beta HF Exchange     Energy =  -7.24973078853299
 DFT Correlation      Energy =  -2.77213931727852
 DFT Exchange         Energy = -57.60977152978910
 One-Electron (alpha) Energy = -951.13826970065020
 One-Electron (beta)  Energy = -951.13826970065088
 Total Coulomb        Energy = 700.26860832074340
    8   -1038.1924620461      1.52e-03  
 Alpha HF Exchange    Energy =  -7.24939318255633
 Beta HF Exchange     Energy =  -7.24939318255633
 DFT Correlation      Energy =  -2.77214275835144
 DFT Exchange         Energy = -57.60889770018285
 One-Electron (alpha) Energy = -951.13404202945310
 One-Electron (beta)  Energy = -951.13404202945298
 Total Coulomb        Energy = 700.26563219226978
    9   -1038.1854372317      1.72e-03  
 Alpha HF Exchange    Energy =  -7.25476971024721
 Beta HF Exchange     Energy =  -7.25476971024725
 DFT Correlation      Energy =  -2.77236184870718
 DFT Exchange         Energy = -57.62891301708191
 One-Electron (alpha) Energy = -951.25493871517267
 One-Electron (beta)  Energy = -951.25493871517347
 Total Coulomb        Energy = 700.50666619833009
   10   -1038.2171840597      1.18e-04  
 Alpha HF Exchange    Energy =  -7.25451885626707
 Beta HF Exchange     Energy =  -7.25451885626716
 DFT Correlation      Energy =  -2.77222794322498
 DFT Exchange         Energy = -57.62599869678945
 One-Electron (alpha) Energy = -951.21988348731327
 One-Electron (beta)  Energy = -951.21988348731463
 Total Coulomb        Energy = 700.43288340383538
   11   -1038.2173064648      5.80e-05  
 Alpha HF Exchange    Energy =  -7.25481004973988
 Beta HF Exchange     Energy =  -7.25481004974007
 DFT Correlation      Energy =  -2.77224799560815
 DFT Exchange         Energy = -57.62711073347440
 One-Electron (alpha) Energy = -951.22873160164374
 One-Electron (beta)  Energy = -951.22873160164443
 Total Coulomb        Energy = 700.45225464526800
   12   -1038.2173459280      4.42e-06  
 Alpha HF Exchange    Energy =  -7.25485080763330
 Beta HF Exchange     Energy =  -7.25485080763371
 DFT Correlation      Energy =  -2.77225113684276
 DFT Exchange         Energy = -57.62727499927220
 One-Electron (alpha) Energy = -951.22969776943592
 One-Electron (beta)  Energy = -951.22969776943887
 Total Coulomb        Energy = 700.45443618325066
   13   -1038.2173456484      6.29e-06  
 Alpha HF Exchange    Energy =  -7.25482452761890
 Beta HF Exchange     Energy =  -7.25482452761976
 DFT Correlation      Energy =  -2.77224890443032
 DFT Exchange         Energy = -57.62717383978850
 One-Electron (alpha) Energy = -951.22901705818356
 One-Electron (beta)  Energy = -951.22901705818970
 Total Coulomb        Energy = 700.45291830774397
   14   -1038.2173461495      1.23e-06  
 Alpha HF Exchange    Energy =  -7.25481840372301
 Beta HF Exchange     Energy =  -7.25481840372533
 DFT Correlation      Energy =  -2.77224930495786
 DFT Exchange         Energy = -57.62716485291205
 One-Electron (alpha) Energy = -951.22908381456307
 One-Electron (beta)  Energy = -951.22908381458046
 Total Coulomb        Energy = 700.45303094865949
   15   -1038.2173461872      6.97e-07  Convergence criterion met
 ---------------------------------------
 SCF time:   CPU 37.04s  wall 3.00s 
<S^2> =          0.000000000
 Alpha HF Exchange    Energy =  -7.25481840372301
 Beta HF Exchange     Energy =  -7.25481840372533
 DFT Correlation      Energy =  -2.77224930495786
 DFT Exchange         Energy = -57.62716485291205
 One-Electron (alpha) Energy = -951.22908381456307
 One-Electron (beta)  Energy = -951.22908381458046
 Total Coulomb        Energy = 700.45303094865949
 Nuclear repulsion Energy = 238.69684145857511
 SCF   energy in the final basis set =    -1038.2173461872
 Total energy in the final basis set =    -1038.2173461872
 
 --------------------------------------------------------------
 
                    Orbital Energies (a.u.)
 --------------------------------------------------------------
 
 Alpha MOs
 -- Occupied --
*******-101.440 -10.353 -10.265 -10.209  -9.555  -9.353  -7.318
 -7.311  -7.308  -7.115  -7.109  -7.109  -0.965  -0.838  -0.724
 -0.685  -0.635  -0.553  -0.513  -0.490  -0.437  -0.416  -0.401
 -0.389  -0.377  -0.220  -0.220  -0.219
 -- Virtual --
 -0.180  -0.009   0.052   0.072   0.122   0.137   0.152   0.181
  0.219   0.228   0.311   0.367   0.385   0.404   0.441   0.458
  0.472   0.495   0.501   0.523   0.526   0.565   0.598   0.644
  0.659   0.673   0.737   0.764   0.775   0.794   0.806   0.829
  0.853   0.865   0.888   0.896   0.929   0.970   0.972   0.981
  0.981   1.007   1.029   1.148   1.234   1.360   1.416   1.485
  1.581   1.615   1.667   1.795   1.847   1.873   1.947   2.020
  2.030   2.052   2.081   2.120   2.199   2.228   2.314   2.365
  2.385   2.496   2.536   2.630   2.672   2.746   2.786   2.847
  2.868   3.142   3.215   3.258   3.362   3.429   3.486   4.036
  4.263   4.325   4.385   4.571
 
 Beta MOs
 -- Occupied --
*******-101.440 -10.353 -10.265 -10.209  -9.555  -9.353  -7.318
 -7.311  -7.308  -7.115  -7.109  -7.109  -0.965  -0.838  -0.724
 -0.685  -0.635  -0.553  -0.513  -0.490  -0.437  -0.416  -0.401
 -0.389  -0.377  -0.220  -0.220  -0.219
 -- Virtual --
 -0.180  -0.009   0.052   0.072   0.122   0.137   0.152   0.181
  0.219   0.228   0.311   0.367   0.385   0.404   0.441   0.458
  0.472   0.495   0.501   0.523   0.526   0.565   0.598   0.644
  0.659   0.673   0.737   0.764   0.775   0.794   0.806   0.829
  0.853   0.865   0.888   0.896   0.929   0.970   0.972   0.981
  0.981   1.007   1.029   1.148   1.234   1.360   1.416   1.485
  1.581   1.615   1.667   1.795   1.847   1.873   1.947   2.020
  2.030   2.052   2.081   2.120   2.199   2.228   2.314   2.365
  2.385   2.496   2.536   2.630   2.672   2.746   2.786   2.847
  2.868   3.142   3.215   3.258   3.362   3.429   3.486   4.036
  4.263   4.325   4.385   4.571
 --------------------------------------------------------------
 
          Ground-State Mulliken Net Atomic Charges

     Atom                 Charge (a.u.)    Spin (a.u.)
  --------------------------------------------------------
      1 Cl                   -0.502148      -0.000000
      2 Cl                    0.168989       0.000000
      3 C                    -0.237792      -0.000000
      4 C                    -0.126308       0.000000
      5 C                    -0.309772      -0.000000
      6 H                     0.190488       0.000000
      7 H                     0.173265       0.000000
      8 H                     0.206380      -0.000000
      9 H                     0.175926       0.000000
     10 H                     0.130508       0.000000
     11 H                     0.130464      -0.000000
  --------------------------------------------------------
  Sum of atomic charges =     0.000000
  Sum of spin   charges =     0.000000

 -----------------------------------------------------------------
                    Cartesian Multipole Moments
 -----------------------------------------------------------------
    Charge (ESU x 10^10)
                 0.0000
    Dipole Moment (Debye)
         X      -0.8340      Y       8.0809      Z       6.3897
       Tot      10.3356
    Quadrupole Moments (Debye-Ang)
        XX     -41.6151     XY       0.7858     YY     -61.8707
        XZ       0.0578     YZ     -11.6972     ZZ     -48.9644
    Octopole Moments (Debye-Ang^2)
       XXX       5.4472    XXY      13.7522    XYY       6.9796
       YYY      91.8666    XXZ      20.3271    XYZ      -0.0032
       YYZ      50.2642    XZZ       5.1309    YZZ      35.9557
       ZZZ      76.8460
    Hexadecapole Moments (Debye-Ang^3)
      XXXX    -252.7239   XXXY     -75.2365   XXYY    -215.4798
      XYYY     -79.4130   YYYY   -1172.9590   XXXZ     -10.3266
      XXYZ     -79.6337   XYYZ     -13.4273   YYYZ    -330.2049
      XXZZ    -111.1526   XYZZ     -26.2223   YYZZ    -300.9297
      XZZZ      -6.3372   YZZZ    -278.3503   ZZZZ    -452.2660
 -----------------------------------------------------------------
 Calculating analytic gradient of the SCF energy
 Gradient of SCF Energy
            1           2           3           4           5           6
    1   0.0000509  -0.0000105  -0.0007823   0.0010723  -0.0002406   0.0002820
    2  -0.0032069   0.0000226   0.0010179   0.0035155   0.0005108   0.0001438
    3  -0.0022283   0.0000350   0.0003811   0.0032553   0.0009225  -0.0001429
            7           8           9          10          11
    1   0.0000262   0.0000177  -0.0007043   0.0001483   0.0001404
    2  -0.0001211  -0.0000611  -0.0014757  -0.0002947  -0.0000511
    3  -0.0001256  -0.0000383  -0.0023049   0.0002887  -0.0000426
 Max gradient component =       3.515E-03
 RMS gradient           =       1.239E-03
 Gradient time:  CPU 9.23 s  wall 0.83 s
 Geometry Optimization Parameters
   NAtoms,    NIC,     NZ,  NCons,   NDum,   NFix, NCnnct, MaxDiis
       11      66       0       1       0       0       0       0

 Cartesian Hessian Update
 Hessian Updated using BFGS Update


** CONSTRAINED OPTIMIZATION IN DELOCALIZED INTERNAL COORDINATES **
   Searching for a Minimum

   Optimization Cycle:   3

                       Coordinates (Angstroms)
     ATOM                X               Y               Z
      1  Cl        0.0059211128   -2.8526154241   -1.8322104208
      2  Cl        0.9647065961    1.9837025604   -0.0312179369
      3  C        -0.9645796423    0.2095167034    0.8309641115
      4  C         0.3201484419    0.8553028695    1.0387828333
      5  C        -1.4266822642   -0.2244955396   -0.5772794922
      6  H        -1.6998738232    0.9894514830    1.1311731803
      7  H        -1.0653868567   -0.5978141461    1.5627075882
      8  H         0.9321469445    0.6746712250    1.9168417227
      9  H        -0.8846123908   -1.1498996545   -0.9006532809
     10  H        -2.4961179657   -0.4441206207   -0.5406578318
     11  H        -1.2577721525    0.5563005439   -1.3230524734
   Point Group: c1    Number of degrees of freedom:    27


   Energy is  -1038.217346187

              Constraints and their Current Values
                                        Value     Constraint
   Distance(Angs):        1   4             4.700000     4.700000
 Hessian Updated using BFGS Update

 26 Hessian modes will be used to form the next step
  Hessian Eigenvalues:
     0.041180    0.045022    0.045079    0.047495    0.064096    0.081543
     0.085414    0.087327    0.120604    0.142663    0.154461    0.160264
     0.160436    0.165021    0.199682    0.210526    0.221247    0.300371
     0.308065    0.324573    0.343353    0.345477    0.346092    0.353431
     0.379677    0.398135

 Minimum Search - Taking Simple RFO Step
 Searching for Lamda that Minimizes Along All modes
 Value Taken    Lamda =  -0.00007846
 Step Taken.  Stepsize is  0.035767

                             Maximum     Tolerance    Cnvgd?
         Gradient           0.000986      0.000300      NO
         Displacement       0.014562      0.001200      NO
         Energy change     -0.000054      0.000001      NO


 New Cartesian Coordinates Obtained by Inverse Iteration

 Displacement from previous Coordinates is:  0.047959
 ----------------------------------------------------------------
             Standard Nuclear Orientation (Angstroms)
    I     Atom           X                Y                Z
 ----------------------------------------------------------------
    1      Cl      0.0024867467    -2.8589340349    -1.8280750268
    2      Cl      0.9562312711     1.9838297590    -0.0362074192
    3      C      -0.9642760497     0.2050042809     0.8317530219
    4      C       0.3174411442     0.8542518574     1.0360222847
    5      C      -1.4232688755    -0.2202814236    -0.5771405727
    6      H      -1.7019655164     0.9822719249     1.1346462343
    7      H      -1.0644992328    -0.6029511269     1.5628285234
    8      H       0.9327290838     0.6754715565     1.9122142239
    9      H      -0.8816190596    -1.1437889887    -0.8928585437
   10      H      -2.4936631895    -0.4374849086    -0.5478063565
   11      H      -1.2516983223     0.5626111041    -1.3199783693
 ----------------------------------------------------------------
 Nuclear Repulsion Energy =   238.8459809454 hartrees
 There are       29 alpha and       29 beta electrons

                       Distance Matrix (Angstroms)
             Cl(  1)   Cl(  2)   C (  3)   C (  4)   C (  5)   H (  6)
   Cl(  2)  5.250979
   C (  3)  4.170975  2.757884
   C (  4)  4.700000  1.683352  1.451223
   C (  5)  3.249631  3.288272  1.541598  2.605185
   H (  6)  5.141764  3.072463  1.113587  2.025863  2.110455
   H (  7)  4.210243  3.651260  1.094216  2.076228  2.203320  1.761430
   H (  8)  5.229449  2.347062  2.233241  1.085474  3.542596  2.764119
   H (  9)  2.144294  3.727404  2.190973  3.024978  1.116212  3.050226
   H ( 10)  3.705842  4.245736  2.157545  3.475544  1.092603  2.339475
   H ( 11)  3.679418  2.922821  2.200100  2.845697  1.092779  2.530620
             H (  7)   H (  8)   H (  9)   H ( 10)
   H (  8)  2.396947
   H (  9)  2.521180  3.803945
   H ( 10)  2.554343  4.362400  1.793492
   H ( 11)  3.115149  3.902759  1.797551  1.771699
 
 Applying Cartesian multipole field
    Component          Value
    ---------          -----
     (2,0,0)        1.00000E-11
     (0,2,0)        2.00000E-11
     (0,0,2)       -3.00000E-11
 Nucleus-field energy     =     0.0000000085 hartrees
 Requested basis set is 6-31G(d,p)
 There are 40 shells and 113 basis functions
 A cutoff of  1.0D-14 yielded    756 shell pairs
 There are      6121 function pairs
 Smallest overlap matrix eigenvalue = 5.19E-03
 Guess from superposition of atomic densities
 Warning:  Energy on first SCF cycle will be non-variational
 SAD guess density has 58.000000 electrons

 -----------------------------------------------------------------------
  General SCF calculation program by
  Eric Jon Sundstrom, Paul Horn, Yuezhi Mao, Dmitri Zuev, Alec White,
  David Stuck, Shaama M.S., Shane Yost, Joonho Lee, David Small,
  Daniel Levine, Susi Lehtola, Hugh Burton, Evgeny Epifanovsky
 -----------------------------------------------------------------------
 Exchange:     0.2000 Hartree-Fock + 0.0800 Slater + 0.7200 B88
 Correlation:  0.1900 VWN1RPA + 0.8100 LYP
 Using SG-1 standard quadrature grid
 using 12 threads for integral computing
 -------------------------------------------------------
 OpenMP Integral computing Module                
 Release: version 1.0, May 2013, Q-Chem Inc. Pittsburgh 
 -------------------------------------------------------
 -------------------------------------------------------
 OpenMP BLAS3 based DFT computing Module                
 Release: version 1.0, May 2013, Q-Chem Inc. Pittsburgh 
 -------------------------------------------------------
 A unrestricted SCF calculation will be
 performed using DIIS
 SCF converges when DIIS error is below 1.0e-06
 Alpha HF Exchange    Energy =  -7.28076496801667
 Beta HF Exchange     Energy =  -7.28076496801667
 DFT Correlation      Energy =  -2.75937112588967
 DFT Exchange         Energy = -57.35021958192857
 One-Electron (alpha) Energy = -949.93408626099529
 One-Electron (beta)  Energy = -949.93408626099529
 Total Coulomb        Energy = 696.94370305831956
 ---------------------------------------
  Cycle       Energy         DIIS error
 ---------------------------------------
    1   -1038.7496091537      2.77e-02  
 Alpha HF Exchange    Energy =  -7.29538365548680
 Beta HF Exchange     Energy =  -7.29538365548679
 DFT Correlation      Energy =  -2.78282516182684
 DFT Exchange         Energy = -57.88445975144595
 One-Electron (alpha) Energy = -952.94284490193843
 One-Electron (beta)  Energy = -952.94284490193752
 Total Coulomb        Energy = 704.25157301204649
    2   -1038.0461880622      4.05e-03  
 Alpha HF Exchange    Energy =  -7.26238538624443
 Beta HF Exchange     Energy =  -7.26238538624443
 DFT Correlation      Energy =  -2.77683170482160
 DFT Exchange         Energy = -57.67038002039421
 One-Electron (alpha) Energy = -948.87382687438640
 One-Electron (beta)  Energy = -948.87382687438674
 Total Coulomb        Energy = 704.51380040464198
    3   -1029.3598548880      2.38e-02  
 Alpha HF Exchange    Energy =  -7.24113200789217
 Beta HF Exchange     Energy =  -7.24113200789216
 DFT Correlation      Energy =  -2.76545481394992
 DFT Exchange         Energy = -57.47785524424926
 One-Electron (alpha) Energy = -950.14675558987199
 One-Electron (beta)  Energy = -950.14675558987210
 Total Coulomb        Energy = 698.58088425916117
    4   -1037.5922200407      7.00e-03  
 Alpha HF Exchange    Energy =  -7.26099650584474
 Beta HF Exchange     Energy =  -7.26099650584476
 DFT Correlation      Energy =  -2.76887148785341
 DFT Exchange         Energy = -57.60315044979463
 One-Electron (alpha) Energy = -950.97053389563416
 One-Electron (beta)  Energy = -950.97053389563496
 Total Coulomb        Energy = 699.85579307346643
    5   -1038.1333087133      2.58e-03  
 Alpha HF Exchange    Energy =  -7.24972302497441
 Beta HF Exchange     Energy =  -7.24972302497441
 DFT Correlation      Energy =  -2.77279692270121
 DFT Exchange         Energy = -57.61365482460627
 One-Electron (alpha) Energy = -951.31926542755684
 One-Electron (beta)  Energy = -951.31926542755696
 Total Coulomb        Energy = 700.50055384931920
    6   -1038.1778938492      2.01e-03  
 Alpha HF Exchange    Energy =  -7.25313074842746
 Beta HF Exchange     Energy =  -7.25313074842746
 DFT Correlation      Energy =  -2.77294137063113
 DFT Exchange         Energy = -57.63160732171519
 One-Electron (alpha) Energy = -951.44678926800577
 One-Electron (beta)  Energy = -951.44678926800532
 Total Coulomb        Energy = 700.75304711232297
    7   -1038.2053606591      1.13e-03  
 Alpha HF Exchange    Energy =  -7.24924424363140
 Beta HF Exchange     Energy =  -7.24924424363140
 DFT Correlation      Energy =  -2.77228701986395
 DFT Exchange         Energy = -57.60923847308641
 One-Electron (alpha) Energy = -951.27088435732276
 One-Electron (beta)  Energy = -951.27088435732242
 Total Coulomb        Energy = 700.40059878610941
    8   -1038.1752029549      1.97e-03  
 Alpha HF Exchange    Energy =  -7.24918672275476
 Beta HF Exchange     Energy =  -7.24918672275476
 DFT Correlation      Energy =  -2.77229207341464
 DFT Exchange         Energy = -57.60913915964564
 One-Electron (alpha) Energy = -951.27054336495917
 One-Electron (beta)  Energy = -951.27054336495883
 Total Coulomb        Energy = 700.40224588441129
    9   -1038.1726645702      2.03e-03  
 Alpha HF Exchange    Energy =  -7.25475596359513
 Beta HF Exchange     Energy =  -7.25475596359511
 DFT Correlation      Energy =  -2.77252120429130
 DFT Exchange         Energy = -57.63011093887105
 One-Electron (alpha) Energy = -951.39799962118332
 One-Electron (beta)  Energy = -951.39799962118389
 Total Coulomb        Energy = 700.64519166405705
   10   -1038.2169706948      1.87e-04  
 Alpha HF Exchange    Energy =  -7.25466215638529
 Beta HF Exchange     Energy =  -7.25466215638522
 DFT Correlation      Energy =  -2.77237196086867
 DFT Exchange         Energy = -57.62744148484474
 One-Electron (alpha) Energy = -951.36199484397707
 One-Electron (beta)  Energy = -951.36199484397741
 Total Coulomb        Energy = 700.56984185311455
   11   -1038.2173046395      8.58e-05  
 Alpha HF Exchange    Energy =  -7.25512387693124
 Beta HF Exchange     Energy =  -7.25512387693104
 DFT Correlation      Energy =  -2.77240480324690
 DFT Exchange         Energy = -57.62921986913889
 One-Electron (alpha) Energy = -951.37555848867441
 One-Electron (beta)  Energy = -951.37555848867351
 Total Coulomb        Energy = 700.59961787377836
   12   -1038.2173905760      6.38e-06  
 Alpha HF Exchange    Energy =  -7.25515283016169
 Beta HF Exchange     Energy =  -7.25515283016126
 DFT Correlation      Energy =  -2.77240771524673
 DFT Exchange         Energy = -57.62935171973102
 One-Electron (alpha) Energy = -951.37631726165603
 One-Electron (beta)  Energy = -951.37631726165318
 Total Coulomb        Energy = 700.60132852880588
   13   -1038.2173901360      8.66e-06  
 Alpha HF Exchange    Energy =  -7.25511581669914
 Beta HF Exchange     Energy =  -7.25511581669823
 DFT Correlation      Energy =  -2.77240509189953
 DFT Exchange         Energy = -57.62921677576427
 One-Electron (alpha) Energy = -951.37546729960604
 One-Electron (beta)  Energy = -951.37546729959968
 Total Coulomb        Energy = 700.59941603838911
   14   -1038.2173911081      1.29e-06  
 Alpha HF Exchange    Energy =  -7.25510829405411
 Beta HF Exchange     Energy =  -7.25510829405155
 DFT Correlation      Energy =  -2.77240570932213
 DFT Exchange         Energy = -57.62920737037255
 One-Electron (alpha) Energy = -951.37557427785100
 One-Electron (beta)  Energy = -951.37557427783202
 Total Coulomb        Energy = 700.59960610406040
   15   -1038.2173911656      1.19e-06  
 Alpha HF Exchange    Energy =  -7.25510940055493
 Beta HF Exchange     Energy =  -7.25510940054695
 DFT Correlation      Energy =  -2.77240550674181
 DFT Exchange         Energy = -57.62920637524786
 One-Electron (alpha) Energy = -951.37552489333541
 One-Electron (beta)  Energy = -951.37552489327686
 Total Coulomb        Energy = 700.59950831873857
   16   -1038.2173911971      6.53e-07  Convergence criterion met
 ---------------------------------------
 SCF time:   CPU 38.96s  wall 4.00s 
<S^2> =         -0.000000000
 Alpha HF Exchange    Energy =  -7.25510940055493
 Beta HF Exchange     Energy =  -7.25510940054695
 DFT Correlation      Energy =  -2.77240550674181
 DFT Exchange         Energy = -57.62920637524786
 One-Electron (alpha) Energy = -951.37552489333541
 One-Electron (beta)  Energy = -951.37552489327686
 Total Coulomb        Energy = 700.59950831873857
 Nuclear repulsion Energy = 238.84598095382734
 SCF   energy in the final basis set =    -1038.2173911971
 Total energy in the final basis set =    -1038.2173911971
 
 --------------------------------------------------------------
 
                    Orbital Energies (a.u.)
 --------------------------------------------------------------
 
 Alpha MOs
 -- Occupied --
*******-101.439 -10.353 -10.264 -10.209  -9.555  -9.353  -7.318
 -7.311  -7.308  -7.115  -7.108  -7.108  -0.965  -0.839  -0.724
 -0.685  -0.635  -0.554  -0.514  -0.491  -0.437  -0.416  -0.401
 -0.389  -0.377  -0.220  -0.219  -0.219
 -- Virtual --
 -0.180  -0.009   0.052   0.072   0.122   0.137   0.152   0.182
  0.219   0.228   0.312   0.367   0.385   0.404   0.440   0.458
  0.472   0.495   0.502   0.523   0.526   0.565   0.599   0.645
  0.660   0.674   0.737   0.764   0.775   0.794   0.806   0.829
  0.853   0.864   0.887   0.896   0.930   0.971   0.972   0.981
  0.981   1.008   1.029   1.150   1.234   1.359   1.416   1.483
  1.581   1.615   1.668   1.798   1.849   1.873   1.947   2.023
  2.029   2.052   2.080   2.121   2.201   2.228   2.314   2.367
  2.386   2.497   2.537   2.630   2.672   2.748   2.788   2.848
  2.872   3.144   3.214   3.258   3.365   3.431   3.487   4.037
  4.264   4.326   4.387   4.572
 
 Beta MOs
 -- Occupied --
*******-101.439 -10.353 -10.264 -10.209  -9.555  -9.353  -7.318
 -7.311  -7.308  -7.115  -7.108  -7.108  -0.965  -0.839  -0.724
 -0.685  -0.635  -0.554  -0.514  -0.491  -0.437  -0.416  -0.401
 -0.389  -0.377  -0.220  -0.219  -0.219
 -- Virtual --
 -0.180  -0.009   0.052   0.072   0.122   0.137   0.152   0.182
  0.219   0.228   0.312   0.367   0.385   0.404   0.440   0.458
  0.472   0.495   0.502   0.523   0.526   0.565   0.599   0.645
  0.660   0.674   0.737   0.764   0.775   0.794   0.806   0.829
  0.853   0.864   0.887   0.896   0.930   0.971   0.972   0.981
  0.981   1.008   1.029   1.150   1.234   1.359   1.416   1.483
  1.581   1.615   1.668   1.798   1.849   1.873   1.947   2.023
  2.029   2.052   2.080   2.121   2.201   2.228   2.314   2.367
  2.386   2.497   2.537   2.630   2.672   2.748   2.788   2.848
  2.872   3.144   3.214   3.258   3.365   3.431   3.487   4.037
  4.264   4.326   4.387   4.572
 --------------------------------------------------------------
 
          Ground-State Mulliken Net Atomic Charges

     Atom                 Charge (a.u.)    Spin (a.u.)
  --------------------------------------------------------
      1 Cl                   -0.503342       0.000000
      2 Cl                    0.168826      -0.000000
      3 C                    -0.237934       0.000000
      4 C                    -0.125922      -0.000000
      5 C                    -0.310122       0.000000
      6 H                     0.190674      -0.000000
      7 H                     0.173790      -0.000000
      8 H                     0.206327       0.000000
      9 H                     0.176574      -0.000000
     10 H                     0.130563      -0.000000
     11 H                     0.130565       0.000000
  --------------------------------------------------------
  Sum of atomic charges =    -0.000000
  Sum of spin   charges =     0.000000

 -----------------------------------------------------------------
                    Cartesian Multipole Moments
 -----------------------------------------------------------------
    Charge (ESU x 10^10)
                -0.0000
    Dipole Moment (Debye)
         X      -0.8361      Y       8.1061      Z       6.3895
       Tot      10.3554
    Quadrupole Moments (Debye-Ang)
        XX     -41.6118     XY       0.7514     YY     -61.9893
        XZ       0.0335     YZ     -11.7495     ZZ     -48.9496
    Octopole Moments (Debye-Ang^2)
       XXX       5.7895    XXY      13.8579    XYY       7.1603
       YYY      92.5318    XXZ      20.3586    XYZ       0.0512
       YYZ      50.3953    XZZ       5.2442    YZZ      36.0562
       ZZZ      76.8075
    Hexadecapole Moments (Debye-Ang^3)
      XXXX    -250.9570   XXXY     -75.0398   XXYY    -215.8534
      XYYY     -79.2798   YYYY   -1177.0999   XXXZ     -10.2236
      XXYZ     -79.4822   XYYZ     -13.4637   YYYZ    -330.2507
      XXZZ    -110.5945   XYZZ     -26.1392   YYZZ    -301.2742
      XZZZ      -6.4062   YZZZ    -277.8086   ZZZZ    -450.7263
 -----------------------------------------------------------------
 Calculating analytic gradient of the SCF energy
 Gradient of SCF Energy
            1           2           3           4           5           6
    1   0.0000521  -0.0000407   0.0002663   0.0000624   0.0013288   0.0000675
    2  -0.0033253  -0.0000026  -0.0002916   0.0032195   0.0002521   0.0000843
    3  -0.0023089  -0.0000177  -0.0002251   0.0024988   0.0009544  -0.0002554
            7           8           9          10          11
    1  -0.0002036   0.0000151  -0.0012402  -0.0000492  -0.0002586
    2   0.0000837  -0.0000817   0.0000381  -0.0000862   0.0001097
    3   0.0001112  -0.0000062  -0.0007898   0.0000836  -0.0000450
 Max gradient component =       3.325E-03
 RMS gradient           =       1.078E-03
 Gradient time:  CPU 9.05 s  wall 0.85 s
 Geometry Optimization Parameters
   NAtoms,    NIC,     NZ,  NCons,   NDum,   NFix, NCnnct, MaxDiis
       11      66       0       1       0       0       0       0

 Cartesian Hessian Update
 Hessian Updated using BFGS Update


** CONSTRAINED OPTIMIZATION IN DELOCALIZED INTERNAL COORDINATES **
   Searching for a Minimum

   Optimization Cycle:   4

                       Coordinates (Angstroms)
     ATOM                X               Y               Z
      1  Cl        0.0024867467   -2.8589340349   -1.8280750268
      2  Cl        0.9562312711    1.9838297590   -0.0362074192
      3  C        -0.9642760497    0.2050042809    0.8317530219
      4  C         0.3174411442    0.8542518574    1.0360222847
      5  C        -1.4232688755   -0.2202814236   -0.5771405727
      6  H        -1.7019655164    0.9822719249    1.1346462343
      7  H        -1.0644992328   -0.6029511269    1.5628285234
      8  H         0.9327290838    0.6754715565    1.9122142239
      9  H        -0.8816190596   -1.1437889887   -0.8928585437
     10  H        -2.4936631895   -0.4374849086   -0.5478063565
     11  H        -1.2516983223    0.5626111041   -1.3199783693
   Point Group: c1    Number of degrees of freedom:    27


   Energy is  -1038.217391197

              Constraints and their Current Values
                                        Value     Constraint
   Distance(Angs):        1   4             4.700000     4.700000
 Hessian Updated using BFGS Update

 26 Hessian modes will be used to form the next step
  Hessian Eigenvalues:
     0.034051    0.045023    0.045063    0.048428    0.067340    0.081319
     0.085414    0.090178    0.120925    0.128541    0.143888    0.160143
     0.160491    0.165445    0.199682    0.211710    0.221427    0.307536
     0.318274    0.327074    0.343387    0.345671    0.346515    0.353438
     0.379677    0.412597

 Minimum Search - Taking Simple RFO Step
 Searching for Lamda that Minimizes Along All modes
 Value Taken    Lamda =  -0.00001319
 Step Taken.  Stepsize is  0.014147

                             Maximum     Tolerance    Cnvgd?
         Gradient           0.000622      0.000300      NO
         Displacement       0.004700      0.001200      NO
         Energy change     -0.000045      0.000001      NO


 New Cartesian Coordinates Obtained by Inverse Iteration

 Displacement from previous Coordinates is:  0.015860
 ----------------------------------------------------------------
             Standard Nuclear Orientation (Angstroms)
    I     Atom           X                Y                Z
 ----------------------------------------------------------------
    1      Cl      0.0003341670    -2.8602465378    -1.8268057627
    2      Cl      0.9543880256     1.9844350545    -0.0372376009
[...]
    7      H      -1.0587011775    -0.6047160877     1.5620078641
    8      H       0.9304331375     0.6815216640     1.9126100595
    9      H      -0.8659059207    -1.1462732141    -0.8788306137
   10      H      -2.4882636896    -0.4426767488    -0.5572396389
   11      H      -1.2376774810     0.5545025675    -1.3232223825
 ----------------------------------------------------------------
 Nuclear Repulsion Energy =   239.1125293969 hartrees
 There are       29 alpha and       29 beta electrons

                       Distance Matrix (Angstroms)
             Cl(  1)   Cl(  2)   C (  3)   C (  4)   C (  5)   H (  6)
   Cl(  2)  5.249279
   C (  3)  4.161607  2.758563
   C (  4)  4.700000  1.683667  1.450973
   C (  5)  3.225062  3.286391  1.542681  2.603704
   H (  6)  5.127520  3.080202  1.113270  2.028897  2.114543
   H (  7)  4.198244  3.649825  1.094323  2.074206  2.202880  1.761602
   H (  8)  5.234850  2.346751  2.233009  1.085433  3.540822  2.765924
   H (  9)  2.123737  3.719113  2.184094  3.013592  1.117054  3.047869
   H ( 10)  3.670460  4.244348  2.161621  3.476832  1.092191  2.345250
   H ( 11)  3.647068  2.916044  2.201200  2.840851  1.092621  2.542069
             H (  7)   H (  8)   H (  9)   H ( 10)
   H (  8)  2.394574
   H (  9)  2.507618  3.789434
   H ( 10)  2.561467  4.364799  1.797363
   H ( 11)  3.114542  3.897108  1.796757  1.773432
 
 Applying Cartesian multipole field
    Component          Value
    ---------          -----
     (2,0,0)        1.00000E-11
     (0,2,0)        2.00000E-11
     (0,0,2)       -3.00000E-11
 Nucleus-field energy     =     0.0000000084 hartrees
 Requested basis set is 6-31G(d,p)
 There are 40 shells and 113 basis functions
 A cutoff of  1.0D-14 yielded    757 shell pairs
 There are      6125 function pairs
 Smallest overlap matrix eigenvalue = 5.19E-03
 Guess from superposition of atomic densities
 Warning:  Energy on first SCF cycle will be non-variational
 SAD guess density has 58.000000 electrons

 -----------------------------------------------------------------------
  General SCF calculation program by
  Eric Jon Sundstrom, Paul Horn, Yuezhi Mao, Dmitri Zuev, Alec White,
  David Stuck, Shaama M.S., Shane Yost, Joonho Lee, David Small,
  Daniel Levine, Susi Lehtola, Hugh Burton, Evgeny Epifanovsky
 -----------------------------------------------------------------------
 Exchange:     0.2000 Hartree-Fock + 0.0800 Slater + 0.7200 B88
 Correlation:  0.1900 VWN1RPA + 0.8100 LYP
 Using SG-1 standard quadrature grid
 using 12 threads for integral computing
 -------------------------------------------------------
 OpenMP Integral computing Module                
 Release: version 1.0, May 2013, Q-Chem Inc. Pittsburgh 
 -------------------------------------------------------
 -------------------------------------------------------
 OpenMP BLAS3 based DFT computing Module                
 Release: version 1.0, May 2013, Q-Chem Inc. Pittsburgh 
 -------------------------------------------------------
 A unrestricted SCF calculation will be
 performed using DIIS
 SCF converges when DIIS error is below 1.0e-06
 Alpha HF Exchange    Energy =  -7.28090738418075
 Beta HF Exchange     Energy =  -7.28090738418075
 DFT Correlation      Energy =  -2.75953928384333
 DFT Exchange         Energy = -57.35052363095168
 One-Electron (alpha) Energy = -950.20082815764010
 One-Electron (beta)  Energy = -950.20082815764010
 Total Coulomb        Energy = 697.21034420548767
 ---------------------------------------
  Cycle       Energy         DIIS error
 ---------------------------------------
    1   -1038.7506603877      2.77e-02  
 Alpha HF Exchange    Energy =  -7.29542363955650
 Beta HF Exchange     Energy =  -7.29542363955650
 DFT Correlation      Energy =  -2.78298671617331
 DFT Exchange         Energy = -57.88496372583585
 One-Electron (alpha) Energy = -953.21556392107948
 One-Electron (beta)  Energy = -953.21556392107937
 Total Coulomb        Energy = 704.53162397665676
    2   -1038.0457721814      4.06e-03  
 Alpha HF Exchange    Energy =  -7.26132383021174
 Beta HF Exchange     Energy =  -7.26132383021175
 DFT Correlation      Energy =  -2.77684284328728
 DFT Exchange         Energy = -57.66872500097368
 One-Electron (alpha) Energy = -949.21465304054209
 One-Electron (beta)  Energy = -949.21465304054288
 Total Coulomb        Energy = 704.71756602528649
    3   -1029.5674261552      2.41e-02  
 Alpha HF Exchange    Energy =  -7.24245517188584
 Beta HF Exchange     Energy =  -7.24245517188583
 DFT Correlation      Energy =  -2.76562133020167
 DFT Exchange         Energy = -57.47969513973420
 One-Electron (alpha) Energy = -950.38769809721737
 One-Electron (beta)  Energy = -950.38769809721703
 Total Coulomb        Energy = 698.84943934108105
    4   -1037.5436542618      7.12e-03  
 Alpha HF Exchange    Energy =  -7.26151840845896
 Beta HF Exchange     Energy =  -7.26151840845896
 DFT Correlation      Energy =  -2.76901736241041
 DFT Exchange         Energy = -57.60567527200550
 One-Electron (alpha) Energy = -951.25126663085223
 One-Electron (beta)  Energy = -951.25126663085280
 Total Coulomb        Energy = 700.16018699716813
    5   -1038.1275463106      2.68e-03  
 Alpha HF Exchange    Energy =  -7.25225717692474
 Beta HF Exchange     Energy =  -7.25225717692475
 DFT Correlation      Energy =  -2.77280426787114
 DFT Exchange         Energy = -57.61927946382002
 One-Electron (alpha) Energy = -951.59986516639435
 One-Electron (beta)  Energy = -951.59986516639447
 Total Coulomb        Energy = 700.77312862748977
    6   -1038.2106703856      8.95e-04  
 Alpha HF Exchange    Energy =  -7.25239253682717
 Beta HF Exchange     Energy =  -7.25239253682717
 DFT Correlation      Energy =  -2.77289994319755
 DFT Exchange         Energy = -57.62892714602629
 One-Electron (alpha) Energy = -951.69506352744747
 One-Electron (beta)  Energy = -951.69506352744770
 Total Coulomb        Energy = 700.98566003047290
    7   -1038.1985497821      1.31e-03  
 Alpha HF Exchange    Energy =  -7.25252253361496
 Beta HF Exchange     Energy =  -7.25252253361495
 DFT Correlation      Energy =  -2.77285806098924
 DFT Exchange         Energy = -57.62824435305861
 One-Electron (alpha) Energy = -951.68502192253288
 One-Electron (beta)  Energy = -951.68502192253197
 Total Coulomb        Energy = 700.96112381491105
    8   -1038.2025381062      1.17e-03  
 Alpha HF Exchange    Energy =  -7.25224038500513
 Beta HF Exchange     Energy =  -7.25224038500513
 DFT Correlation      Energy =  -2.77261729299357
 DFT Exchange         Energy = -57.62309505200216
 One-Electron (alpha) Energy = -951.63709689710822
 One-Electron (beta)  Energy = -951.63709689710834
 Total Coulomb        Energy = 700.85526305497467
    9   -1038.2065944490      9.63e-04  
 Alpha HF Exchange    Energy =  -7.25594154986204
 Beta HF Exchange     Energy =  -7.25594154986203
 DFT Correlation      Energy =  -2.77267661527642
 DFT Exchange         Energy = -57.63338799477002
 One-Electron (alpha) Energy = -951.67589085618010
 One-Electron (beta)  Energy = -951.67589085618010
 Total Coulomb        Energy = 700.93993415229033
   10   -1038.2172658646      1.20e-04  
 Alpha HF Exchange    Energy =  -7.25500384472178
 Beta HF Exchange     Energy =  -7.25500384472174
 DFT Correlation      Energy =  -2.77255518131551
 DFT Exchange         Energy = -57.62899760054387
 One-Electron (alpha) Energy = -951.64088575305038
 One-Electron (beta)  Energy = -951.64088575304936
 Total Coulomb        Energy = 700.86337560283414
   11   -1038.2174269693      2.64e-05  
 Alpha HF Exchange    Energy =  -7.25513003017615
 Beta HF Exchange     Energy =  -7.25513003017608
 DFT Correlation      Energy =  -2.77256913377221
 DFT Exchange         Energy = -57.62954913480331
 One-Electron (alpha) Energy = -951.64591089464341
 One-Electron (beta)  Energy = -951.64591089464238
 Total Coulomb        Energy = 700.87423576576589
   12   -1038.2174349472      5.03e-06  
 Alpha HF Exchange    Energy =  -7.25516230973902
 Beta HF Exchange     Energy =  -7.25516230973889
 DFT Correlation      Energy =  -2.77257181361543
 DFT Exchange         Energy = -57.62967805756263
 One-Electron (alpha) Energy = -951.64673256442029
 One-Electron (beta)  Energy = -951.64673256441927
 Total Coulomb        Energy = 700.87607499387263
   13   -1038.2174352204      1.71e-06  
 Alpha HF Exchange    Energy =  -7.25515418732972
 Beta HF Exchange     Energy =  -7.25515418732945
 DFT Correlation      Energy =  -2.77257061336149
 DFT Exchange         Energy = -57.62963861605408
 One-Electron (alpha) Energy = -951.64640540109485
 One-Electron (beta)  Energy = -951.64640540109269
 Total Coulomb        Energy = 700.87536373959983
   14   -1038.2174352614      4.47e-07  Convergence criterion met
 ---------------------------------------
 SCF time:   CPU 34.23s  wall 3.00s 
<S^2> =         -0.000000000
 Alpha HF Exchange    Energy =  -7.25515418732972
 Beta HF Exchange     Energy =  -7.25515418732945
 DFT Correlation      Energy =  -2.77257061336149
 DFT Exchange         Energy = -57.62963861605408
 One-Electron (alpha) Energy = -951.64640540109485
 One-Electron (beta)  Energy = -951.64640540109269
 Total Coulomb        Energy = 700.87536373959983
 Nuclear repulsion Energy = 239.11252940523525
 SCF   energy in the final basis set =    -1038.2174352614
 Total energy in the final basis set =    -1038.2174352614
 
 --------------------------------------------------------------
 
                    Orbital Energies (a.u.)
 --------------------------------------------------------------
 
 Alpha MOs
 -- Occupied --
*******-101.440 -10.352 -10.264 -10.209  -9.554  -9.353  -7.318
 -7.310  -7.307  -7.115  -7.109  -7.109  -0.965  -0.838  -0.724
 -0.685  -0.634  -0.553  -0.513  -0.490  -0.437  -0.416  -0.401
 -0.388  -0.377  -0.221  -0.220  -0.219
 -- Virtual --
 -0.180  -0.009   0.052   0.073   0.122   0.137   0.152   0.182
  0.220   0.227   0.312   0.367   0.386   0.405   0.440   0.457
  0.473   0.496   0.501   0.523   0.526   0.565   0.598   0.645
  0.661   0.675   0.737   0.764   0.776   0.794   0.807   0.829
  0.854   0.864   0.887   0.897   0.932   0.970   0.973   0.980
  0.980   1.008   1.029   1.151   1.233   1.359   1.417   1.483
  1.580   1.618   1.668   1.799   1.850   1.872   1.946   2.022
  2.029   2.053   2.080   2.120   2.201   2.230   2.314   2.368
  2.386   2.497   2.538   2.631   2.669   2.748   2.788   2.846
  2.875   3.144   3.215   3.258   3.363   3.430   3.487   4.038
  4.265   4.326   4.387   4.572
 
 Beta MOs
 -- Occupied --
*******-101.440 -10.352 -10.264 -10.209  -9.554  -9.353  -7.318
 -7.310  -7.307  -7.115  -7.109  -7.109  -0.965  -0.838  -0.724
 -0.685  -0.634  -0.553  -0.513  -0.490  -0.437  -0.416  -0.401
 -0.388  -0.377  -0.221  -0.220  -0.219
 -- Virtual --
 -0.180  -0.009   0.052   0.073   0.122   0.137   0.152   0.182
  0.220   0.227   0.312   0.367   0.386   0.405   0.440   0.457
  0.473   0.496   0.501   0.523   0.526   0.565   0.598   0.645
  0.661   0.675   0.737   0.764   0.776   0.794   0.807   0.829
  0.854   0.864   0.887   0.897   0.932   0.970   0.973   0.980
  0.980   1.008   1.029   1.151   1.233   1.359   1.417   1.483
  1.580   1.618   1.668   1.799   1.850   1.872   1.946   2.022
  2.029   2.053   2.080   2.120   2.201   2.230   2.314   2.368
  2.386   2.497   2.538   2.631   2.669   2.748   2.788   2.846
  2.875   3.144   3.215   3.258   3.363   3.430   3.487   4.038
  4.265   4.326   4.387   4.572
 --------------------------------------------------------------
 
          Ground-State Mulliken Net Atomic Charges

     Atom                 Charge (a.u.)    Spin (a.u.)
  --------------------------------------------------------
      1 Cl                   -0.501180       0.000000
      2 Cl                    0.167737      -0.000000
      3 C                    -0.238763       0.000000
      4 C                    -0.126912      -0.000000
      5 C                    -0.308432       0.000000
      6 H                     0.191255      -0.000000
      7 H                     0.173783      -0.000000
      8 H                     0.205917       0.000000
      9 H                     0.174460      -0.000000
     10 H                     0.131098      -0.000000
     11 H                     0.131035       0.000000
  --------------------------------------------------------
  Sum of atomic charges =    -0.000000
  Sum of spin   charges =    -0.000000

 -----------------------------------------------------------------
                    Cartesian Multipole Moments
 -----------------------------------------------------------------
    Charge (ESU x 10^10)
                 0.0000
    Dipole Moment (Debye)
         X      -0.7806      Y       8.0456      Z       6.3823
       Tot      10.2992
    Quadrupole Moments (Debye-Ang)
        XX     -41.6178     XY       0.5498     YY     -61.8221
        XZ      -0.1059     YZ     -11.7077     ZZ     -48.9866
    Octopole Moments (Debye-Ang^2)
       XXX       6.9318    XXY      13.6904    XYY       8.0568
       YYY      91.0886    XXZ      20.4615    XYZ       0.3732
       YYZ      50.2000    XZZ       5.8800    YZZ      35.8176
       ZZZ      77.0513
    Hexadecapole Moments (Debye-Ang^3)
      XXXX    -249.5589   XXXY     -78.5000   XXYY    -215.1774
      XYYY     -83.8909   YYYY   -1170.2225   XXXZ     -12.2437
      XXYZ     -79.4508   XYYZ     -14.9692   YYYZ    -328.8443
      XXZZ    -110.7632   XYZZ     -27.8826   YYZZ    -300.3280
      XZZZ      -8.8998   YZZZ    -277.4560   ZZZZ    -452.6380
 -----------------------------------------------------------------
 Calculating analytic gradient of the SCF energy
 Gradient of SCF Energy
            1           2           3           4           5           6
    1  -0.0003402   0.0000347   0.0000231   0.0002389   0.0000446   0.0000011
    2  -0.0027841  -0.0000357   0.0000181   0.0028145   0.0000908  -0.0000303
    3  -0.0021241  -0.0000228  -0.0000297   0.0021853   0.0002014  -0.0000039
            7           8           9          10          11
    1   0.0000413   0.0000049  -0.0000274  -0.0000286   0.0000076
    2  -0.0000289  -0.0000136  -0.0000814   0.0000483   0.0000024
    3  -0.0000146   0.0000035  -0.0001674  -0.0000072  -0.0000206
 Max gradient component =       2.814E-03
 RMS gradient           =       8.744E-04
 Gradient time:  CPU 9.22 s  wall 0.84 s
 Geometry Optimization Parameters
   NAtoms,    NIC,     NZ,  NCons,   NDum,   NFix, NCnnct, MaxDiis
       11      66       0       1       0       0       0       0

 Cartesian Hessian Update
 Hessian Updated using BFGS Update


** CONSTRAINED OPTIMIZATION IN DELOCALIZED INTERNAL COORDINATES **
   Searching for a Minimum

   Optimization Cycle:  11

                       Coordinates (Angstroms)
     ATOM                X               Y               Z
      1  Cl       -0.0265551768   -2.8475367268   -1.8335310382
      2  Cl        0.9530373792    1.9867031992   -0.0375775028
      3  C        -0.9656873776    0.2062647502    0.8331715470
      4  C         0.3142918993    0.8586012701    1.0367239295
      5  C        -1.4185035914   -0.2234017100   -0.5775763652
      6  H        -1.7085700012    0.9770110364    1.1388621411
      7  H        -1.0587011775   -0.6047160877    1.5620078641
      8  H         0.9304331375    0.6815216640    1.9126100595
      9  H        -0.8659059207   -1.1462732141   -0.8788306137
     10  H        -2.4882636896   -0.4426767488   -0.5572396389
     11  H        -1.2376774810    0.5545025675   -1.3232223825
   Point Group: c1    Number of degrees of freedom:    27


   Energy is  -1038.217435261

              Constraints and their Current Values
                                        Value     Constraint
   Distance(Angs):        1   4             4.700000     4.700000
 Hessian Updated using BFGS Update

 26 Hessian modes will be used to form the next step
  Hessian Eigenvalues:
     0.006818    0.012980    0.044749    0.045161    0.049907    0.070024
     0.081563    0.085517    0.094290    0.119553    0.143056    0.159616
     0.160291    0.166177    0.183497    0.210246    0.221337    0.302119
     0.306504    0.326094    0.343606    0.345536    0.346384    0.353489
     0.379674    0.399591

 Minimum Search - Taking Simple RFO Step
 Searching for Lamda that Minimizes Along All modes
 Value Taken    Lamda =   0.00000000
 Step Taken.  Stepsize is  0.009120

                             Maximum     Tolerance    Cnvgd?
         Gradient           0.000092      0.000300     YES
         Displacement       0.005409      0.001200      NO
         Energy change     -0.000001      0.000001     YES


                       Distance Matrix (Angstroms)
             Cl(  1)   Cl(  2)   C (  3)   C (  4)   C (  5)   H (  6)
   Cl(  2)  5.249279
   C (  3)  4.161607  2.758563
   C (  4)  4.700000  1.683667  1.450973
   C (  5)  3.225062  3.286391  1.542681  2.603704
   H (  6)  5.127520  3.080202  1.113270  2.028897  2.114543
   H (  7)  4.198244  3.649825  1.094323  2.074206  2.202880  1.761602
   H (  8)  5.234850  2.346751  2.233009  1.085433  3.540822  2.765924
   H (  9)  2.123737  3.719113  2.184094  3.013592  1.117054  3.047869
   H ( 10)  3.670460  4.244348  2.161621  3.476832  1.092191  2.345250
   H ( 11)  3.647068  2.916044  2.201200  2.840851  1.092621  2.542069
             H (  7)   H (  8)   H (  9)   H ( 10)
   H (  8)  2.394574
   H (  9)  2.507618  3.789434
   H ( 10)  2.561467  4.364799  1.797363
   H ( 11)  3.114542  3.897108  1.796757  1.773432
 
 Final energy is   -1038.21743526143     


 ******************************
 **  OPTIMIZATION CONVERGED  **
 ******************************

                       Coordinates (Angstroms)
     ATOM                X               Y               Z
      1  Cl       -0.0265551768   -2.8475367268   -1.8335310382
      2  Cl        0.9530373792    1.9867031992   -0.0375775028
      3  C        -0.9656873776    0.2062647502    0.8331715470
      4  C         0.3142918993    0.8586012701    1.0367239295
      5  C        -1.4185035914   -0.2234017100   -0.5775763652
      6  H        -1.7085700012    0.9770110364    1.1388621411
      7  H        -1.0587011775   -0.6047160877    1.5620078641
      8  H         0.9304331375    0.6815216640    1.9126100595
      9  H        -0.8659059207   -1.1462732141   -0.8788306137
     10  H        -2.4882636896   -0.4426767488   -0.5572396389
     11  H        -1.2376774810    0.5545025675   -1.3232223825

Z-matrix Print:
$molecule
0 1
Cl
C  1 1.683667
H  2 1.085433 1 114.132480
C  2 1.450973 1 123.119706 3 178.304413 0
H  4 1.094323 2 108.344239 1 169.553297 0
H  4 1.113270 2 103.820277 1 -78.220217 0
C  4 1.542681 2 120.826595 1 38.157395 0
H  7 1.092191 4 109.049606 2 -165.107439 0
H  7 1.092621 4 112.160447 2 -44.869050 0
H  7 1.117054 4 109.361090 2 75.925814 0
Cl 10 2.123737 7 168.115531 4 -175.851577 0
$end

PES scan, value:    4.7000 energy: -1038.2174352614
------- Summary of potential scan: ------ 
    4.7000     -1038.2174352614
----------------------------------------- 
Archival summary:
1\1\hpc0332\JobtypUnspecified\ProcedureUnspecified\6-31G**\l236\knomura\MonMar1122:03:002019MonMar1122:03:002019\0\\#,JobtypUnspecified,ProcedureUnspecified,6-31G**,\\0,1\Cl\C,1,1.68367\H,2,1.08543,1,114.132\C,2,1.45097,1,123.12,3,178.304,0\H,4,1.09432,2,108.344,1,169.553,0\H,4,1.11327,2,103.82,1,-78.2202,0\C,4,1.54268,2,120.827,1,38.1574,0\H,7,1.09219,4,109.05,2,-165.107,0\H,7,1.09262,4,112.16,2,-44.869,0\H,7,1.11705,4,109.361,2,75.9258,0\Cl,10,2.12374,7,168.116,4,-175.852,0\\\@

 Total job time:  47.65s(wall), 550.13s(cpu) 
 Mon Mar 11 22:03:00 2019

        *************************************************************
        *                                                           *
        *  Thank you very much for using Q-Chem.  Have a nice day.  *
        *                                                           *
        *************************************************************


