
Running Job 1 of 1 ruruma/CH3CH2CHCl2_afterGeo_siglet.xyz.data/inputs/bond_triplet_3.6.in
qchem ruruma/CH3CH2CHCl2_afterGeo_siglet.xyz.data/inputs/bond_triplet_3.6.in_19095.0 /staging/scratch/2858534/qchem19095/ 1
/usr/usc/qchem/5.1.1/exe/qcprog.exe_s ruruma/CH3CH2CHCl2_afterGeo_siglet.xyz.data/inputs/bond_triplet_3.6.in_19095.0 /staging/scratch/2858534/qchem19095/
Check license passed

                  Welcome to Q-Chem
     A Quantum Leap Into The Future Of Chemistry


 Q-Chem 5.1, Q-Chem, Inc., Pleasanton, CA (2018)

 Yihan Shao,  Zhengting Gan,  E. Epifanovsky,  A. T. B. Gilbert,  M. Wormit,  
 J. Kussmann,  A. W. Lange,  A. Behn,  Jia Deng,  Xintian Feng,  D. Ghosh,  
 M. Goldey,  P. R. Horn,  L. D. Jacobson,  I. Kaliman,  T. Kus,  A. Landau,  
 Jie Liu,  E. I. Proynov,  R. M. Richard,  R. P. Steele,  E. J. Sundstrom,  
 H. L. Woodcock III,  P. M. Zimmerman,  D. Zuev,  B. Albrecht,  E. Alguire,  
 S. A. Baeppler,  D. Barton,  Z. Benda,  Y. A. Bernard,  E. J. Berquist,  
 K. B. Bravaya,  H. Burton,  D. Casanova,  Chun-Min Chang,  Yunqing Chen,  
 A. Chien,  K. D. Closser,  M. P. Coons,  S. Coriani,  S. Dasgupta,  
 A. L. Dempwolff,  M. Diedenhofen,  Hainam Do,  R. G. Edgar,  Po-Tung Fang,  
 S. Faraji,  S. Fatehi,  Qingguo Feng,  K. D. Fenk,  J. Fosso-Tande,  
 Qinghui Ge,  A. Ghysels,  G. Gidofalvi,  J. Gomes,  J. Gonthier,  A. Gunina,  
 D. Hait,  M. W. D. Hanson-Heine,  P. H. P. Harbach,  A. W. Hauser,  
 J. E. Herr,  E. G. Hohenstein,  Z. C. Holden,  Kerwin Hui,  B. C. Huynh,  
 T.-C. Jagau,  Hyunjun Ji,  B. Kaduk,  K. Khistyaev,  Jaehoon Kim,  
 P. Klunzinger,  K. Koh,  D. Kosenkov,  L. Koulias,  T. Kowalczyk,  
 C. M. Krauter,  A. Kunitsa,  Ka Un Lao,  A. Laurent,  K. V. Lawler,  
 Joonho Lee,  D. Lefrancois,  S. Lehtola,  D. S. Levine,  Yi-Pei Li,  
 You-Sheng Lin,  Fenglai Liu,  E. Livshits,  A. Luenser,  P. Manohar,  
 E. Mansoor,  S. F. Manzer,  Shan-Ping Mao,  Yuezhi Mao,  N. Mardirossian,  
 A. V. Marenich,  T. Markovich,  L. A. Martinez-Martinez,  S. A. Maurer,  
 N. J. Mayhall,  S. C. McKenzie,  J.-M. Mewes,  A. F. Morrison,  
 J. W. Mullinax,  K. Nanda,  T. S. Nguyen-Beck,  R. Olivares-Amaya,  
 J. A. Parkhill,  T. M. Perrine,  F. Plasser,  P. Pokhilko,  S. Prager,  
 A. Prociuk,  E. Ramos,  D. R. Rehn,  F. Rob,  M. Schneider,  N. Sergueev,  
 S. M. Sharada,  S. Sharma,  D. W. Small,  T. Stauch,  T. Stein,  
 Yu-Chuan Su,  A. J. W. Thom,  A. Tkatchenko,  T. Tsuchimochi,  N. M. Tubman,  
 L. Vogt,  M. L. Vidal,  O. Vydrov,  M. A. Watson,  J. Wenzel,  
 M. de Wergifosse,  T. A. Wesolowski,  A. White,  J. Witte,  A. Yamada,  
 Jun Yang,  K. Yao,  S. Yeganeh,  S. R. Yost,  Zhi-Qiang You,  A. Zech,  
 Igor Ying Zhang,  Xing Zhang,  Yan Zhao,  Ying Zhu,  B. R. Brooks,  
 G. K. L. Chan,  C. J. Cramer,  M. S. Gordon,  W. J. Hehre,  A. Klamt,  
 M. W. Schmidt,  C. D. Sherrill,  D. G. Truhlar,  A. Aspuru-Guzik,  R. Baer,  
 A. T. Bell,  N. A. Besley,  Jeng-Da Chai,  A. E. DePrince, III,  
 R. A. DiStasio Jr.,  A. Dreuw,  B. D. Dunietz,  T. R. Furlani,  
 Chao-Ping Hsu,  Yousung Jung,  Jing Kong,  D. S. Lambrecht,  WanZhen Liang,  
 C. Ochsenfeld,  V. A. Rassolov,  L. V. Slipchenko,  J. E. Subotnik,  
 T. Van Voorhis,  J. M. Herbert,  A. I. Krylov,  P. M. W. Gill,  M. Head-Gordon

 Contributors to earlier versions of Q-Chem not listed above: 
 R. D. Adamson,  B. Austin,  J. Baker,  G. J. O. Beran,  K. Brandhorst,  
 S. T. Brown,  E. F. C. Byrd,  A. K. Chakraborty,  C.-L. Cheng,  
 Siu Hung Chien,  D. M. Chipman,  D. L. Crittenden,  H. Dachsel,  
 R. J. Doerksen,  A. D. Dutoi,  L. Fusti-Molnar,  W. A. Goddard III,  
 A. Golubeva-Zadorozhnaya,  S. R. Gwaltney,  G. Hawkins,  A. Heyden,  
 S. Hirata,  G. Kedziora,  F. J. Keil,  C. Kelley,  Jihan Kim,  R. A. King,  
 R. Z. Khaliullin,  P. P. Korambath,  W. Kurlancheek,  A. M. Lee,  M. S. Lee,  
 S. V. Levchenko,  Ching Yeh Lin,  D. Liotard,  R. C. Lochan,  I. Lotan,  
 P. E. Maslen,  N. Nair,  D. P. O'Neill,  D. Neuhauser,  E. Neuscamman,  
 C. M. Oana,  R. Olson,  B. Peters,  R. Peverati,  P. A. Pieniazek,  
 Y. M. Rhee,  J. Ritchie,  M. A. Rohrdanz,  E. Rosta,  N. J. Russ,  
 H. F. Schaefer III,  N. E. Schultz,  N. Shenvi,  A. C. Simmonett,  A. Sodt,  
 D. Stuck,  K. S. Thanthiriwatte,  V. Vanovschi,  Tao Wang,  A. Warshel,  
 C. F. Williams,  Q. Wu,  X. Xu,  W. Zhang

 Please cite Q-Chem as follows:
 Y. Shao et al., Mol. Phys. 113, 184-215 (2015)
 DOI: 10.1080/00268976.2014.952696

 Q-Chem 5.1.1 for Intel X86 EM64T Linux

 Parts of Q-Chem use Armadillo 8.300.2 (Tropical Shenanigans).
 http://arma.sourceforge.net/

 Q-Chem begins on Mon Mar 11 22:34:26 2019  

Host: 
0

     Scratch files written to /staging/scratch/2858534/qchem19095//
 Aug318 |scratch|qcdevops|jenkins|workspace|build_RNUM 6013   
Processing $rem in /usr/usc/qchem/5.1.1/config/preferences.
 MEM_TOTAL  2000 
Input Ideriv = 2
Curr. Ideriv = -1
Max.  Ideriv = 2

Checking the input file for inconsistencies... 	...done.

--------------------------------------------------------------
User input:
--------------------------------------------------------------

$comment
potential surface scanner
$end

$rem
JOBTYPE  PES_SCAN
UNRESTRICTED TRUE
SYM_IGNORE  TRUE
GEOM_OPT_MAX_CYCLES 400
SCF_MAX_CYCLES 400
METHOD   B3LYP
BASIS   6-31G**
PDB_PRINT 2
SCF_CONVERGENCE 6
THRESH 14
SCF_PRINT 1
$end
$molecule
0 3
Cl -0.329166 -1.913177 -0.559973
Cl -0.584059 2.257120 0.200165
C -0.919826 0.590545 2.391771
C 0.015430 1.168078 1.459216
C -0.935858 -1.031225 -2.016341
H -1.131447 1.069740 3.345630
H -1.515472 -0.281866 2.124103
H 0.977685 0.739086 1.203472
H -1.066730 0.016311 -1.749359
H -1.884481 -1.476266 -2.313043
H -0.198179 -1.138338 -2.810235
$end
$scan
stre 1 4 3.600000 3.601000 0.100000
$end
--------------------------------------------------------------
 ----------------------------------------------------------------
             Standard Nuclear Orientation (Angstroms)
    I     Atom           X                Y                Z
 ----------------------------------------------------------------
    1      Cl     -0.3291660000    -1.9131770000    -0.5599730000
    2      Cl     -0.5840590000     2.2571200000     0.2001650000
    3      C      -0.9198260000     0.5905450000     2.3917710000
    4      C       0.0154300000     1.1680780000     1.4592160000
    5      C      -0.9358580000    -1.0312250000    -2.0163410000
    6      H      -1.1314470000     1.0697400000     3.3456300000
    7      H      -1.5154720000    -0.2818660000     2.1241030000
    8      H       0.9776850000     0.7390860000     1.2034720000
    9      H      -1.0667300000     0.0163110000    -1.7493590000
   10      H      -1.8844810000    -1.4762660000    -2.3130430000
   11      H      -0.1981790000    -1.1383380000    -2.8102350000
 ----------------------------------------------------------------
 Nuclear Repulsion Energy =   244.4594934526 hartrees
 There are       30 alpha and       28 beta electrons
 Requested basis set is 6-31G(d,p)
 There are 40 shells and 113 basis functions

 Total QAlloc Memory Limit   2000 MB
 Mega-Array Size       188 MB
 MEM_STATIC part       192 MB
A total of 1 constraints
  
            1
    1   1.0100000
    2   1.0100000
    3   4.0100000
    4   3.6000000
    5   3.6010000
    6   0.1000000
    7   0.0000000
    8   0.0000000
    9   0.0000000
   10   0.0000000

                       Distance Matrix (Angstroms)
             Cl(  1)   Cl(  2)   C (  3)   C (  4)   C (  5)   H (  6)
   Cl(  2)  4.246664
   C (  3)  3.915392  2.773689
   C (  4)  3.700000  1.769353  1.441495
   C (  5)  1.807463  3.981190  4.697004  4.221538
   H (  6)  4.979476  3.406384  1.088236  2.209877  5.762208
   H (  7)  3.357493  3.318963  1.089744  2.210899  4.247443  1.861838
   H (  8)  3.442687  2.397936  2.243806  1.084147  4.142806  3.024336
   H (  9)  2.383603  3.009126  4.183334  3.576673  1.088916  5.203154
   H ( 10)  2.383936  4.684601  5.228532  4.983187  1.089027  6.250583
   H ( 11)  2.383529  4.554179  5.529076  4.857303  1.088995  6.606154
             H (  7)   H (  8)   H (  9)   H ( 10)
   H (  8)  2.847057
   H (  9)  3.910753  3.663502
   H ( 10)  4.609883  5.046351  1.792831
   H ( 11)  5.178465  4.584454  1.792499  1.790254
 
 A cutoff of  1.0D-14 yielded    716 shell pairs
 There are      5981 function pairs
 
 -------------------------------------------------------
 OpenMP Integral Computing Module                       
 Release: version 1.0, May 2013, Q-Chem Inc. Pittsburgh 
 -------------------------------------------------------
 Integral Job Info:
 Integral job number is                      11
 Integral operator is                         1
 short-range coefficients                     0
 long-range coefficients              100000000
 Omega coefficients                           0
 if combine SR and LR in K                    0
 Integral screening is                        0
 Integral computing path is                   2
 max size of driver memory is            800000
 size of driver memory is                593474
 size of scratch memory is             15267112
 max col of scratch BK array               1296
 max len of scratch array in speh3          155
 max len of scratch index in speh4           18
 max int batch size is                      520
 min int batch size is                       52
 fixed nKL is                                52
 max L of basis functions is                  2
 order of int derivative is                   0
 number of shells is                         40
 number of basis is                         113
 number of cartesian basis is               113
 number of contracted shell pairs           716
 number of primitive shell pairs           2799
 maxK2 (contraction) of shell pair           36
 max number of K2 of shell pair               1
 max number of CS2 of shell pair             64
 max number of PS2 of shell pair            318
 mem total for path MDJ                  514728
 -------------------------------------------------------
 Smallest overlap matrix eigenvalue = 9.10E-03

 Scale SEOQF with 1.000000e-01/1.000000e-01/1.000000e-01

 Standard Electronic Orientation quadrupole field applied
 Nucleus-field energy     =     0.0000000013 hartrees
 Guess from superposition of atomic densities
 Warning:  Energy on first SCF cycle will be non-variational
 SAD guess density has 58.000000 electrons

 -----------------------------------------------------------------------
  General SCF calculation program by
  Eric Jon Sundstrom, Paul Horn, Yuezhi Mao, Dmitri Zuev, Alec White,
  David Stuck, Shaama M.S., Shane Yost, Joonho Lee, David Small,
  Daniel Levine, Susi Lehtola, Hugh Burton, Evgeny Epifanovsky
 -----------------------------------------------------------------------
 Exchange:     0.2000 Hartree-Fock + 0.0800 Slater + 0.7200 B88
 Correlation:  0.1900 VWN1RPA + 0.8100 LYP
 Using SG-1 standard quadrature grid
 using 12 threads for integral computing
 -------------------------------------------------------
 OpenMP Integral computing Module                
 Release: version 1.0, May 2013, Q-Chem Inc. Pittsburgh 
 -------------------------------------------------------
 -------------------------------------------------------
 OpenMP BLAS3 based DFT computing Module                
 Release: version 1.0, May 2013, Q-Chem Inc. Pittsburgh 
 -------------------------------------------------------
 A unrestricted SCF calculation will be
 performed using DIIS
 SCF converges when DIIS error is below 1.0e-06
 Alpha HF Exchange    Energy =  -7.25869804723042
 Beta HF Exchange     Energy =  -7.25869804723042
 DFT Correlation      Energy =  -2.75109540979282
 DFT Exchange         Energy = -57.31267393473289
 One-Electron (alpha) Energy = -955.56910930614526
 One-Electron (beta)  Energy = -955.56910930614526
 Total Coulomb        Energy = 702.69201760686781
 ---------------------------------------
  Cycle       Energy         DIIS error
 ---------------------------------------
    1   -1038.5678729905      2.64e-02  
 Alpha HF Exchange    Energy =  -7.38438577509036
 Beta HF Exchange     Energy =  -7.18948537574880
 DFT Correlation      Energy =  -2.76612586121741
 DFT Exchange         Energy = -57.82861254713835
 One-Electron (alpha) Energy = -972.53134704833008
 One-Electron (beta)  Energy = -944.48282918269126
 Total Coulomb        Energy = 709.56166321210276
    2   -1038.1616291242      2.43e-03  
 Alpha HF Exchange    Energy =  -7.34320348016997
 Beta HF Exchange     Energy =  -7.16051463244223
 DFT Correlation      Energy =  -2.74676384230835
 DFT Exchange         Energy = -57.51727819216631
 One-Electron (alpha) Energy = -970.33703738499082
 One-Electron (beta)  Energy = -942.58075846840325
 Total Coulomb        Energy = 705.06058434046372
    3   -1038.1654782061      2.43e-03  
 Alpha HF Exchange    Energy =  -7.36060369874050
 Beta HF Exchange     Energy =  -7.17043671974761
 DFT Correlation      Energy =  -2.75464173526496
 DFT Exchange         Energy = -57.63748015314156
 One-Electron (alpha) Energy = -971.18101972729130
 One-Electron (beta)  Energy = -943.19598526274433
 Total Coulomb        Energy = 706.63481598447822
    4   -1038.2058578586      4.19e-04  
 Alpha HF Exchange    Energy =  -7.36356031417323
 Beta HF Exchange     Energy =  -7.17422005679533
 DFT Correlation      Energy =  -2.75468790449955
 DFT Exchange         Energy = -57.66118872358601
 One-Electron (alpha) Energy = -971.37735341557141
 One-Electron (beta)  Energy = -943.40769863845935
 Total Coulomb        Energy = 707.07217254072418
    5   -1038.2070430585      1.61e-04  
 Alpha HF Exchange    Energy =  -7.36284118941117
 Beta HF Exchange     Energy =  -7.17318361154759
 DFT Correlation      Energy =  -2.75436592707322
 DFT Exchange         Energy = -57.65419806842603
 One-Electron (alpha) Energy = -971.31518198188269
 One-Electron (beta)  Energy = -943.32830970893190
 Total Coulomb        Energy = 706.92135846381143
    6   -1038.2072285696      4.98e-05  
 Alpha HF Exchange    Energy =  -7.36283266111216
 Beta HF Exchange     Energy =  -7.17324057878934
 DFT Correlation      Energy =  -2.75429213945074
 DFT Exchange         Energy = -57.65410320098739
 One-Electron (alpha) Energy = -971.31125576143984
 One-Electron (beta)  Energy = -943.32537146559525
 Total Coulomb        Energy = 706.91435515761975
    7   -1038.2072471959      1.72e-05  
 Alpha HF Exchange    Energy =  -7.36294482794960
 Beta HF Exchange     Energy =  -7.17330441178920
 DFT Correlation      Energy =  -2.75429314364465
 DFT Exchange         Energy = -57.65475268029262
 One-Electron (alpha) Energy = -971.31985810574793
 One-Electron (beta)  Energy = -943.33083749133448
 Total Coulomb        Energy = 706.92924761541826
    8   -1038.2072495915      7.55e-06  
 Alpha HF Exchange    Energy =  -7.36291885413857
 Beta HF Exchange     Energy =  -7.17328915696661
 DFT Correlation      Energy =  -2.75427640413418
 DFT Exchange         Energy = -57.65457441022382
 One-Electron (alpha) Energy = -971.31740672738340
 One-Electron (beta)  Energy = -943.32818336426919
 Total Coulomb        Energy = 706.92390540231861
    9   -1038.2072500609      2.53e-06  
 Alpha HF Exchange    Energy =  -7.36291513392229
 Beta HF Exchange     Energy =  -7.17327825585347
 DFT Correlation      Energy =  -2.75427162525679
 DFT Exchange         Energy = -57.65451274562582
 One-Electron (alpha) Energy = -971.31676787114270
 One-Electron (beta)  Energy = -943.32719423205765
 Total Coulomb        Energy = 706.92219629705710
   10   -1038.2072501129      9.27e-07  Convergence criterion met
 ---------------------------------------
 SCF time:   CPU 24.38s  wall 2.00s 
<S^2> =          2.004252820
 Alpha HF Exchange    Energy =  -7.36291513392229
 Beta HF Exchange     Energy =  -7.17327825585347
 DFT Correlation      Energy =  -2.75427162525679
 DFT Exchange         Energy = -57.65451274562582
 One-Electron (alpha) Energy = -971.31676787114270
 One-Electron (beta)  Energy = -943.32719423205765
 Total Coulomb        Energy = 706.92219629705710
 Nuclear repulsion Energy = 244.45949345387575
 SCF   energy in the final basis set =    -1038.2072501129
 Total energy in the final basis set =    -1038.2072501129
 
 --------------------------------------------------------------
 
                    Orbital Energies (a.u.)
 --------------------------------------------------------------
 
 Alpha MOs
 -- Occupied --
*******-101.538 -10.252 -10.244 -10.218  -9.467  -9.454  -7.230
 -7.222  -7.220  -7.218  -7.208  -7.208  -0.869  -0.849  -0.748
 -0.680  -0.600  -0.464  -0.453  -0.451  -0.448  -0.436  -0.412
 -0.352  -0.313  -0.299  -0.299  -0.236  -0.207
 -- Virtual --
  0.024   0.038   0.103   0.119   0.141   0.144   0.159   0.182
  0.255   0.383   0.389   0.415   0.437   0.440   0.448   0.465
  0.478   0.508   0.527   0.541   0.550   0.569   0.596   0.621
  0.658   0.683   0.803   0.822   0.831   0.838   0.853   0.863
  0.874   0.882   0.894   0.899   0.912   0.914   0.944   0.949
  1.035   1.058   1.060   1.111   1.261   1.397   1.452   1.458
  1.547   1.702   1.754   1.824   1.882   1.975   2.008   2.025
  2.026   2.033   2.050   2.174   2.325   2.338   2.371   2.395
  2.448   2.510   2.576   2.603   2.656   2.794   2.796   2.878
  3.162   3.261   3.344   3.385   3.396   3.442   4.094   4.213
  4.302   4.366   4.400
 
 Beta MOs
 -- Occupied --
*******-101.538 -10.244 -10.239 -10.205  -9.465  -9.454  -7.228
 -7.219  -7.219  -7.218  -7.208  -7.208  -0.852  -0.849  -0.709
 -0.679  -0.568  -0.452  -0.451  -0.442  -0.428  -0.418  -0.412
 -0.330  -0.308  -0.299  -0.298
 -- Virtual --
 -0.083  -0.062   0.024   0.065   0.106   0.133   0.144   0.148
  0.168   0.193   0.273   0.391   0.398   0.419   0.440   0.448
  0.455   0.466   0.484   0.518   0.530   0.549   0.567   0.604
  0.627   0.658   0.680   0.697   0.816   0.823   0.839   0.845
  0.858   0.873   0.882   0.887   0.897   0.911   0.915   0.916
  0.950   0.965   1.047   1.071   1.077   1.123   1.262   1.444
  1.453   1.458   1.590   1.744   1.791   1.853   1.932   1.992
  2.008   2.025   2.027   2.039   2.103   2.189   2.326   2.338
  2.391   2.417   2.474   2.540   2.576   2.633   2.671   2.794
  2.796   2.890   3.162   3.273   3.358   3.385   3.396   3.458
  4.120   4.213   4.318   4.389   4.409
 --------------------------------------------------------------
 
          Ground-State Mulliken Net Atomic Charges

     Atom                 Charge (a.u.)    Spin (a.u.)
  --------------------------------------------------------
      1 Cl                   -0.104301       0.001743
      2 Cl                   -0.044416       0.137964
      3 C                    -0.197616       0.973773
      4 C                    -0.196509       0.901619
      5 C                    -0.403791       0.000454
      6 H                     0.133447      -0.008861
      7 H                     0.142094       0.008754
      8 H                     0.165654      -0.015399
      9 H                     0.179143      -0.000140
     10 H                     0.162762       0.000068
     11 H                     0.163535       0.000025
  --------------------------------------------------------
  Sum of atomic charges =    -0.000000
  Sum of spin   charges =     2.000000

 -----------------------------------------------------------------
                    Cartesian Multipole Moments
 -----------------------------------------------------------------
    Charge (ESU x 10^10)
                -0.0000
    Dipole Moment (Debye)
         X      -0.5079      Y      -0.2688      Z      -0.5754
       Tot       0.8132
    Quadrupole Moments (Debye-Ang)
        XX     -43.2660     XY       1.1706     YY     -51.5070
        XZ       1.0577     YZ       0.9314     ZZ     -36.9856
    Octopole Moments (Debye-Ang^2)
       XXX      71.9059    XXY      -9.9506    XYY      25.3732
       YYY     -23.4660    XXZ      -6.7659    XYZ      -2.3376
       YYZ      -6.7438    XZZ      14.9692    YZZ      -9.5121
       ZZZ     -18.8120
    Hexadecapole Moments (Debye-Ang^3)
      XXXX    -170.3604   XXXY      20.4146   XXYY    -165.8017
      XYYY      10.3520   YYYY    -856.1733   XXXZ       7.6728
      XXYZ     -50.3062   XYYZ       5.6268   YYYZ    -178.8629
      XXZZ    -113.8857   XYZZ       4.6975   YYZZ    -224.5975
      XZZZ      -9.5011   YZZZ    -133.3488   ZZZZ    -529.4285
 -----------------------------------------------------------------
 Calculating analytic gradient of the SCF energy
 Gradient of SCF Energy
            1           2           3           4           5           6
    1   0.0000444   0.0000280   0.0000213   0.0000307   0.0001281  -0.0000557
    2   0.0004390   0.0000094   0.0000373  -0.0004057  -0.0000281   0.0000301
    3   0.0002892   0.0000108  -0.0000386  -0.0002077   0.0000059  -0.0000194
            7           8           9          10          11
    1  -0.0000058  -0.0000295  -0.0001276  -0.0000273  -0.0000066
    2  -0.0000567  -0.0000440   0.0000186   0.0000230  -0.0000229
    3   0.0000099  -0.0000450  -0.0000347   0.0000143   0.0000153
 Max gradient component =       4.390E-04
 RMS gradient           =       1.281E-04
 Gradient time:  CPU 8.53 s  wall 0.77 s
 Geometry Optimization Parameters
   NAtoms,    NIC,     NZ,  NCons,   NDum,   NFix, NCnnct, MaxDiis
       11      56       0       1       0       0       0       0


** CONSTRAINED OPTIMIZATION IN DELOCALIZED INTERNAL COORDINATES **
   Searching for a Minimum

   Optimization Cycle:   1

                       Coordinates (Angstroms)
     ATOM                X               Y               Z
      1  Cl       -0.3291660000   -1.9131770000   -0.5599730000
      2  Cl       -0.5840590000    2.2571200000    0.2001650000
      3  C        -0.9198260000    0.5905450000    2.3917710000
      4  C         0.0154300000    1.1680780000    1.4592160000
      5  C        -0.9358580000   -1.0312250000   -2.0163410000
      6  H        -1.1314470000    1.0697400000    3.3456300000
      7  H        -1.5154720000   -0.2818660000    2.1241030000
      8  H         0.9776850000    0.7390860000    1.2034720000
      9  H        -1.0667300000    0.0163110000   -1.7493590000
     10  H        -1.8844810000   -1.4762660000   -2.3130430000
     11  H        -0.1981790000   -1.1383380000   -2.8102350000
   Point Group: c1    Number of degrees of freedom:    27


   Energy is  -1038.207250113

              Constraints and their Current Values
                                        Value     Constraint
   Distance(Angs):        1   4             3.700000     3.600000

 Attempting to Generate Delocalized Internal Coordinates

   Using Lagrange Multiplier Algorithm


 28 Hessian modes will be used to form the next step
  Hessian Eigenvalues:
    -0.994717    0.017310    0.045000    0.045000    0.045000    0.045112
     0.045332    0.048502    0.114682    0.116685    0.156209    0.160000
     0.160000    0.160000    0.160000    0.160000    0.160000    0.221650
     0.255364    0.286846    0.345169    0.348423    0.349254    0.349290
     0.350173    0.354979    0.393811    1.005311

 Minimum Search - Taking P-RFO Step
 Searching for Lamda that Maximizes Along the Constraint modes Only
 Value Taken    Lamda =   0.01782911


 ********************************************
 ** ERROR IN DETERMINING Lamda IN CONFormD **
 ********************************************


 ** Scaling Hessian by  2.059975 **


 28 Hessian modes will be used to form the next step
  Hessian Eigenvalues:
    -0.989147    0.035658    0.092699    0.092699    0.092699    0.092929
     0.093384    0.099913    0.236242    0.240368    0.321786    0.329596
     0.329596    0.329596    0.329596    0.329596    0.329596    0.456593
     0.526043    0.590896    0.711039    0.717742    0.719454    0.719528
     0.721347    0.731249    0.811242    1.010972

 Minimum Search - Taking P-RFO Step
 Searching for Lamda that Maximizes Along the Constraint modes Only
 Value Taken    Lamda =   0.01802378
 Searching for Lamda that Minimizes Along All other modes
 Value Taken    Lamda =  -0.01707933
 Step Taken.  Stepsize is  0.185716

                             Maximum     Tolerance    Cnvgd?
         Gradient            0.188973       0.000300      NO
         Displacement        0.185711       0.001200      NO
         Energy change     *********       0.000001      NO


 New Cartesian Coordinates Obtained by Inverse Iteration

 Displacement from previous Coordinates is:  0.220051
 ----------------------------------------------------------------
             Standard Nuclear Orientation (Angstroms)
    I     Atom           X                Y                Z
 ----------------------------------------------------------------
    1      Cl     -0.3277789740    -1.8540325170    -0.5106101726
    2      Cl     -0.5786438749     2.2668248488     0.1976772238
    3      C      -0.9217770645     0.5729171028     2.3675074093
    4      C       0.0152599573     1.1546740868     1.4393748047
    5      C      -0.9351805437    -1.0208104157    -1.9953081213
    6      H      -1.1250618987     1.0406301858     3.3288445494
    7      H      -1.5266308316    -0.2900098694     2.0900683928
    8      H       0.9726443319     0.7205634741     1.1741596641
    9      H      -1.0720437845     0.0282424767    -1.7475527596
   10      H      -1.8796479176    -1.4789306112    -2.2852610988
   11      H      -0.1932423997    -1.1400607617    -2.7834938918
 ----------------------------------------------------------------
 Nuclear Repulsion Energy =   246.1541877592 hartrees
 There are       30 alpha and       28 beta electrons

                       Distance Matrix (Angstroms)
             Cl(  1)   Cl(  2)   C (  3)   C (  4)   C (  5)   H (  6)
   Cl(  2)  4.188803
   C (  3)  3.811362  2.774027
   C (  4)  3.601726  1.769580  1.441496
   C (  5)  1.807629  3.967978  4.644815  4.175298
   H (  6)  4.874028  3.406807  1.088232  2.209850  5.712460
   H (  7)  3.262965  3.319221  1.089708  2.210869  4.192157  1.861834
   H (  8)  3.340373  2.398111  2.243816  1.084148  4.088729  3.024150
   H (  9)  2.372112  3.006429  4.153670  3.550716  1.086566  5.176635
   H ( 10)  2.387129  4.678491  5.174539  4.939581  1.089020  6.199659
   H ( 11)  2.386180  4.543433  5.477031  4.810603  1.089004  6.556248
             H (  7)   H (  8)   H (  9)   H ( 10)
   H (  8)  2.847196
   H (  9)  3.877534  3.632693
   H ( 10)  4.547710  4.994090  1.792464
   H ( 11)  5.123682  4.525951  1.791758  1.790819
 
 Applying Cartesian multipole field
    Component          Value
    ---------          -----
     (2,0,0)        1.00000E-11
     (0,2,0)        2.00000E-11
     (0,0,2)       -3.00000E-11
 Nucleus-field energy     =     0.0000000014 hartrees
 Requested basis set is 6-31G(d,p)
 There are 40 shells and 113 basis functions
 A cutoff of  1.0D-14 yielded    720 shell pairs
 There are      6006 function pairs
 Smallest overlap matrix eigenvalue = 9.08E-03
 Guess from superposition of atomic densities
 Warning:  Energy on first SCF cycle will be non-variational
 SAD guess density has 58.000000 electrons

 -----------------------------------------------------------------------
  General SCF calculation program by
  Eric Jon Sundstrom, Paul Horn, Yuezhi Mao, Dmitri Zuev, Alec White,
  David Stuck, Shaama M.S., Shane Yost, Joonho Lee, David Small,
  Daniel Levine, Susi Lehtola, Hugh Burton, Evgeny Epifanovsky
 -----------------------------------------------------------------------
 Exchange:     0.2000 Hartree-Fock + 0.0800 Slater + 0.7200 B88
 Correlation:  0.1900 VWN1RPA + 0.8100 LYP
 Using SG-1 standard quadrature grid
 using 12 threads for integral computing
 -------------------------------------------------------
 OpenMP Integral computing Module                
 Release: version 1.0, May 2013, Q-Chem Inc. Pittsburgh 
 -------------------------------------------------------
 -------------------------------------------------------
 OpenMP BLAS3 based DFT computing Module                
 Release: version 1.0, May 2013, Q-Chem Inc. Pittsburgh 
 -------------------------------------------------------
 A unrestricted SCF calculation will be
 performed using DIIS
 SCF converges when DIIS error is below 1.0e-06
 Alpha HF Exchange    Energy =  -7.25894840036391
 Beta HF Exchange     Energy =  -7.25894840036391
 DFT Correlation      Energy =  -2.75150448802162
 DFT Exchange         Energy = -57.31302638142827
 One-Electron (alpha) Energy = -957.26266633580326
 One-Electron (beta)  Energy = -957.26266633580326
 Total Coulomb        Energy = 704.38405995727601
 ---------------------------------------
  Cycle       Energy         DIIS error
 ---------------------------------------
    1   -1038.5695126240      2.64e-02  
 Alpha HF Exchange    Energy =  -7.38454039590727
 Beta HF Exchange     Energy =  -7.18955554906062
 DFT Correlation      Energy =  -2.76647992268860
 DFT Exchange         Energy = -57.82942496315158
 One-Electron (alpha) Energy = -974.30238372724023
 One-Electron (beta)  Energy = -946.11326937544209
 Total Coulomb        Energy = 711.27011180047430
    2   -1038.1613543725      2.43e-03  
 Alpha HF Exchange    Energy =  -7.34341266962771
 Beta HF Exchange     Energy =  -7.16067408322874
 DFT Correlation      Energy =  -2.74715826771536
 DFT Exchange         Energy = -57.51853806029291
 One-Electron (alpha) Energy = -972.10743158006835
 One-Electron (beta)  Energy = -944.20757827231751
 Total Coulomb        Energy = 706.76539250480414
    3   -1038.1652126679      2.44e-03  
 Alpha HF Exchange    Energy =  -7.36076444400215
 Beta HF Exchange     Energy =  -7.17054229348954
 DFT Correlation      Energy =  -2.75500848621225
 DFT Exchange         Energy = -57.63834763168102
 One-Electron (alpha) Energy = -972.95029328783505
 One-Electron (beta)  Energy = -944.82285659501815
 Total Coulomb        Energy = 708.33793109662656
    4   -1038.2056938811      4.19e-04  
 Alpha HF Exchange    Energy =  -7.36372791376462
 Beta HF Exchange     Energy =  -7.17433598519807
 DFT Correlation      Energy =  -2.75505530765861
 DFT Exchange         Energy = -57.66212466740699
 One-Electron (alpha) Energy = -973.14726061480133
 One-Electron (beta)  Energy = -945.03446862660087
 Total Coulomb        Energy = 708.77590846587009
    5   -1038.2068768890      1.61e-04  
 Alpha HF Exchange    Energy =  -7.36301043853649
 Beta HF Exchange     Energy =  -7.17330152451441
 DFT Correlation      Energy =  -2.75473382534283
 DFT Exchange         Energy = -57.65514544160943
 One-Electron (alpha) Energy = -973.08538222171467
 One-Electron (beta)  Energy = -944.95535751784416
 Total Coulomb        Energy = 708.62568106050651
    6   -1038.2070621485      4.99e-05  
 Alpha HF Exchange    Energy =  -7.36300002902038
 Beta HF Exchange     Energy =  -7.17335759078731
 DFT Correlation      Energy =  -2.75465973101540
 DFT Exchange         Energy = -57.65503945642872
 One-Electron (alpha) Energy = -973.08123307703579
 One-Electron (beta)  Energy = -944.95211939782030
 Total Coulomb        Energy = 708.61814067202124
    7   -1038.2070808495      1.72e-05  
 Alpha HF Exchange    Energy =  -7.36311218319573
 Beta HF Exchange     Energy =  -7.17342168427950
 DFT Correlation      Energy =  -2.75466057400392
 DFT Exchange         Energy = -57.65568944948419
 One-Electron (alpha) Energy = -973.08992063567212
 One-Electron (beta)  Energy = -944.95765343211940
 Total Coulomb        Energy = 708.63318694368525
    8   -1038.2070832545      7.56e-06  
 Alpha HF Exchange    Energy =  -7.36308644539365
 Beta HF Exchange     Energy =  -7.17340667276970
 DFT Correlation      Energy =  -2.75464396426808
 DFT Exchange         Energy = -57.65551320990050
 One-Electron (alpha) Energy = -973.08747155829019
 One-Electron (beta)  Energy = -944.95497880775747
 Total Coulomb        Energy = 708.62782917281356
    9   -1038.2070837250      2.53e-06  
 Alpha HF Exchange    Energy =  -7.36308263970315
 Beta HF Exchange     Energy =  -7.17339573238252
 DFT Correlation      Energy =  -2.75463915001521
 DFT Exchange         Energy = -57.65545102473004
 One-Electron (alpha) Energy = -973.08683358359542
 One-Electron (beta)  Energy = -944.95398886496366
 Total Coulomb        Energy = 708.62611945758670
   10   -1038.2070837773      9.26e-07  Convergence criterion met
 ---------------------------------------
 SCF time:   CPU 25.35s  wall 2.00s 
<S^2> =          2.004257041
 Alpha HF Exchange    Energy =  -7.36308263970315
 Beta HF Exchange     Energy =  -7.17339573238252
 DFT Correlation      Energy =  -2.75463915001521
 DFT Exchange         Energy = -57.65545102473004
 One-Electron (alpha) Energy = -973.08683358359542
 One-Electron (beta)  Energy = -944.95398886496366
 Total Coulomb        Energy = 708.62611945758670
 Nuclear repulsion Energy = 246.15418776054076
 SCF   energy in the final basis set =    -1038.2070837773
 Total energy in the final basis set =    -1038.2070837773
 
 --------------------------------------------------------------
 
                    Orbital Energies (a.u.)
 --------------------------------------------------------------
 
 Alpha MOs
 -- Occupied --
*******-101.538 -10.252 -10.244 -10.217  -9.466  -9.454  -7.230
 -7.222  -7.220  -7.218  -7.208  -7.208  -0.868  -0.850  -0.747
 -0.680  -0.600  -0.464  -0.453  -0.451  -0.448  -0.435  -0.412
 -0.352  -0.312  -0.300  -0.299  -0.235  -0.207
 -- Virtual --
  0.023   0.039   0.103   0.120   0.142   0.144   0.160   0.182
  0.255   0.383   0.389   0.415   0.437   0.441   0.448   0.466
  0.478   0.509   0.528   0.541   0.551   0.569   0.597   0.624
  0.665   0.687   0.805   0.821   0.831   0.839   0.854   0.865
  0.874   0.883   0.896   0.901   0.910   0.915   0.946   0.948
  1.038   1.058   1.062   1.112   1.263   1.398   1.452   1.460
  1.548   1.703   1.755   1.825   1.883   1.976   2.008   2.023
  2.027   2.034   2.052   2.175   2.327   2.340   2.372   2.396
  2.449   2.511   2.574   2.604   2.656   2.796   2.796   2.878
  3.164   3.262   3.345   3.385   3.399   3.443   4.096   4.213
  4.303   4.367   4.402
 
 Beta MOs
 -- Occupied --
*******-101.538 -10.244 -10.238 -10.205  -9.465  -9.454  -7.228
 -7.219  -7.219  -7.218  -7.208  -7.208  -0.852  -0.849  -0.708
 -0.680  -0.568  -0.453  -0.451  -0.442  -0.427  -0.418  -0.412
 -0.330  -0.307  -0.299  -0.298
 -- Virtual --
 -0.082  -0.061   0.023   0.065   0.105   0.134   0.144   0.149
  0.169   0.194   0.274   0.391   0.398   0.419   0.439   0.448
  0.456   0.467   0.484   0.519   0.532   0.549   0.567   0.606
  0.628   0.659   0.688   0.701   0.819   0.822   0.838   0.846
  0.860   0.873   0.881   0.887   0.900   0.910   0.916   0.918
  0.950   0.967   1.048   1.073   1.080   1.124   1.264   1.445
  1.452   1.461   1.591   1.745   1.791   1.854   1.933   1.993
  2.008   2.023   2.028   2.039   2.105   2.190   2.327   2.340
  2.392   2.418   2.475   2.541   2.574   2.634   2.672   2.796
  2.796   2.890   3.164   3.274   3.359   3.385   3.399   3.458
  4.121   4.213   4.319   4.389   4.412
 --------------------------------------------------------------
 
          Ground-State Mulliken Net Atomic Charges

     Atom                 Charge (a.u.)    Spin (a.u.)
  --------------------------------------------------------
      1 Cl                   -0.104418       0.002251
      2 Cl                   -0.045446       0.137593
      3 C                    -0.197266       0.973558
      4 C                    -0.195940       0.901673
      5 C                    -0.403649       0.000442
      6 H                     0.132888      -0.009017
      7 H                     0.141795       0.009035
      8 H                     0.165648      -0.015454
      9 H                     0.179908      -0.000200
     10 H                     0.162848       0.000086
     11 H                     0.163632       0.000031
  --------------------------------------------------------
  Sum of atomic charges =    -0.000000
  Sum of spin   charges =     2.000000

 -----------------------------------------------------------------
                    Cartesian Multipole Moments
 -----------------------------------------------------------------
    Charge (ESU x 10^10)
                -0.0000
    Dipole Moment (Debye)
         X      -0.5146      Y      -0.3541      Z      -0.6391
       Tot       0.8937
    Quadrupole Moments (Debye-Ang)
        XX     -43.2670     XY       1.2053     YY     -51.3788
        XZ       1.0675     YZ       1.0133     ZZ     -37.0846
    Octopole Moments (Debye-Ang^2)
       XXX      71.6467    XXY     -10.7775    XYY      25.1657
       YYY     -26.2029    XXZ      -7.2797    XYZ      -2.3220
       YYZ      -7.7342    XZZ      15.1251    YZZ     -10.4983
       ZZZ     -20.0889
    Hexadecapole Moments (Debye-Ang^3)
      XXXX    -169.9010   XXXY      20.9579   XXYY    -162.9260
      XYYY      11.3404   YYYY    -838.7382   XXXZ       8.2551
      XXYZ     -47.8633   XYYZ       6.0838   YYYZ    -170.1298
      XXZZ    -111.8155   XYZZ       4.9280   YYZZ    -219.3999
      XZZZ      -8.5705   YZZZ    -126.5725   ZZZZ    -516.3145
 -----------------------------------------------------------------
 Calculating analytic gradient of the SCF energy
 Gradient of SCF Energy
            1           2           3           4           5           6
    1  -0.0000131   0.0000900   0.0000766  -0.0001251  -0.0002570  -0.0000758
    2   0.0016217  -0.0000135  -0.0000178  -0.0005258   0.0006340  -0.0000063
    3   0.0007954   0.0000944  -0.0001054  -0.0004685  -0.0005064  -0.0000227
            7           8           9          10          11
    1  -0.0000625   0.0000769   0.0004374  -0.0000548  -0.0000926
    2  -0.0001251  -0.0001146  -0.0016631   0.0001347   0.0000757
    3  -0.0000030  -0.0001091   0.0006305  -0.0001763  -0.0001288
 Max gradient component =       1.663E-03
 RMS gradient           =       4.932E-04
 Gradient time:  CPU 8.52 s  wall 0.76 s
 Geometry Optimization Parameters
   NAtoms,    NIC,     NZ,  NCons,   NDum,   NFix, NCnnct, MaxDiis
       11      56       0       1       0       0       0       0

 Cartesian Hessian Update
 Hessian Updated using BFGS Update


** CONSTRAINED OPTIMIZATION IN DELOCALIZED INTERNAL COORDINATES **
   Searching for a Minimum

   Optimization Cycle:   2

                       Coordinates (Angstroms)
     ATOM                X               Y               Z
      1  Cl       -0.3277789740   -1.8540325170   -0.5106101726
      2  Cl       -0.5786438749    2.2668248488    0.1976772238
      3  C        -0.9217770645    0.5729171028    2.3675074093
      4  C         0.0152599573    1.1546740868    1.4393748047
      5  C        -0.9351805437   -1.0208104157   -1.9953081213
      6  H        -1.1250618987    1.0406301858    3.3288445494
      7  H        -1.5266308316   -0.2900098694    2.0900683928
      8  H         0.9726443319    0.7205634741    1.1741596641
      9  H        -1.0720437845    0.0282424767   -1.7475527596
     10  H        -1.8796479176   -1.4789306112   -2.2852610988
     11  H        -0.1932423997   -1.1400607617   -2.7834938918
   Point Group: c1    Number of degrees of freedom:    27


   Energy is  -1038.207083777

              Constraints and their Current Values
                                        Value     Constraint
   Distance(Angs):        1   4             3.601726     3.600000
 Hessian Updated using BFGS Update

   Using Lagrange Multiplier Algorithm


 23 Hessian modes will be used to form the next step
  Hessian Eigenvalues:
    -0.998037    0.036019    0.092686    0.092922    0.093383    0.093583
     0.100199    0.236445    0.240372    0.321788    0.329585    0.352629
     0.456625    0.526380    0.591104    0.717674    0.719442    0.719513
     0.721340    0.723867    0.731640    0.811247    1.002187

 Minimum Search - Taking P-RFO Step
 Searching for Lamda that Maximizes Along the Constraint modes Only
 Value Taken    Lamda =   0.00000000
 Searching for Lamda that Minimizes Along All other modes
 Value Taken    Lamda =  -0.00003570
 Step Taken.  Stepsize is  0.010167

                             Maximum     Tolerance    Cnvgd?
         Gradient            0.003262       0.000300      NO
         Displacement        0.004612       0.001200      NO
         Energy change      0.000166       0.000001      NO


 New Cartesian Coordinates Obtained by Inverse Iteration

 Displacement from previous Coordinates is:  0.021081
 ----------------------------------------------------------------
             Standard Nuclear Orientation (Angstroms)
    I     Atom           X                Y                Z
 ----------------------------------------------------------------
    1      Cl     -0.3235086643    -1.8557107629    -0.5118952138
    2      Cl     -0.5790357840     2.2659874509     0.1965240981
    3      C      -0.9226529368     0.5731962389     2.3674688747
    4      C       0.0140589914     1.1520952786     1.4372459665
    5      C      -0.9342863627    -1.0193145159    -1.9936635838
    6      H      -1.1226660100     1.0419681202     3.3289834189
    7      H      -1.5302152072    -0.2882309199     2.0916716529
    8      H       0.9703368668     0.7163366197     1.1711102518
    9      H      -1.0726209274     0.0306565255    -1.7469314223
   10      H      -1.8783183585    -1.4790472194    -2.2823878812
   11      H      -0.1931946074    -1.1379288157    -2.7827201618
 ----------------------------------------------------------------
 Nuclear Repulsion Energy =   246.1570393842 hartrees
 There are       30 alpha and       28 beta electrons

                       Distance Matrix (Angstroms)
             Cl(  1)   Cl(  2)   C (  3)   C (  4)   C (  5)   H (  6)
   Cl(  2)  4.189934
   C (  3)  3.814355  2.774278
   C (  4)  3.600000  1.769720  1.441481
   C (  5)  1.807829  3.964383  4.642812  4.169595
   H (  6)  4.877248  3.406767  1.088238  2.209738  5.710949
   H (  7)  3.269816  3.319692  1.089611  2.210791  4.192801  1.861845
   H (  8)  3.334962  2.398289  2.243919  1.084058  4.081160  3.023758
   H (  9)  2.375892  3.002890  4.152726  3.546475  1.087406  5.175922
   H ( 10)  2.386201  4.675299  5.171670  4.933526  1.088996  6.197904
   H ( 11)  2.385129  4.539980  5.475811  4.805755  1.088989  6.555058
             H (  7)   H (  8)   H (  9)   H ( 10)
   H (  8)  2.847692
   H (  9)  3.878912  3.627506
   H ( 10)  4.546605  4.986100  1.793061
   H ( 11)  5.125359  4.519389  1.792161  1.790625
 
 Applying Cartesian multipole field
    Component          Value
    ---------          -----
     (2,0,0)        1.00000E-11
     (0,2,0)        2.00000E-11
     (0,0,2)       -3.00000E-11
 Nucleus-field energy     =     0.0000000014 hartrees
 Requested basis set is 6-31G(d,p)
 There are 40 shells and 113 basis functions
 A cutoff of  1.0D-14 yielded    720 shell pairs
 There are      6006 function pairs
 Smallest overlap matrix eigenvalue = 9.08E-03
 Guess from superposition of atomic densities
 Warning:  Energy on first SCF cycle will be non-variational
 SAD guess density has 58.000000 electrons

 -----------------------------------------------------------------------
  General SCF calculation program by
  Eric Jon Sundstrom, Paul Horn, Yuezhi Mao, Dmitri Zuev, Alec White,
  David Stuck, Shaama M.S., Shane Yost, Joonho Lee, David Small,
  Daniel Levine, Susi Lehtola, Hugh Burton, Evgeny Epifanovsky
 -----------------------------------------------------------------------
 Exchange:     0.2000 Hartree-Fock + 0.0800 Slater + 0.7200 B88
 Correlation:  0.1900 VWN1RPA + 0.8100 LYP
 Using SG-1 standard quadrature grid
 using 12 threads for integral computing
 -------------------------------------------------------
 OpenMP Integral computing Module                
 Release: version 1.0, May 2013, Q-Chem Inc. Pittsburgh 
 -------------------------------------------------------
 -------------------------------------------------------
 OpenMP BLAS3 based DFT computing Module                
 Release: version 1.0, May 2013, Q-Chem Inc. Pittsburgh 
 -------------------------------------------------------
 A unrestricted SCF calculation will be
 performed using DIIS
 SCF converges when DIIS error is below 1.0e-06
 Alpha HF Exchange    Energy =  -7.25887742216095
 Beta HF Exchange     Energy =  -7.25887742216095
 DFT Correlation      Energy =  -2.75149340945653
 DFT Exchange         Energy = -57.31287787895626
 One-Electron (alpha) Energy = -957.26594243760735
 One-Electron (beta)  Energy = -957.26594243760735
 Total Coulomb        Energy = 704.38803443048334
 ---------------------------------------
  Cycle       Energy         DIIS error
 ---------------------------------------
    1   -1038.5689371919      2.64e-02  
 Alpha HF Exchange    Energy =  -7.38449495578727
 Beta HF Exchange     Energy =  -7.18951033691165
 DFT Correlation      Energy =  -2.76646338661675
 DFT Exchange         Energy = -57.82909932209614
 One-Electron (alpha) Energy = -974.30554839975719
 One-Electron (beta)  Energy = -946.11525897386514
 Total Coulomb        Energy = 711.27194210503171
    2   -1038.1613938844      2.43e-03  
 Alpha HF Exchange    Energy =  -7.34338029993009
 Beta HF Exchange     Energy =  -7.16064176086583
 DFT Correlation      Energy =  -2.74714843227464
 DFT Exchange         Energy = -57.51831925753933
 One-Electron (alpha) Energy = -972.11116075074756
 One-Electron (beta)  Energy = -944.20974839627775
 Total Coulomb        Energy = 706.76810992198853
    3   -1038.1652495901      2.44e-03  
 Alpha HF Exchange    Energy =  -7.36072749435233
 Beta HF Exchange     Energy =  -7.17050503264091
 DFT Correlation      Energy =  -2.75499627608460
 DFT Exchange         Energy = -57.63808950045974
 One-Electron (alpha) Energy = -972.95406542870489
 One-Electron (beta)  Energy = -944.82519970706471
 Total Coulomb        Energy = 708.34084250633828
    4   -1038.2057015474      4.19e-04  
 Alpha HF Exchange    Energy =  -7.36369034674531
 Beta HF Exchange     Energy =  -7.17429833160944
 DFT Correlation      Energy =  -2.75504278412722
 DFT Exchange         Energy = -57.66186151016597
 One-Electron (alpha) Energy = -973.15084890773801
 One-Electron (beta)  Energy = -945.03657561706837
 Total Coulomb        Energy = 708.77839301285621
    5   -1038.2068850990      1.61e-04  
 Alpha HF Exchange    Energy =  -7.36297279563363
 Beta HF Exchange     Energy =  -7.17326409469354
 DFT Correlation      Energy =  -2.75472127767182
 DFT Exchange         Energy = -57.65488287998201
 One-Electron (alpha) Energy = -973.08901886986246
 One-Electron (beta)  Energy = -944.95751469996640
 Total Coulomb        Energy = 708.62826482842786
    6   -1038.2070704038      4.99e-05  
 Alpha HF Exchange    Energy =  -7.36296249244490
 Beta HF Exchange     Energy =  -7.17332004129730
 DFT Correlation      Energy =  -2.75464724098981
 DFT Exchange         Energy = -57.65477689451966
 One-Electron (alpha) Energy = -973.08487552878296
 One-Electron (beta)  Energy = -944.95427074588542
 Total Coulomb        Energy = 708.62072447300659
    7   -1038.2070890853      1.72e-05  
 Alpha HF Exchange    Energy =  -7.36307458908053
 Beta HF Exchange     Energy =  -7.17338415007654
 DFT Correlation      Energy =  -2.75464806194339
 DFT Exchange         Energy = -57.65542669931305
 One-Electron (alpha) Energy = -973.09355929624223
 One-Electron (beta)  Energy = -944.95980074756528
 Total Coulomb        Energy = 708.63576267168116
    8   -1038.2070914870      7.56e-06  
 Alpha HF Exchange    Energy =  -7.36304881980587
 Beta HF Exchange     Energy =  -7.17336911101025
 DFT Correlation      Energy =  -2.75463145815317
 DFT Exchange         Energy = -57.65525026003807
 One-Electron (alpha) Energy = -973.09110874554437
 One-Electron (beta)  Energy = -944.95712484488820
 Total Coulomb        Energy = 708.63040189697199
    9   -1038.2070919569      2.53e-06  
 Alpha HF Exchange    Energy =  -7.36304503216679
 Beta HF Exchange     Energy =  -7.17335818636196
 DFT Correlation      Energy =  -2.75462664886051
 DFT Exchange         Energy = -57.65518820592025
 One-Electron (alpha) Energy = -973.09047209291271
 One-Electron (beta)  Energy = -944.95613630354637
 Total Coulomb        Energy = 708.62869507498613
   10   -1038.2070920092      9.26e-07  Convergence criterion met
 ---------------------------------------
 SCF time:   CPU 26.25s  wall 2.00s 
<S^2> =          2.004259030
 Alpha HF Exchange    Energy =  -7.36304503216679
 Beta HF Exchange     Energy =  -7.17335818636196
 DFT Correlation      Energy =  -2.75462664886051
 DFT Exchange         Energy = -57.65518820592025
 One-Electron (alpha) Energy = -973.09047209291271
 One-Electron (beta)  Energy = -944.95613630354637
 Total Coulomb        Energy = 708.62869507498613
 Nuclear repulsion Energy = 246.15703938556959
 SCF   energy in the final basis set =    -1038.2070920092
 Total energy in the final basis set =    -1038.2070920092
 
 --------------------------------------------------------------
 
                    Orbital Energies (a.u.)
 --------------------------------------------------------------
 
 Alpha MOs
 -- Occupied --
*******-101.538 -10.252 -10.245 -10.217  -9.466  -9.454  -7.230
 -7.222  -7.220  -7.218  -7.208  -7.208  -0.868  -0.849  -0.747
 -0.680  -0.600  -0.464  -0.453  -0.451  -0.448  -0.435  -0.412
 -0.352  -0.312  -0.300  -0.299  -0.235  -0.207
 -- Virtual --
  0.023   0.039   0.103   0.120   0.142   0.144   0.160   0.182
  0.255   0.383   0.389   0.415   0.437   0.440   0.448   0.466
  0.478   0.509   0.528   0.541   0.551   0.569   0.597   0.624
  0.665   0.687   0.805   0.821   0.831   0.839   0.854   0.865
  0.874   0.882   0.896   0.902   0.910   0.915   0.945   0.948
  1.038   1.058   1.062   1.112   1.263   1.398   1.452   1.460
  1.548   1.704   1.754   1.825   1.883   1.976   2.008   2.024
  2.027   2.034   2.052   2.175   2.327   2.339   2.372   2.396
  2.449   2.511   2.574   2.604   2.656   2.795   2.796   2.878
  3.164   3.262   3.345   3.385   3.397   3.443   4.096   4.213
  4.303   4.367   4.402
 
 Beta MOs
 -- Occupied --
*******-101.538 -10.245 -10.238 -10.205  -9.465  -9.454  -7.228
 -7.219  -7.219  -7.218  -7.208  -7.208  -0.852  -0.849  -0.708
 -0.680  -0.568  -0.452  -0.451  -0.442  -0.427  -0.418  -0.412
 -0.330  -0.307  -0.299  -0.299
 -- Virtual --
 -0.082  -0.061   0.023   0.065   0.105   0.134   0.144   0.149
  0.169   0.194   0.274   0.391   0.398   0.419   0.439   0.448
  0.456   0.467   0.484   0.519   0.531   0.549   0.568   0.606
  0.628   0.659   0.688   0.700   0.818   0.822   0.838   0.846
  0.860   0.873   0.881   0.887   0.900   0.910   0.916   0.918
  0.950   0.966   1.047   1.073   1.080   1.124   1.264   1.445
  1.452   1.460   1.592   1.746   1.791   1.854   1.933   1.993
  2.008   2.024   2.027   2.039   2.105   2.190   2.327   2.340
  2.392   2.418   2.475   2.541   2.574   2.634   2.672   2.795
  2.796   2.890   3.164   3.274   3.359   3.385   3.397   3.458
  4.121   4.213   4.319   4.388   4.412
 --------------------------------------------------------------
 
          Ground-State Mulliken Net Atomic Charges

     Atom                 Charge (a.u.)    Spin (a.u.)
  --------------------------------------------------------
      1 Cl                   -0.104397       0.002288
      2 Cl                   -0.045524       0.137512
      3 C                    -0.197184       0.973510
      4 C                    -0.195977       0.901825
      5 C                    -0.403609       0.000438
      6 H                     0.132910      -0.008963
      7 H                     0.141735       0.008991
      8 H                     0.165758      -0.015514
      9 H                     0.179730      -0.000204
     10 H                     0.162883       0.000085
     11 H                     0.163674       0.000032
  --------------------------------------------------------
  Sum of atomic charges =    -0.000000
  Sum of spin   charges =     2.000000

 -----------------------------------------------------------------
                    Cartesian Multipole Moments
 -----------------------------------------------------------------
    Charge (ESU x 10^10)
                 0.0000
    Dipole Moment (Debye)
         X      -0.5188      Y      -0.3516      Z      -0.6347
       Tot       0.8920
    Quadrupole Moments (Debye-Ang)
        XX     -43.2676     XY       1.2076     YY     -51.3770
        XZ       1.0646     YZ       1.0069     ZZ     -37.0937
    Octopole Moments (Debye-Ang^2)
       XXX      71.5160    XXY     -10.7575    XYY      25.1181
       YYY     -26.0867    XXZ      -7.2376    XYZ      -2.3207
       YYZ      -7.6733    XZZ      15.1042    YZZ     -10.4182
       ZZZ     -19.9391
    Hexadecapole Moments (Debye-Ang^3)
      XXXX    -169.7237   XXXY      21.3555   XXYY    -162.8705
      XYYY      11.7405   YYYY    -838.4830   XXXZ       8.3949
      XXYZ     -47.8493   XYYZ       6.1622   YYYZ    -169.9695
      XXZZ    -111.7769   XYZZ       5.0430   YYZZ    -219.3329
      XZZZ      -8.3880   YZZZ    -126.4249   ZZZZ    -515.9276
 -----------------------------------------------------------------
 Calculating analytic gradient of the SCF energy
 Gradient of SCF Energy
            1           2           3           4           5           6
    1   0.0000539   0.0000739   0.0000219  -0.0000843  -0.0002332  -0.0000602
    2   0.0013376   0.0000210  -0.0000848  -0.0005988   0.0004407   0.0000085
    3   0.0007701   0.0000485  -0.0000872  -0.0004693  -0.0004249  -0.0000258
            7           8           9          10          11
    1  -0.0000240   0.0000432   0.0002814  -0.0000202  -0.0000526
    2  -0.0000675  -0.0000941  -0.0010480   0.0000668   0.0000186
    3   0.0000015  -0.0000903   0.0004525  -0.0001159  -0.0000592
 Max gradient component =       1.338E-03
 RMS gradient           =       3.837E-04
 Gradient time:  CPU 8.50 s  wall 0.75 s
 Geometry Optimization Parameters
   NAtoms,    NIC,     NZ,  NCons,   NDum,   NFix, NCnnct, MaxDiis
       11      56       0       1       0       0       0       0

 Cartesian Hessian Update
 Hessian Updated using BFGS Update


** CONSTRAINED OPTIMIZATION IN DELOCALIZED INTERNAL COORDINATES **
   Searching for a Minimum

   Optimization Cycle:   3

                       Coordinates (Angstroms)
     ATOM                X               Y               Z
      1  Cl       -0.3235086643   -1.8557107629   -0.5118952138
      2  Cl       -0.5790357840    2.2659874509    0.1965240981
      3  C        -0.9226529368    0.5731962389    2.3674688747
      4  C         0.0140589914    1.1520952786    1.4372459665
      5  C        -0.9342863627   -1.0193145159   -1.9936635838
      6  H        -1.1226660100    1.0419681202    3.3289834189
      7  H        -1.5302152072   -0.2882309199    2.0916716529
      8  H         0.9703368668    0.7163366197    1.1711102518
      9  H        -1.0726209274    0.0306565255   -1.7469314223
     10  H        -1.8783183585   -1.4790472194   -2.2823878812
     11  H        -0.1931946074   -1.1379288157   -2.7827201618
   Point Group: c1    Number of degrees of freedom:    27


   Energy is  -1038.207092009

              Constraints and their Current Values
                                        Value     Constraint
   Distance(Angs):        1   4             3.600000     3.600000
 Hessian Updated using BFGS Update

 23 Hessian modes will be used to form the next step
  Hessian Eigenvalues:
     0.026944    0.069094    0.092720    0.092866    0.092972    0.093396
     0.098015    0.223120    0.240589    0.247682    0.321875    0.329634
     0.333450    0.456625    0.527340    0.590128    0.678770    0.717776
     0.719454    0.719563    0.721350    0.731081    0.811304

 Minimum Search - Taking Simple RFO Step
 Searching for Lamda that Minimizes Along All modes
 Value Taken    Lamda =  -0.00002080
 Step Taken.  Stepsize is  0.021610

                             Maximum     Tolerance    Cnvgd?
         Gradient           0.000635      0.000300      NO
         Displacement       0.010021      0.001200      NO
         Energy change     -0.000008      0.000001      NO


 New Cartesian Coordinates Obtained by Inverse Iteration

 Displacement from previous Coordinates is:  0.050763
 ----------------------------------------------------------------
             Standard Nuclear Orientation (Angstroms)
    I     Atom           X                Y                Z
 ----------------------------------------------------------------
    1      Cl     -0.3141181446    -1.8612251399    -0.5179769946
    2      Cl     -0.5809777167     2.2622151840     0.1939100570
    3      C      -0.9244296446     0.5754983391     2.3702780903
    4      C       0.0108806427     1.1462856622     1.4337542910
    5      C      -0.9319681534    -1.0169069267    -1.9925483361
    6      H      -1.1163889838     1.0482193837     3.3315214444
    7      H      -1.5382157867    -0.2831327249     2.1001814944
    8      H       0.9648272841     0.7068523349     1.1660728965
    9      H      -1.0735642498     0.0345294728    -1.7468158880
   10      H      -1.8752467475    -1.4794549235    -2.2790914283
   11      H      -0.1929014998    -1.1328726617    -2.7838796266
 ----------------------------------------------------------------
 Nuclear Repulsion Energy =   246.0944211819 hartrees
 There are       30 alpha and       28 beta electrons

                       Distance Matrix (Angstroms)
             Cl(  1)   Cl(  2)   C (  3)   C (  4)   C (  5)   H (  6)
   Cl(  2)  4.192941
   C (  3)  3.827809  2.774806
   C (  4)  3.600000  1.769974  1.441416
   C (  5)  1.808030  3.956822  4.644358  4.160278
   H (  6)  4.891538  3.406619  1.088257  2.209496  5.713535
   H (  7)  3.292954  3.320990  1.089465  2.210670  4.201952  1.861890
   H (  8)  3.326672  2.398701  2.244249  1.083868  4.067686  3.022774
   H (  9)  2.383420  2.995270  4.155160  3.539498  1.089014  5.178698
   H ( 10)  2.384197  4.668079  5.171414  4.923130  1.088959  6.200321
   H ( 11)  2.383171  4.532599  5.478960  4.798388  1.088978  6.558058
             H (  7)   H (  8)   H (  9)   H ( 10)
   H (  8)  2.849185
   H (  9)  3.887956  3.618284
   H ( 10)  4.552231  4.971430  1.793923
   H ( 11)  5.136729  4.508553  1.792734  1.790312
 
 Applying Cartesian multipole field
    Component          Value
    ---------          -----
     (2,0,0)        1.00000E-11
     (0,2,0)        2.00000E-11
     (0,0,2)       -3.00000E-11
 Nucleus-field energy     =     0.0000000013 hartrees
 Requested basis set is 6-31G(d,p)
 There are 40 shells and 113 basis functions
 A cutoff of  1.0D-14 yielded    721 shell pairs
 There are      6009 function pairs
 Smallest overlap matrix eigenvalue = 9.08E-03
 Guess from superposition of atomic densities
 Warning:  Energy on first SCF cycle will be non-variational
 SAD guess density has 58.000000 electrons

 -----------------------------------------------------------------------
  General SCF calculation program by
  Eric Jon Sundstrom, Paul Horn, Yuezhi Mao, Dmitri Zuev, Alec White,
  David Stuck, Shaama M.S., Shane Yost, Joonho Lee, David Small,
  Daniel Levine, Susi Lehtola, Hugh Burton, Evgeny Epifanovsky
 -----------------------------------------------------------------------
 Exchange:     0.2000 Hartree-Fock + 0.0800 Slater + 0.7200 B88
 Correlation:  0.1900 VWN1RPA + 0.8100 LYP
 Using SG-1 standard quadrature grid
 using 12 threads for integral computing
 -------------------------------------------------------
 OpenMP Integral computing Module                
 Release: version 1.0, May 2013, Q-Chem Inc. Pittsburgh 
 -------------------------------------------------------
 -------------------------------------------------------
 OpenMP BLAS3 based DFT computing Module                
 Release: version 1.0, May 2013, Q-Chem Inc. Pittsburgh 
 -------------------------------------------------------
 A unrestricted SCF calculation will be
 performed using DIIS
 SCF converges when DIIS error is below 1.0e-06
 Alpha HF Exchange    Energy =  -7.25875153727185
 Beta HF Exchange     Energy =  -7.25875153727185
 DFT Correlation      Energy =  -2.75145650707636
 DFT Exchange         Energy = -57.31262457054591
 One-Electron (alpha) Energy = -957.20408398116751
 One-Electron (beta)  Energy = -957.20408398116751
 Total Coulomb        Energy = 704.32736160670106
 ---------------------------------------
  Cycle       Energy         DIIS error
 ---------------------------------------
    1   -1038.5679693246      2.64e-02  
 Alpha HF Exchange    Energy =  -7.38440904323115
 Beta HF Exchange     Energy =  -7.18943139208885
 DFT Correlation      Energy =  -2.76642259104796
 DFT Exchange         Energy = -57.82850919964151
 One-Electron (alpha) Energy = -974.23979480933804
 One-Electron (beta)  Energy = -946.05476624110929
 Total Coulomb        Energy = 711.20745044852936
    2   -1038.1614616447      2.43e-03  
 Alpha HF Exchange    Energy =  -7.34331189837979
 Beta HF Exchange     Energy =  -7.16057790691092
 DFT Correlation      Energy =  -2.74711557102425
 DFT Exchange         Energy = -57.51787007039795
 One-Electron (alpha) Energy = -972.04612802437589
 One-Electron (beta)  Energy = -944.14930645587185
 Total Coulomb        Energy = 706.70458160995713
    3   -1038.1653071338      2.43e-03  
 Alpha HF Exchange    Energy =  -7.36065597504905
 Beta HF Exchange     Energy =  -7.17043726782911
 DFT Correlation      Energy =  -2.75496221086952
 DFT Exchange         Energy = -57.63761044161601
 One-Electron (alpha) Energy = -972.88943593663646
 One-Electron (beta)  Energy = -944.76534222473072
 Total Coulomb        Energy = 708.27831122499936
    4   -1038.2057116485      4.19e-04  
 Alpha HF Exchange    Energy =  -7.36361680939038
 Beta HF Exchange     Energy =  -7.17422856753286
 DFT Correlation      Energy =  -2.75500814743191
 DFT Exchange         Energy = -57.66136545496389
 One-Electron (alpha) Energy = -973.08580660506448
 One-Electron (beta)  Energy = -944.97621018078996
 Total Coulomb        Energy = 708.71491834194501
    5   -1038.2068962400      1.61e-04  
 Alpha HF Exchange    Energy =  -7.36289912298822
 Beta HF Exchange     Energy =  -7.17319463026733
 DFT Correlation      Energy =  -2.75468650425211
 DFT Exchange         Energy = -57.65438731405209
 One-Electron (alpha) Energy = -973.02407141096262
 One-Electron (beta)  Energy = -944.89723599510239
 Total Coulomb        Energy = 708.56497224358588
    6   -1038.2070815508      4.98e-05  
 Alpha HF Exchange    Energy =  -7.36288927397254
 Beta HF Exchange     Energy =  -7.17325055655975
 DFT Correlation      Energy =  -2.75461267758218
 DFT Exchange         Energy = -57.65428325291579
 One-Electron (alpha) Energy = -973.01995767940969
 One-Electron (beta)  Energy = -944.89399771802960
 Total Coulomb        Energy = 708.55746978144259
    7   -1038.2071001938      1.72e-05  
 Alpha HF Exchange    Energy =  -7.36300127211899
 Beta HF Exchange     Energy =  -7.17331462445873
 DFT Correlation      Energy =  -2.75461346031957
 DFT Exchange         Energy = -57.65493248227565
 One-Electron (alpha) Energy = -973.02863118134962
 One-Electron (beta)  Energy = -944.89951349928890
 Total Coulomb        Energy = 708.57248274737981
    8   -1038.2071025892      7.55e-06  
 Alpha HF Exchange    Energy =  -7.36297544730381
 Beta HF Exchange     Energy =  -7.17329952649110
 DFT Correlation      Energy =  -2.75459685856964
 DFT Exchange         Energy = -57.65475563786831
 One-Electron (alpha) Energy = -973.02618012178175
 One-Electron (beta)  Energy = -944.89683675559922
 Total Coulomb        Energy = 708.56712010617480
    9   -1038.2071030582      2.54e-06  
 Alpha HF Exchange    Energy =  -7.36297169843186
 Beta HF Exchange     Energy =  -7.17328863229606
 DFT Correlation      Energy =  -2.75459206143699
 DFT Exchange         Energy = -57.65469385666367
 One-Electron (alpha) Energy = -973.02554544577265
 One-Electron (beta)  Energy = -944.89585015356181
 Total Coulomb        Energy = 708.56541755430180
   10   -1038.2071031106      9.27e-07  Convergence criterion met
 ---------------------------------------
 SCF time:   CPU 23.99s  wall 2.00s 
<S^2> =          2.004264297
 Alpha HF Exchange    Energy =  -7.36297169843186
 Beta HF Exchange     Energy =  -7.17328863229606
 DFT Correlation      Energy =  -2.75459206143699
 DFT Exchange         Energy = -57.65469385666367
 One-Electron (alpha) Energy = -973.02554544577265
 One-Electron (beta)  Energy = -944.89585015356181
 Total Coulomb        Energy = 708.56541755430180
 Nuclear repulsion Energy = 246.09442118322914
 SCF   energy in the final basis set =    -1038.2071031106
 Total energy in the final basis set =    -1038.2071031106
 
 --------------------------------------------------------------
 
                    Orbital Energies (a.u.)
 --------------------------------------------------------------
 
 Alpha MOs
 -- Occupied --
*******-101.538 -10.252 -10.245 -10.218  -9.466  -9.454  -7.230
 -7.222  -7.220  -7.218  -7.208  -7.208  -0.868  -0.849  -0.747
 -0.680  -0.600  -0.464  -0.453  -0.451  -0.448  -0.435  -0.412
 -0.352  -0.312  -0.300  -0.299  -0.235  -0.207
 -- Virtual --
  0.023   0.039   0.103   0.120   0.142   0.144   0.160   0.182
  0.255   0.383   0.389   0.415   0.437   0.440   0.448   0.465
  0.478   0.509   0.528   0.541   0.551   0.570   0.597   0.624
  0.665   0.686   0.805   0.821   0.831   0.839   0.854   0.865
  0.874   0.882   0.896   0.902   0.911   0.914   0.944   0.949
  1.038   1.058   1.062   1.112   1.263   1.397   1.453   1.459
  1.549   1.704   1.753   1.825   1.883   1.976   2.008   2.024
  2.025   2.034   2.052   2.175   2.326   2.338   2.372   2.396
  2.449   2.511   2.575   2.604   2.656   2.793   2.796   2.878
  3.162   3.262   3.346   3.385   3.395   3.442   4.096   4.213
  4.303   4.367   4.401
 
 Beta MOs
 -- Occupied --
*******-101.538 -10.245 -10.238 -10.205  -9.465  -9.454  -7.228
 -7.219  -7.219  -7.218  -7.208  -7.208  -0.852  -0.849  -0.708
 -0.680  -0.568  -0.452  -0.451  -0.441  -0.428  -0.418  -0.412
 -0.330  -0.308  -0.299  -0.299
 -- Virtual --
 -0.082  -0.061   0.023   0.065   0.105   0.134   0.144   0.148
  0.169   0.194   0.274   0.391   0.398   0.419   0.440   0.448
  0.456   0.467   0.484   0.519   0.531   0.549   0.569   0.606
  0.628   0.659   0.688   0.700   0.818   0.822   0.838   0.846
  0.859   0.873   0.881   0.887   0.900   0.911   0.915   0.919
  0.950   0.966   1.047   1.073   1.079   1.124   1.264   1.445
  1.453   1.459   1.593   1.746   1.790   1.853   1.933   1.993
  2.008   2.024   2.026   2.038   2.106   2.190   2.326   2.339
  2.392   2.418   2.475   2.541   2.575   2.634   2.672   2.793
  2.796   2.890   3.162   3.274   3.360   3.385   3.395   3.458
  4.121   4.213   4.319   4.388   4.412
 --------------------------------------------------------------
 
          Ground-State Mulliken Net Atomic Charges

     Atom                 Charge (a.u.)    Spin (a.u.)
  --------------------------------------------------------
      1 Cl                   -0.104273       0.002353
      2 Cl                   -0.045610       0.137317
      3 C                    -0.197017       0.973407
      4 C                    -0.196085       0.902175
      5 C                    -0.403564       0.000431
      6 H                     0.132986      -0.008805
      7 H                     0.141578       0.008879
      8 H                     0.166011      -0.015662
      9 H                     0.179349      -0.000208
     10 H                     0.162915       0.000082
     11 H                     0.163711       0.000033
  --------------------------------------------------------
  Sum of atomic charges =     0.000000
  Sum of spin   charges =     2.000000

 -----------------------------------------------------------------
                    Cartesian Multipole Moments
 -----------------------------------------------------------------
    Charge (ESU x 10^10)
                 0.0000
    Dipole Moment (Debye)
         X      -0.5268      Y      -0.3412      Z      -0.6206
       Tot       0.8827
    Quadrupole Moments (Debye-Ang)
        XX     -43.2705     XY       1.2118     YY     -51.3720
        XZ       1.0576     YZ       0.9918     ZZ     -37.0971
    Octopole Moments (Debye-Ang^2)
       XXX      71.2692    XXY     -10.6694    XYY      25.0298
       YYY     -25.6661    XXZ      -7.1118    XYZ      -2.3185
       YYZ      -7.4725    XZZ      15.0537    YZZ     -10.1827
       ZZZ     -19.5221
    Hexadecapole Moments (Debye-Ang^3)
      XXXX    -169.3945   XXXY      22.2906   XXYY    -162.7604
      XYYY      12.6728   YYYY    -837.9357   XXXZ       8.7015
      XXYZ     -47.9798   XYYZ       6.3197   YYYZ    -170.1088
      XXZZ    -111.9077   XYZZ       5.3241   YYZZ    -219.3902
      XZZZ      -7.9971   YZZZ    -126.4699   ZZZZ    -516.2805
 -----------------------------------------------------------------
 Calculating analytic gradient of the SCF energy
 Gradient of SCF Energy
            1           2           3           4           5           6
    1   0.0001593   0.0000356  -0.0000799  -0.0000073  -0.0001220  -0.0000237
    2   0.0007719   0.0001000  -0.0001824  -0.0007722   0.0000415   0.0000415
    3   0.0006577  -0.0000569  -0.0000367  -0.0004505  -0.0001701  -0.0000315
            7           8           9          10          11
    1   0.0000461  -0.0000217  -0.0000464   0.0000328   0.0000271
    2   0.0000315  -0.0000438   0.0001199  -0.0000458  -0.0000622
    3   0.0000038  -0.0000469   0.0000536   0.0000171   0.0000604
 Max gradient component =       7.722E-04
 RMS gradient           =       2.459E-04
 Gradient time:  CPU 8.48 s  wall 0.75 s
 Geometry Optimization Parameters
   NAtoms,    NIC,     NZ,  NCons,   NDum,   NFix, NCnnct, MaxDiis
       11      56       0       1       0       0       0       0

 Cartesian Hessian Update
 Hessian Updated using BFGS Update


** CONSTRAINED OPTIMIZATION IN DELOCALIZED INTERNAL COORDINATES **
   Searching for a Minimum

   Optimization Cycle:   4

                       Coordinates (Angstroms)
     ATOM                X               Y               Z
      1  Cl       -0.3141181446   -1.8612251399   -0.5179769946
      2  Cl       -0.5809777167    2.2622151840    0.1939100570
      3  C        -0.9244296446    0.5754983391    2.3702780903
      4  C         0.0108806427    1.1462856622    1.4337542910
      5  C        -0.9319681534   -1.0169069267   -1.9925483361
      6  H        -1.1163889838    1.0482193837    3.3315214444
      7  H        -1.5382157867   -0.2831327249    2.1001814944
      8  H         0.9648272841    0.7068523349    1.1660728965
      9  H        -1.0735642498    0.0345294728   -1.7468158880
     10  H        -1.8752467475   -1.4794549235   -2.2790914283
     11  H        -0.1929014998   -1.1328726617   -2.7838796266
   Point Group: c1    Number of degrees of freedom:    27


   Energy is  -1038.207103111

              Constraints and their Current Values
                                        Value     Constraint
   Distance(Angs):        1   4             3.600000     3.600000
 Hessian Updated using BFGS Update

 24 Hessian modes will be used to form the next step
  Hessian Eigenvalues:
     0.024035    0.061498    0.092721    0.092906    0.093143    0.093422
     0.097882    0.230353    0.240496    0.266868    0.321948    0.329625
     0.329657    0.341708    0.456627    0.529513    0.590838    0.692682
     0.718002    0.719465    0.719667    0.721364    0.731088    0.811415

 Minimum Search - Taking Simple RFO Step
 Searching for Lamda that Minimizes Along All modes
 Value Taken    Lamda =  -0.00000128
 Step Taken.  Stepsize is  0.004862

                             Maximum     Tolerance    Cnvgd?
         Gradient           0.000325      0.000300      NO
         Displacement       0.002463      0.001200      NO
         Energy change     -0.000011      0.000001      NO


 New Cartesian Coordinates Obtained by Inverse Iteration

 Displacement from previous Coordinates is:  0.016331
 ----------------------------------------------------------------
             Standard Nuclear Orientation (Angstroms)
    I     Atom           X                Y                Z
 ----------------------------------------------------------------
    1      Cl     -0.3128329501    -1.8618208828    -0.5199320478
    2      Cl     -0.5821330149     2.2603513270     0.1933658029
    3      C      -0.9246038782     0.5766701990     2.3723221980
    4      C       0.0099109884     1.1448442584     1.4334756225
    5      C      -0.9312878406    -1.0168653803    -1.9937375279
    6      H      -1.1142416422     1.0509349562     3.3332738418
    7      H      -1.5399230209    -0.2816195126     2.1045566415
    8      H       0.9634138375     0.7046511802     1.1655671672
    9      H      -1.0736037536     0.0344715695    -1.7477816786
   10      H      -1.8744130773    -1.4797148785    -2.2803261798
   11      H      -0.1923886482    -1.1318948362    -2.7853778399
 ----------------------------------------------------------------
 Nuclear Repulsion Energy =   246.0822587728 hartrees
 There are       30 alpha and       28 beta electrons

                       Distance Matrix (Angstroms)
             Cl(  1)   Cl(  2)   C (  3)   C (  4)   C (  5)   H (  6)
   Cl(  2)  4.192090
   C (  3)  3.832184  2.774873
   C (  4)  3.600000  1.769956  1.441379
   C (  5)  1.807910  3.955437  4.647782  4.159884
   H (  6)  4.896284  3.406589  1.088264  2.209473  5.717195
   H (  7)  3.300110  3.321389  1.089485  2.210686  4.207973  1.861895
   H (  8)  3.325130  2.398769  2.244381  1.083842  4.066291  3.022502
   H (  9)  2.383760  2.994017  4.158297  3.539397  1.089063  5.181889
   H ( 10)  2.384014  4.666609  5.174746  4.922531  1.088966  6.204398
   H ( 11)  2.383179  4.531241  5.482445  4.798249  1.088990  6.561437
             H (  7)   H (  8)   H (  9)   H ( 10)
   H (  8)  2.849759
   H (  9)  3.893312  3.617483
   H ( 10)  4.557907  4.969799  1.793784
   H ( 11)  5.142983  4.507632  1.792640  1.790325
 
 Applying Cartesian multipole field
    Component          Value
    ---------          -----
     (2,0,0)        1.00000E-11
     (0,2,0)        2.00000E-11
     (0,0,2)       -3.00000E-11
 Nucleus-field energy     =     0.0000000013 hartrees
 Requested basis set is 6-31G(d,p)
 There are 40 shells and 113 basis functions
 A cutoff of  1.0D-14 yielded    721 shell pairs
 There are      6021 function pairs
 Smallest overlap matrix eigenvalue = 9.07E-03
 Guess from superposition of atomic densities
 Warning:  Energy on first SCF cycle will be non-variational
 SAD guess density has 58.000000 electrons

 -----------------------------------------------------------------------
  General SCF calculation program by
  Eric Jon Sundstrom, Paul Horn, Yuezhi Mao, Dmitri Zuev, Alec White,
  David Stuck, Shaama M.S., Shane Yost, Joonho Lee, David Small,
  Daniel Levine, Susi Lehtola, Hugh Burton, Evgeny Epifanovsky
 -----------------------------------------------------------------------
 Exchange:     0.2000 Hartree-Fock + 0.0800 Slater + 0.7200 B88
 Correlation:  0.1900 VWN1RPA + 0.8100 LYP
 Using SG-1 standard quadrature grid
 using 12 threads for integral computing
 -------------------------------------------------------
 OpenMP Integral computing Module                
 Release: version 1.0, May 2013, Q-Chem Inc. Pittsburgh 
 -------------------------------------------------------
 -------------------------------------------------------
 OpenMP BLAS3 based DFT computing Module                
 Release: version 1.0, May 2013, Q-Chem Inc. Pittsburgh 
 -------------------------------------------------------
 A unrestricted SCF calculation will be
 performed using DIIS
 SCF converges when DIIS error is below 1.0e-06
 Alpha HF Exchange    Energy =  -7.25875954466944
 Beta HF Exchange     Energy =  -7.25875954466944
 DFT Correlation      Energy =  -2.75145299005157
 DFT Exchange         Energy = -57.31264599060749
 One-Electron (alpha) Energy = -957.19189701157211
 One-Electron (beta)  Energy = -957.19189701157211
 Total Coulomb        Energy = 704.31507597961229
 ---------------------------------------
  Cycle       Energy         DIIS error
 ---------------------------------------
    1   -1038.5680773394      2.64e-02  
 Alpha HF Exchange    Energy =  -7.38440953140401
 Beta HF Exchange     Energy =  -7.18943504642616
 DFT Correlation      Energy =  -2.76642294134512
 DFT Exchange         Energy = -57.82852488642981
 One-Electron (alpha) Energy = -974.22654534182789
 One-Electron (beta)  Energy = -946.04411467665841
 Total Coulomb        Energy = 711.19573297530997
    2   -1038.1614606747      2.43e-03  
 Alpha HF Exchange    Energy =  -7.34330830526608
 Beta HF Exchange     Energy =  -7.16057728146261
 DFT Correlation      Energy =  -2.74711332363518
 DFT Exchange         Energy = -57.51785315960991
 One-Electron (alpha) Energy = -972.03255735141590
 One-Electron (beta)  Energy = -944.13828396567089
 Total Coulomb        Energy = 706.69213344330785
    3   -1038.1653011696      2.43e-03  
 Alpha HF Exchange    Energy =  -7.36065588081310
 Beta HF Exchange     Energy =  -7.17043948149706
 DFT Correlation      Energy =  -2.75496198396091
 DFT Exchange         Energy = -57.63761969715878
 One-Electron (alpha) Energy = -972.87615927046488
 One-Electron (beta)  Energy = -944.75458245402422
 Total Coulomb        Energy = 708.26644697770837
    4   -1038.2057130161      4.19e-04  
 Alpha HF Exchange    Energy =  -7.36361601491251
 Beta HF Exchange     Energy =  -7.17422982312713
 DFT Correlation      Energy =  -2.75500794516795
 DFT Exchange         Energy = -57.66136899542204
 One-Electron (alpha) Energy = -973.07246859079567
 One-Electron (beta)  Energy = -944.96536485759248
 Total Coulomb        Energy = 708.70289997709915
    5   -1038.2068974758      1.61e-04  
 Alpha HF Exchange    Energy =  -7.36289842142419
 Beta HF Exchange     Energy =  -7.17319589945022
 DFT Correlation      Energy =  -2.75468624348784
 DFT Exchange         Energy = -57.65439100933960
 One-Electron (alpha) Energy = -973.01075329488390
 One-Electron (beta)  Energy = -944.88639824531549
 Total Coulomb        Energy = 708.55298162811232
    6   -1038.2070827117      4.98e-05  
 Alpha HF Exchange    Energy =  -7.36288875061385
 Beta HF Exchange     Energy =  -7.17325193593188
 DFT Correlation      Energy =  -2.75461250928528
 DFT Exchange         Energy = -57.65428823172105
 One-Electron (alpha) Energy = -973.00665001441848
 One-Electron (beta)  Energy = -944.88316357341023
 Total Coulomb        Energy = 708.54549489095234
    7   -1038.2071013503      1.72e-05  
 Alpha HF Exchange    Energy =  -7.36300074720605
 Beta HF Exchange     Energy =  -7.17331594907077
 DFT Correlation      Energy =  -2.75461328600530
 DFT Exchange         Energy = -57.65493722991171
 One-Electron (alpha) Energy = -973.01532307329830
 One-Electron (beta)  Energy = -944.88867491606379
 Total Coulomb        Energy = 708.56050268210038
    8   -1038.2071037453      7.55e-06  
 Alpha HF Exchange    Energy =  -7.36297493037584
 Beta HF Exchange     Energy =  -7.17330084633915
 DFT Correlation      Energy =  -2.75459668216438
 DFT Exchange         Energy = -57.65476039668119
 One-Electron (alpha) Energy = -973.01287388288642
 One-Electron (beta)  Energy = -944.88599854473580
 Total Coulomb        Energy = 708.55514229463904
    9   -1038.2071042144      2.54e-06  
 Alpha HF Exchange    Energy =  -7.36297118625684
 Beta HF Exchange     Energy =  -7.17328995330577
 DFT Correlation      Energy =  -2.75459188729734
 DFT Exchange         Energy = -57.65469864143492
 One-Electron (alpha) Energy = -973.01223905014967
 One-Electron (beta)  Energy = -944.88501145498287
 Total Coulomb        Energy = 708.55343913247953
   10   -1038.2071042668      9.26e-07  Convergence criterion met
 ---------------------------------------
 SCF time:   CPU 24.20s  wall 2.00s 
<S^2> =          2.004265973
 Alpha HF Exchange    Energy =  -7.36297118625684
[...]

 26 Hessian modes will be used to form the next step
  Hessian Eigenvalues:
     0.007784    0.039015    0.092664    0.092856    0.093345    0.096652
     0.099635    0.214080    0.236848    0.243587    0.302561    0.322090
     0.329596    0.329598    0.329633    0.338174    0.456671    0.522189
     0.591411    0.673485    0.717439    0.719392    0.719585    0.721316
     0.730901    0.810256

 Minimum Search - Taking Simple RFO Step
 Searching for Lamda that Minimizes Along All modes
 Value Taken    Lamda =  -0.00000117
 Step Taken.  Stepsize is  0.008626

                             Maximum     Tolerance    Cnvgd?
         Gradient           0.000172      0.000300     YES
         Displacement       0.004707      0.001200      NO
         Energy change     -0.000004      0.000001      NO


 New Cartesian Coordinates Obtained by Inverse Iteration

 Displacement from previous Coordinates is:  0.031887
 ----------------------------------------------------------------
             Standard Nuclear Orientation (Angstroms)
    I     Atom           X                Y                Z
 ----------------------------------------------------------------
    1      Cl     -0.3119577811    -1.8639539987    -0.5310402692
    2      Cl     -0.5925511122     2.2469558858     0.1905193412
    3      C      -0.9241011791     0.5848221035     2.3878167798
    4      C       0.0033735619     1.1367002804     1.4327928424
    5      C      -0.9269741564    -1.0176589563    -2.0044573971
    6      H      -1.0985606085     1.0690495161     3.3467301035
    7      H      -1.5482277039    -0.2723316767     2.1365036096
    8      H       0.9546720043     0.6929908501     1.1633172744
    9      H      -1.0731787546     0.0323978996    -1.7564943209
   10      H      -1.8685406551    -1.4812169891    -2.2952718083
   11      H      -0.1860566154    -1.1277469148    -2.7950101554
 ----------------------------------------------------------------
 Nuclear Repulsion Energy =   246.0285953280 hartrees
 There are       30 alpha and       28 beta electrons

                       Distance Matrix (Angstroms)
             Cl(  1)   Cl(  2)   C (  3)   C (  4)   C (  5)   H (  6)
   Cl(  2)  4.183176
   C (  3)  3.858879  2.775019
   C (  4)  3.600000  1.769474  1.441128
   C (  5)  1.807047  3.948097  4.675471  4.161911
   H (  6)  4.925277  3.406637  1.088314  2.209523  5.746216
   H (  7)  3.343264  3.323700  1.089681  2.210893  4.253120  1.861761
   H (  8)  3.318609  2.398967  2.245192  1.083727  4.062230  3.020675
   H (  9)  2.382718  2.987663  4.183624  3.542598  1.088798  5.207513
   H ( 10)  2.383684  4.659032  5.204979  4.925040  1.089039  6.239304
   H ( 11)  2.383991  4.524074  5.508112  4.799784  1.089060  6.586315
             H (  7)   H (  8)   H (  9)   H ( 10)
   H (  8)  2.853672
   H (  9)  3.933696  3.615780
   H ( 10)  4.604849  4.965838  1.792739
   H ( 11)  5.187203  4.503854  1.792048  1.790372
 
 Applying Cartesian multipole field
    Component          Value
    ---------          -----
     (2,0,0)        1.00000E-11
     (0,2,0)        2.00000E-11
     (0,0,2)       -3.00000E-11
 Nucleus-field energy     =     0.0000000011 hartrees
 Requested basis set is 6-31G(d,p)
 There are 40 shells and 113 basis functions
 A cutoff of  1.0D-14 yielded    720 shell pairs
 There are      6020 function pairs
 Smallest overlap matrix eigenvalue = 9.06E-03
 Guess from superposition of atomic densities
 Warning:  Energy on first SCF cycle will be non-variational
 SAD guess density has 58.000000 electrons

 -----------------------------------------------------------------------
  General SCF calculation program by
  Eric Jon Sundstrom, Paul Horn, Yuezhi Mao, Dmitri Zuev, Alec White,
  David Stuck, Shaama M.S., Shane Yost, Joonho Lee, David Small,
  Daniel Levine, Susi Lehtola, Hugh Burton, Evgeny Epifanovsky
 -----------------------------------------------------------------------
 Exchange:     0.2000 Hartree-Fock + 0.0800 Slater + 0.7200 B88
 Correlation:  0.1900 VWN1RPA + 0.8100 LYP
 Using SG-1 standard quadrature grid
 using 12 threads for integral computing
 -------------------------------------------------------
 OpenMP Integral computing Module                
 Release: version 1.0, May 2013, Q-Chem Inc. Pittsburgh 
 -------------------------------------------------------
 -------------------------------------------------------
 OpenMP BLAS3 based DFT computing Module                
 Release: version 1.0, May 2013, Q-Chem Inc. Pittsburgh 
 -------------------------------------------------------
 A unrestricted SCF calculation will be
 performed using DIIS
 SCF converges when DIIS error is below 1.0e-06
 Alpha HF Exchange    Energy =  -7.25888459889765
 Beta HF Exchange     Energy =  -7.25888459889765
 DFT Correlation      Energy =  -2.75144778970325
 DFT Exchange         Energy = -57.31294010175068
 One-Electron (alpha) Energy = -957.13769753254485
 One-Electron (beta)  Energy = -957.13769753254485
 Total Coulomb        Energy = 704.25953046482664
 ---------------------------------------
  Cycle       Energy         DIIS error
 ---------------------------------------
    1   -1038.5694263604      2.64e-02  
 Alpha HF Exchange    Energy =  -7.38445417488482
 Beta HF Exchange     Energy =  -7.18950245018980
 DFT Correlation      Energy =  -2.76644891028224
 DFT Exchange         Energy = -57.82892780584329
 One-Electron (alpha) Energy = -974.16633393558402
 One-Electron (beta)  Energy = -946.00117308162407
 Total Coulomb        Energy = 711.14682356698290
    2   -1038.1614214623      2.43e-03  
 Alpha HF Exchange    Energy =  -7.34331161807261
 Beta HF Exchange     Energy =  -7.16060737098411
 DFT Correlation      Energy =  -2.74711612036813
 DFT Exchange         Energy = -57.51794417414833
 One-Electron (alpha) Energy = -971.96943943695499
 One-Electron (beta)  Energy = -944.09254644419207
 Total Coulomb        Energy = 706.63714377025042
    3   -1038.1652260654      2.44e-03  
 Alpha HF Exchange    Energy =  -7.36068863234563
 Beta HF Exchange     Energy =  -7.17049191450392
 DFT Correlation      Energy =  -2.75498068370337
 DFT Exchange         Energy = -57.63792393162315
 One-Electron (alpha) Energy = -972.81516023129211
 One-Electron (beta)  Energy = -944.71051019027891
 Total Coulomb        Energy = 708.21543986746633
    4   -1038.2057203872      4.19e-04  
 Alpha HF Exchange    Energy =  -7.36364415858488
 Beta HF Exchange     Energy =  -7.17427549341015
 DFT Correlation      Energy =  -2.75502724778879
 DFT Exchange         Energy = -57.66163625279310
 One-Electron (alpha) Energy = -973.01120345655806
 One-Electron (beta)  Energy = -944.92087955110276
 Total Coulomb        Energy = 708.65116817425167
    5   -1038.2069026569      1.61e-04  
 Alpha HF Exchange    Energy =  -7.36292764495767
 Beta HF Exchange     Energy =  -7.17324192785036
 DFT Correlation      Energy =  -2.75470530158977
 DFT Exchange         Energy = -57.65466202413229
 One-Electron (alpha) Energy = -972.94961955991437
 One-Electron (beta)  Energy = -944.84194589895128
 Total Coulomb        Energy = 708.50141969210608
    6   -1038.2070873362      4.98e-05  
 Alpha HF Exchange    Energy =  -7.36291903106260
 Beta HF Exchange     Energy =  -7.17329842908756
 DFT Correlation      Energy =  -2.75463216098393
 DFT Exchange         Energy = -57.65456646170830
 One-Electron (alpha) Energy = -972.94557369480913
 One-Electron (beta)  Energy = -944.83871377739206
 Total Coulomb        Energy = 708.49400228864693
    7   -1038.2071059373      1.72e-05  
 Alpha HF Exchange    Energy =  -7.36303106402462
 Beta HF Exchange     Energy =  -7.17336209168643
 DFT Correlation      Energy =  -2.75463291111498
 DFT Exchange         Energy = -57.65521415046017
 One-Electron (alpha) Energy = -972.95425324817109
 One-Electron (beta)  Energy = -944.84420102341369
 Total Coulomb        Energy = 708.50899083143167
    8   -1038.2071083283      7.56e-06  
 Alpha HF Exchange    Energy =  -7.36300531423634
 Beta HF Exchange     Energy =  -7.17334693718387
 DFT Correlation      Energy =  -2.75461629720942
 DFT Exchange         Energy = -57.65503737575001
 One-Electron (alpha) Energy = -972.95181536656503
 One-Electron (beta)  Energy = -944.84152373056509
 Total Coulomb        Energy = 708.50364089442246
    9   -1038.2071087980      2.53e-06  
 Alpha HF Exchange    Energy =  -7.36300160584415
 Beta HF Exchange     Energy =  -7.17333604392023
 DFT Correlation      Energy =  -2.75461151903308
 DFT Exchange         Energy = -57.65497578199820
 One-Electron (alpha) Energy = -972.95118033259519
 One-Electron (beta)  Energy = -944.84053299524862
 Total Coulomb        Energy = 708.50193409937640
   10   -1038.2071088502      9.24e-07  Convergence criterion met
 ---------------------------------------
 SCF time:   CPU 23.99s  wall 2.00s 
<S^2> =          2.004276477
 Alpha HF Exchange    Energy =  -7.36300160584415
 Beta HF Exchange     Energy =  -7.17333604392023
 DFT Correlation      Energy =  -2.75461151903308
 DFT Exchange         Energy = -57.65497578199820
 One-Electron (alpha) Energy = -972.95118033259519
 One-Electron (beta)  Energy = -944.84053299524862
 Total Coulomb        Energy = 708.50193409937640
 Nuclear repulsion Energy = 246.02859532909960
 SCF   energy in the final basis set =    -1038.2071088502
 Total energy in the final basis set =    -1038.2071088502
 
 --------------------------------------------------------------
 
                    Orbital Energies (a.u.)
 --------------------------------------------------------------
 
 Alpha MOs
 -- Occupied --
*******-101.538 -10.252 -10.244 -10.218  -9.466  -9.454  -7.230
 -7.222  -7.220  -7.218  -7.208  -7.208  -0.868  -0.849  -0.747
 -0.680  -0.600  -0.464  -0.453  -0.451  -0.448  -0.435  -0.412
 -0.352  -0.313  -0.299  -0.299  -0.235  -0.206
 -- Virtual --
  0.024   0.039   0.104   0.120   0.142   0.144   0.160   0.182
  0.255   0.382   0.389   0.415   0.436   0.440   0.448   0.465
  0.478   0.509   0.528   0.541   0.551   0.571   0.598   0.624
  0.665   0.684   0.804   0.821   0.832   0.838   0.854   0.864
  0.874   0.882   0.895   0.903   0.911   0.915   0.942   0.949
  1.038   1.058   1.062   1.112   1.263   1.397   1.453   1.459
  1.552   1.704   1.750   1.824   1.882   1.976   2.008   2.025
  2.027   2.034   2.053   2.176   2.325   2.338   2.372   2.395
  2.449   2.511   2.577   2.605   2.656   2.794   2.796   2.879
  3.162   3.260   3.347   3.385   3.396   3.442   4.096   4.213
  4.303   4.367   4.402
 
 Beta MOs
 -- Occupied --
*******-101.538 -10.244 -10.238 -10.205  -9.465  -9.454  -7.228
 -7.219  -7.219  -7.218  -7.208  -7.208  -0.852  -0.849  -0.708
 -0.679  -0.568  -0.452  -0.451  -0.442  -0.428  -0.418  -0.412
 -0.330  -0.308  -0.299  -0.298
 -- Virtual --
 -0.082  -0.061   0.024   0.065   0.106   0.134   0.144   0.148
  0.169   0.194   0.274   0.390   0.397   0.419   0.439   0.448
  0.456   0.467   0.485   0.519   0.531   0.549   0.569   0.605
  0.628   0.659   0.687   0.698   0.817   0.823   0.839   0.846
  0.859   0.873   0.881   0.886   0.899   0.911   0.916   0.919
  0.951   0.964   1.048   1.073   1.080   1.124   1.264   1.445
  1.453   1.460   1.595   1.747   1.787   1.852   1.933   1.993
  2.008   2.025   2.027   2.039   2.107   2.191   2.325   2.338
  2.392   2.416   2.475   2.540   2.577   2.634   2.671   2.794
  2.796   2.891   3.162   3.272   3.361   3.385   3.396   3.458
  4.121   4.213   4.319   4.388   4.412
 --------------------------------------------------------------
 
          Ground-State Mulliken Net Atomic Charges

     Atom                 Charge (a.u.)    Spin (a.u.)
  --------------------------------------------------------
      1 Cl                   -0.103855       0.002453
      2 Cl                   -0.045163       0.136816
      3 C                    -0.196894       0.973375
      4 C                    -0.196304       0.902560
      5 C                    -0.403686       0.000430
      6 H                     0.133048      -0.008399
      7 H                     0.141215       0.008745
      8 H                     0.166230      -0.015905
      9 H                     0.179244      -0.000192
     10 H                     0.162713       0.000084
     11 H                     0.163453       0.000034
  --------------------------------------------------------
  Sum of atomic charges =     0.000000
  Sum of spin   charges =     2.000000

 -----------------------------------------------------------------
                    Cartesian Multipole Moments
 -----------------------------------------------------------------
    Charge (ESU x 10^10)
                -0.0000
    Dipole Moment (Debye)
         X      -0.5166      Y      -0.3190      Z      -0.5985
       Tot       0.8525
    Quadrupole Moments (Debye-Ang)
        XX     -43.3001     XY       1.2107     YY     -51.3220
        XZ       1.0476     YZ       0.9988     ZZ     -36.9976
    Octopole Moments (Debye-Ang^2)
       XXX      71.6478    XXY     -10.4689    XYY      25.1596
       YYY     -24.7874    XXZ      -6.9536    XYZ      -2.2928
       YYZ      -7.1166    XZZ      15.1309    YZZ      -9.8361
       ZZZ     -18.9249
    Hexadecapole Moments (Debye-Ang^3)
      XXXX    -169.8614   XXXY      23.4863   XXYY    -162.0791
      XYYY      13.9259   YYYY    -832.8552   XXXZ       9.0353
      XXYZ     -48.5601   XYYZ       6.4362   YYYZ    -171.2473
      XXZZ    -113.0890   XYZZ       5.8239   YYZZ    -219.4649
      XZZZ      -7.5207   YZZZ    -127.1545   ZZZZ    -521.7289
 -----------------------------------------------------------------
 Calculating analytic gradient of the SCF energy
 Gradient of SCF Energy
            1           2           3           4           5           6
    1   0.0000354   0.0000387  -0.0000092  -0.0001064   0.0001827  -0.0000019
    2   0.0008759   0.0000985   0.0000338  -0.0009869  -0.0001094   0.0000283
    3   0.0004526  -0.0000847  -0.0000006  -0.0004443   0.0001742  -0.0000147
            7           8           9          10          11
    1   0.0000056  -0.0000021  -0.0000876  -0.0000380  -0.0000173
    2  -0.0000268   0.0000238  -0.0000366   0.0000400   0.0000594
    3  -0.0000113  -0.0000146  -0.0000418   0.0000310  -0.0000459
 Max gradient component =       9.869E-04
 RMS gradient           =       2.626E-04
 Gradient time:  CPU 8.46 s  wall 0.75 s
 Geometry Optimization Parameters
   NAtoms,    NIC,     NZ,  NCons,   NDum,   NFix, NCnnct, MaxDiis
       11      56       0       1       0       0       0       0

 Cartesian Hessian Update
 Hessian Updated using BFGS Update


** CONSTRAINED OPTIMIZATION IN DELOCALIZED INTERNAL COORDINATES **
   Searching for a Minimum

   Optimization Cycle:   7

                       Coordinates (Angstroms)
     ATOM                X               Y               Z
      1  Cl       -0.3119577811   -1.8639539987   -0.5310402692
      2  Cl       -0.5925511122    2.2469558858    0.1905193412
      3  C        -0.9241011791    0.5848221035    2.3878167798
      4  C         0.0033735619    1.1367002804    1.4327928424
      5  C        -0.9269741564   -1.0176589563   -2.0044573971
      6  H        -1.0985606085    1.0690495161    3.3467301035
      7  H        -1.5482277039   -0.2723316767    2.1365036096
      8  H         0.9546720043    0.6929908501    1.1633172744
      9  H        -1.0731787546    0.0323978996   -1.7564943209
     10  H        -1.8685406551   -1.4812169891   -2.2952718083
     11  H        -0.1860566154   -1.1277469148   -2.7950101554
   Point Group: c1    Number of degrees of freedom:    27


   Energy is  -1038.207108850

              Constraints and their Current Values
                                        Value     Constraint
   Distance(Angs):        1   4             3.600000     3.600000
 Hessian Updated using BFGS Update

 26 Hessian modes will be used to form the next step
  Hessian Eigenvalues:
     0.005556    0.034499    0.072326    0.092713    0.092936    0.093425
     0.097812    0.217303    0.239617    0.247964    0.302411    0.322219
     0.325266    0.329597    0.329616    0.329675    0.456445    0.524988
     0.581864    0.679729    0.717373    0.719448    0.719480    0.721313
     0.730878    0.810590

 Minimum Search - Taking Simple RFO Step
 Searching for Lamda that Minimizes Along All modes
 Value Taken    Lamda =  -0.00000160
 Step Taken.  Stepsize is  0.012519

                             Maximum     Tolerance    Cnvgd?
         Gradient           0.000161      0.000300     YES
         Displacement       0.006081      0.001200      NO
         Energy change     -0.000001      0.000001     YES


                       Distance Matrix (Angstroms)
             Cl(  1)   Cl(  2)   C (  3)   C (  4)   C (  5)   H (  6)
   Cl(  2)  4.183176
   C (  3)  3.858879  2.775019
   C (  4)  3.600000  1.769474  1.441128
   C (  5)  1.807047  3.948097  4.675471  4.161911
   H (  6)  4.925277  3.406637  1.088314  2.209523  5.746216
   H (  7)  3.343264  3.323700  1.089681  2.210893  4.253120  1.861761
   H (  8)  3.318609  2.398967  2.245192  1.083727  4.062230  3.020675
   H (  9)  2.382718  2.987663  4.183624  3.542598  1.088798  5.207513
   H ( 10)  2.383684  4.659032  5.204979  4.925040  1.089039  6.239304
   H ( 11)  2.383991  4.524074  5.508112  4.799784  1.089060  6.586315
             H (  7)   H (  8)   H (  9)   H ( 10)
   H (  8)  2.853672
   H (  9)  3.933696  3.615780
   H ( 10)  4.604849  4.965838  1.792739
   H ( 11)  5.187203  4.503854  1.792048  1.790372
 
 Final energy is   -1038.20710885016     


 ******************************
 **  OPTIMIZATION CONVERGED  **
 ******************************

                       Coordinates (Angstroms)
     ATOM                X               Y               Z
      1  Cl       -0.3119577811   -1.8639539987   -0.5310402692
      2  Cl       -0.5925511122    2.2469558858    0.1905193412
      3  C        -0.9241011791    0.5848221035    2.3878167798
      4  C         0.0033735619    1.1367002804    1.4327928424
      5  C        -0.9269741564   -1.0176589563   -2.0044573971
      6  H        -1.0985606085    1.0690495161    3.3467301035
      7  H        -1.5482277039   -0.2723316767    2.1365036096
      8  H         0.9546720043    0.6929908501    1.1633172744
      9  H        -1.0731787546    0.0323978996   -1.7564943209
     10  H        -1.8685406551   -1.4812169891   -2.2952718083
     11  H        -0.1860566154   -1.1277469148   -2.7950101554

Z-matrix Print:
$molecule
0 3
Cl
C  1 1.769474
H  2 1.083727 1 112.206886
C  2 1.441128 1 119.260790 3 -159.727675 0
H  4 1.088314 2 121.109675 1 -92.522859 0
H  4 1.089681 2 121.131861 1 81.222089 0
H  1 2.987663 2 92.671610 3 68.301086 0
C  7 1.088798 1 147.317189 2 -10.887354 0
H  8 1.089039 7 110.807564 1 130.771264 0
H  8 1.089060 7 110.742026 1 -106.149011 0
Cl 8 1.807047 7 108.160196 1 12.305134 0
$end

PES scan, value:    3.6000 energy: -1038.2071088502
------- Summary of potential scan: ------ 
    3.6000     -1038.2071088502
----------------------------------------- 
Archival summary:
1\1\hpc0332\JobtypUnspecified\ProcedureUnspecified\6-31G**\l236(3)\knomura\MonMar1122:34:502019MonMar1122:34:502019\0\\#,JobtypUnspecified,ProcedureUnspecified,6-31G**,\\0,3\Cl\C,1,1.76947\H,2,1.08373,1,112.207\C,2,1.44113,1,119.261,3,-159.728,0\H,4,1.08831,2,121.11,1,-92.5229,0\H,4,1.08968,2,121.132,1,81.2221,0\H,1,2.98766,2,92.6716,3,68.3011,0\C,7,1.0888,1,147.317,2,-10.8874,0\H,8,1.08904,7,110.808,1,130.771,0\H,8,1.08906,7,110.742,1,-106.149,0\Cl,8,1.80705,7,108.16,1,12.3051,0\\\@

 Total job time:  24.25s(wall), 269.73s(cpu) 
 Mon Mar 11 22:34:50 2019

        *************************************************************
        *                                                           *
        *  Thank you very much for using Q-Chem.  Have a nice day.  *
        *                                                           *
        *************************************************************


