
Running Job 1 of 1 ruruma/CH3CH2CHCl2_afterGeo_siglet.xyz.data/inputs/bond_singlet_4.5.in
qchem ruruma/CH3CH2CHCl2_afterGeo_siglet.xyz.data/inputs/bond_singlet_4.5.in_17782.0 /staging/scratch/2858534/qchem17782/ 1
/usr/usc/qchem/5.1.1/exe/qcprog.exe_s ruruma/CH3CH2CHCl2_afterGeo_siglet.xyz.data/inputs/bond_singlet_4.5.in_17782.0 /staging/scratch/2858534/qchem17782/
Check license passed

                  Welcome to Q-Chem
     A Quantum Leap Into The Future Of Chemistry


 Q-Chem 5.1, Q-Chem, Inc., Pleasanton, CA (2018)

 Yihan Shao,  Zhengting Gan,  E. Epifanovsky,  A. T. B. Gilbert,  M. Wormit,  
 J. Kussmann,  A. W. Lange,  A. Behn,  Jia Deng,  Xintian Feng,  D. Ghosh,  
 M. Goldey,  P. R. Horn,  L. D. Jacobson,  I. Kaliman,  T. Kus,  A. Landau,  
 Jie Liu,  E. I. Proynov,  R. M. Richard,  R. P. Steele,  E. J. Sundstrom,  
 H. L. Woodcock III,  P. M. Zimmerman,  D. Zuev,  B. Albrecht,  E. Alguire,  
 S. A. Baeppler,  D. Barton,  Z. Benda,  Y. A. Bernard,  E. J. Berquist,  
 K. B. Bravaya,  H. Burton,  D. Casanova,  Chun-Min Chang,  Yunqing Chen,  
 A. Chien,  K. D. Closser,  M. P. Coons,  S. Coriani,  S. Dasgupta,  
 A. L. Dempwolff,  M. Diedenhofen,  Hainam Do,  R. G. Edgar,  Po-Tung Fang,  
 S. Faraji,  S. Fatehi,  Qingguo Feng,  K. D. Fenk,  J. Fosso-Tande,  
 Qinghui Ge,  A. Ghysels,  G. Gidofalvi,  J. Gomes,  J. Gonthier,  A. Gunina,  
 D. Hait,  M. W. D. Hanson-Heine,  P. H. P. Harbach,  A. W. Hauser,  
 J. E. Herr,  E. G. Hohenstein,  Z. C. Holden,  Kerwin Hui,  B. C. Huynh,  
 T.-C. Jagau,  Hyunjun Ji,  B. Kaduk,  K. Khistyaev,  Jaehoon Kim,  
 P. Klunzinger,  K. Koh,  D. Kosenkov,  L. Koulias,  T. Kowalczyk,  
 C. M. Krauter,  A. Kunitsa,  Ka Un Lao,  A. Laurent,  K. V. Lawler,  
 Joonho Lee,  D. Lefrancois,  S. Lehtola,  D. S. Levine,  Yi-Pei Li,  
 You-Sheng Lin,  Fenglai Liu,  E. Livshits,  A. Luenser,  P. Manohar,  
 E. Mansoor,  S. F. Manzer,  Shan-Ping Mao,  Yuezhi Mao,  N. Mardirossian,  
 A. V. Marenich,  T. Markovich,  L. A. Martinez-Martinez,  S. A. Maurer,  
 N. J. Mayhall,  S. C. McKenzie,  J.-M. Mewes,  A. F. Morrison,  
 J. W. Mullinax,  K. Nanda,  T. S. Nguyen-Beck,  R. Olivares-Amaya,  
 J. A. Parkhill,  T. M. Perrine,  F. Plasser,  P. Pokhilko,  S. Prager,  
 A. Prociuk,  E. Ramos,  D. R. Rehn,  F. Rob,  M. Schneider,  N. Sergueev,  
 S. M. Sharada,  S. Sharma,  D. W. Small,  T. Stauch,  T. Stein,  
 Yu-Chuan Su,  A. J. W. Thom,  A. Tkatchenko,  T. Tsuchimochi,  N. M. Tubman,  
 L. Vogt,  M. L. Vidal,  O. Vydrov,  M. A. Watson,  J. Wenzel,  
 M. de Wergifosse,  T. A. Wesolowski,  A. White,  J. Witte,  A. Yamada,  
 Jun Yang,  K. Yao,  S. Yeganeh,  S. R. Yost,  Zhi-Qiang You,  A. Zech,  
 Igor Ying Zhang,  Xing Zhang,  Yan Zhao,  Ying Zhu,  B. R. Brooks,  
 G. K. L. Chan,  C. J. Cramer,  M. S. Gordon,  W. J. Hehre,  A. Klamt,  
 M. W. Schmidt,  C. D. Sherrill,  D. G. Truhlar,  A. Aspuru-Guzik,  R. Baer,  
 A. T. Bell,  N. A. Besley,  Jeng-Da Chai,  A. E. DePrince, III,  
 R. A. DiStasio Jr.,  A. Dreuw,  B. D. Dunietz,  T. R. Furlani,  
 Chao-Ping Hsu,  Yousung Jung,  Jing Kong,  D. S. Lambrecht,  WanZhen Liang,  
 C. Ochsenfeld,  V. A. Rassolov,  L. V. Slipchenko,  J. E. Subotnik,  
 T. Van Voorhis,  J. M. Herbert,  A. I. Krylov,  P. M. W. Gill,  M. Head-Gordon

 Contributors to earlier versions of Q-Chem not listed above: 
 R. D. Adamson,  B. Austin,  J. Baker,  G. J. O. Beran,  K. Brandhorst,  
 S. T. Brown,  E. F. C. Byrd,  A. K. Chakraborty,  C.-L. Cheng,  
 Siu Hung Chien,  D. M. Chipman,  D. L. Crittenden,  H. Dachsel,  
 R. J. Doerksen,  A. D. Dutoi,  L. Fusti-Molnar,  W. A. Goddard III,  
 A. Golubeva-Zadorozhnaya,  S. R. Gwaltney,  G. Hawkins,  A. Heyden,  
 S. Hirata,  G. Kedziora,  F. J. Keil,  C. Kelley,  Jihan Kim,  R. A. King,  
 R. Z. Khaliullin,  P. P. Korambath,  W. Kurlancheek,  A. M. Lee,  M. S. Lee,  
 S. V. Levchenko,  Ching Yeh Lin,  D. Liotard,  R. C. Lochan,  I. Lotan,  
 P. E. Maslen,  N. Nair,  D. P. O'Neill,  D. Neuhauser,  E. Neuscamman,  
 C. M. Oana,  R. Olson,  B. Peters,  R. Peverati,  P. A. Pieniazek,  
 Y. M. Rhee,  J. Ritchie,  M. A. Rohrdanz,  E. Rosta,  N. J. Russ,  
 H. F. Schaefer III,  N. E. Schultz,  N. Shenvi,  A. C. Simmonett,  A. Sodt,  
 D. Stuck,  K. S. Thanthiriwatte,  V. Vanovschi,  Tao Wang,  A. Warshel,  
 C. F. Williams,  Q. Wu,  X. Xu,  W. Zhang

 Please cite Q-Chem as follows:
 Y. Shao et al., Mol. Phys. 113, 184-215 (2015)
 DOI: 10.1080/00268976.2014.952696

 Q-Chem 5.1.1 for Intel X86 EM64T Linux

 Parts of Q-Chem use Armadillo 8.300.2 (Tropical Shenanigans).
 http://arma.sourceforge.net/

 Q-Chem begins on Mon Mar 11 22:00:05 2019  

Host: 
0

     Scratch files written to /staging/scratch/2858534/qchem17782//
 Aug318 |scratch|qcdevops|jenkins|workspace|build_RNUM 6013   
Processing $rem in /usr/usc/qchem/5.1.1/config/preferences.
 MEM_TOTAL  2000 
Input Ideriv = 2
Curr. Ideriv = -1
Max.  Ideriv = 2

Checking the input file for inconsistencies... 	...done.

--------------------------------------------------------------
User input:
--------------------------------------------------------------

$comment
potential surface scanner
$end

$rem
JOBTYPE  PES_SCAN
UNRESTRICTED TRUE
SYM_IGNORE  TRUE
GEOM_OPT_MAX_CYCLES 400
SCF_MAX_CYCLES 400
METHOD   B3LYP
BASIS   6-31G**
PDB_PRINT 2
SCF_CONVERGENCE 6
THRESH 14
SCF_PRINT 1
$end
$molecule
0 1
Cl 0.262977 -2.785717 -1.608201
Cl 0.959549 1.946309 -0.053606
C -0.996164 0.208675 0.821622
C 0.334195 0.773480 0.977732
C -1.497274 -0.178719 -0.587195
H -1.684015 1.010745 1.167810
H -1.103088 -0.618286 1.529273
H 0.997507 0.501173 1.792788
H -0.946914 -1.088883 -0.909721
H -2.568464 -0.387471 -0.539609
H -1.330411 0.618696 -1.315494
$end
$scan
stre 1 4 4.500000 4.501000 0.100000
$end
--------------------------------------------------------------
 ----------------------------------------------------------------
             Standard Nuclear Orientation (Angstroms)
    I     Atom           X                Y                Z
 ----------------------------------------------------------------
    1      Cl      0.2629770000    -2.7857170000    -1.6082010000
    2      Cl      0.9595490000     1.9463090000    -0.0536060000
    3      C      -0.9961640000     0.2086750000     0.8216220000
    4      C       0.3341950000     0.7734800000     0.9777320000
    5      C      -1.4972740000    -0.1787190000    -0.5871950000
    6      H      -1.6840150000     1.0107450000     1.1678100000
    7      H      -1.1030880000    -0.6182860000     1.5292730000
    8      H       0.9975070000     0.5011730000     1.7927880000
    9      H      -0.9469140000    -1.0888830000    -0.9097210000
   10      H      -2.5684640000    -0.3874710000    -0.5396090000
   11      H      -1.3304110000     0.6186960000    -1.3154940000
 ----------------------------------------------------------------
 Nuclear Repulsion Energy =   241.0573565882 hartrees
 There are       29 alpha and       29 beta electrons
 Requested basis set is 6-31G(d,p)
 There are 40 shells and 113 basis functions

 Total QAlloc Memory Limit   2000 MB
 Mega-Array Size       188 MB
 MEM_STATIC part       192 MB
A total of 1 constraints
  
            1
    1   1.0100000
    2   1.0100000
    3   4.0100000
    4   4.5000000
    5   4.5010000
    6   0.1000000
    7   0.0000000
    8   0.0000000
    9   0.0000000
   10   0.0000000

                       Distance Matrix (Angstroms)
             Cl(  1)   Cl(  2)   C (  3)   C (  4)   C (  5)   H (  6)
   Cl(  2)  5.029319
   C (  3)  4.056582  2.758661
   C (  4)  4.400001  1.682336  1.453695
   C (  5)  3.307170  3.291875  1.544652  2.590359
   H (  6)  5.090200  3.058687  1.111891  2.040979  2.128318
   H (  7)  4.050634  3.652003  1.093649  2.075329  2.197280  1.766882
   H (  8)  4.786429  2.345001  2.236838  1.085564  3.514328  2.800147
   H (  9)  2.197944  3.685095  2.164170  2.944846  1.111448  3.044321
   H ( 10)  3.861416  4.257887  2.163439  3.474991  1.092378  2.377507
   H ( 11)  3.770224  2.932377  2.201614  2.837914  1.092764  2.538806
             H (  7)   H (  8)   H (  9)   H ( 10)
   H (  8)  2.394813
   H (  9)  2.488884  3.689527
   H ( 10)  2.545756  4.352690  1.805100
   H ( 11)  3.110386  3.885155  1.796538  1.774019
 
 A cutoff of  1.0D-14 yielded    758 shell pairs
 There are      6146 function pairs
 
 -------------------------------------------------------
 OpenMP Integral Computing Module                       
 Release: version 1.0, May 2013, Q-Chem Inc. Pittsburgh 
 -------------------------------------------------------
 Integral Job Info:
 Integral job number is                      11
 Integral operator is                         1
 short-range coefficients                     0
 long-range coefficients              100000000
 Omega coefficients                           0
 if combine SR and LR in K                    0
 Integral screening is                        0
 Integral computing path is                   2
 max size of driver memory is            800000
 size of driver memory is                593474
 size of scratch memory is             15267112
 max col of scratch BK array               1296
 max len of scratch array in speh3          155
 max len of scratch index in speh4           18
 max int batch size is                      520
 min int batch size is                       52
 fixed nKL is                                52
 max L of basis functions is                  2
 order of int derivative is                   0
 number of shells is                         40
 number of basis is                         113
 number of cartesian basis is               113
 number of contracted shell pairs           758
 number of primitive shell pairs           3033
 maxK2 (contraction) of shell pair           36
 max number of K2 of shell pair               1
 max number of CS2 of shell pair             60
 max number of PS2 of shell pair            312
 mem total for path MDJ                  516588
 -------------------------------------------------------
 Smallest overlap matrix eigenvalue = 5.33E-03

 Scale SEOQF with 1.000000e-01/1.000000e-01/1.000000e-01

 Standard Electronic Orientation quadrupole field applied
 Nucleus-field energy     =     0.0000000093 hartrees
 Guess from superposition of atomic densities
 Warning:  Energy on first SCF cycle will be non-variational
 SAD guess density has 58.000000 electrons

 -----------------------------------------------------------------------
  General SCF calculation program by
  Eric Jon Sundstrom, Paul Horn, Yuezhi Mao, Dmitri Zuev, Alec White,
  David Stuck, Shaama M.S., Shane Yost, Joonho Lee, David Small,
  Daniel Levine, Susi Lehtola, Hugh Burton, Evgeny Epifanovsky
 -----------------------------------------------------------------------
 Exchange:     0.2000 Hartree-Fock + 0.0800 Slater + 0.7200 B88
 Correlation:  0.1900 VWN1RPA + 0.8100 LYP
 Using SG-1 standard quadrature grid
 using 12 threads for integral computing
 -------------------------------------------------------
 OpenMP Integral computing Module                
 Release: version 1.0, May 2013, Q-Chem Inc. Pittsburgh 
 -------------------------------------------------------
 -------------------------------------------------------
 OpenMP BLAS3 based DFT computing Module                
 Release: version 1.0, May 2013, Q-Chem Inc. Pittsburgh 
 -------------------------------------------------------
 A unrestricted SCF calculation will be
 performed using DIIS
 SCF converges when DIIS error is below 1.0e-06
 Alpha HF Exchange    Energy =  -7.28004884469138
 Beta HF Exchange     Energy =  -7.28004884469138
 DFT Correlation      Energy =  -2.75899929432960
 DFT Exchange         Energy = -57.34865223477711
 One-Electron (alpha) Energy = -952.14471880013934
 One-Electron (beta)  Energy = -952.14471880013934
 Total Coulomb        Energy = 699.15736163947145
 ---------------------------------------
  Cycle       Energy         DIIS error
 ---------------------------------------
    1   -1038.7424685818      2.77e-02  
 Alpha HF Exchange    Energy =  -7.29536308471646
 Beta HF Exchange     Energy =  -7.29536308471646
 DFT Correlation      Energy =  -2.78241383716778
 DFT Exchange         Energy = -57.88343010049035
 One-Electron (alpha) Energy = -955.14504192064237
 One-Electron (beta)  Energy = -955.14504192064226
 Total Coulomb        Energy = 706.43674372315172
    2   -1038.0525536277      4.03e-03  
 Alpha HF Exchange    Energy =  -7.27615260862785
 Beta HF Exchange     Energy =  -7.27615260862784
 DFT Correlation      Energy =  -2.77803228729860
 DFT Exchange         Energy = -57.72133701726170
 One-Electron (alpha) Energy = -953.41712786815231
 One-Electron (beta)  Energy = -953.41712786815174
 Total Coulomb        Energy = 707.54432163932472
    3   -1033.2842520213      1.63e-02  
 Alpha HF Exchange    Energy =  -7.24962365353240
 Beta HF Exchange     Energy =  -7.24962365353240
 DFT Correlation      Energy =  -2.76425473394930
 DFT Exchange         Energy = -57.51171453264380
 One-Electron (alpha) Energy = -952.44902263143240
 One-Electron (beta)  Energy = -952.44902263143217
 Total Coulomb        Energy = 700.49795330677887
    4   -1038.1179519322      3.00e-03  
 Alpha HF Exchange    Energy =  -7.26328094617657
 Beta HF Exchange     Energy =  -7.26328094617656
 DFT Correlation      Energy =  -2.77411788404617
 DFT Exchange         Energy = -57.63464256970776
 One-Electron (alpha) Energy = -953.45979302066883
 One-Electron (beta)  Energy = -953.45979302066871
 Total Coulomb        Energy = 703.26937467223934
    5   -1037.5281771177      6.40e-03  
 Alpha HF Exchange    Energy =  -7.26269081167138
 Beta HF Exchange     Energy =  -7.26269081167137
 DFT Correlation      Energy =  -2.77222294375490
 DFT Exchange         Energy = -57.65019559231914
 One-Electron (alpha) Energy = -953.70334868199711
 One-Electron (beta)  Energy = -953.70334868199677
 Total Coulomb        Energy = 703.09710037810487
    6   -1038.2000405478      1.11e-03  
 Alpha HF Exchange    Energy =  -7.25059771733476
 Beta HF Exchange     Energy =  -7.25059771733475
 DFT Correlation      Energy =  -2.77230091092955
 DFT Exchange         Energy = -57.61763012345163
 One-Electron (alpha) Energy = -953.55408754167127
 One-Electron (beta)  Energy = -953.55408754167081
 Total Coulomb        Energy = 702.75990431068772
    7   -1038.1820406442      1.91e-03  
 Alpha HF Exchange    Energy =  -7.24928172187032
 Beta HF Exchange     Energy =  -7.24928172187032
 DFT Correlation      Energy =  -2.77203805096817
 DFT Exchange         Energy = -57.60900819746534
 One-Electron (alpha) Energy = -953.47658676438152
 One-Electron (beta)  Energy = -953.47658676438152
 Total Coulomb        Energy = 702.61080131302674
    8   -1038.1646253104      2.27e-03  
 Alpha HF Exchange    Energy =  -7.24858561823059
 Beta HF Exchange     Energy =  -7.24858561823058
 DFT Correlation      Energy =  -2.77192941222847
 DFT Exchange         Energy = -57.60457089643656
 One-Electron (alpha) Energy = -953.43851533338511
 One-Electron (beta)  Energy = -953.43851533338454
 Total Coulomb        Energy = 702.55340796478458
    9   -1038.1399376496      2.71e-03  
 Alpha HF Exchange    Energy =  -7.24965491431647
 Beta HF Exchange     Energy =  -7.24965491431647
 DFT Correlation      Energy =  -2.77187363957464
 DFT Exchange         Energy = -57.60954157223090
 One-Electron (alpha) Energy = -953.47995713891089
 One-Electron (beta)  Energy = -953.47995713891112
 Total Coulomb        Energy = 702.60595510874839
   10   -1038.1773276120      1.95e-03  
 Alpha HF Exchange    Energy =  -7.25161236170696
 Beta HF Exchange     Energy =  -7.25161236170698
 DFT Correlation      Energy =  -2.77180228629499
 DFT Exchange         Energy = -57.61451098797084
 One-Electron (alpha) Energy = -953.50003965928192
 One-Electron (beta)  Energy = -953.50003965928261
 Total Coulomb        Energy = 702.62273097454727
   11   -1038.2095297442      9.37e-04  
 Alpha HF Exchange    Energy =  -7.25468744024100
 Beta HF Exchange     Energy =  -7.25468744024101
 DFT Correlation      Energy =  -2.77202426911930
 DFT Exchange         Energy = -57.62701783405875
 One-Electron (alpha) Energy = -953.58520063307435
 One-Electron (beta)  Energy = -953.58520063307412
 Total Coulomb        Energy = 702.80247947417922
   12   -1038.2189821781      2.26e-04  
 Alpha HF Exchange    Energy =  -7.25537552246740
 Beta HF Exchange     Energy =  -7.25537552246744
 DFT Correlation      Energy =  -2.77198731047467
 DFT Exchange         Energy = -57.62816581381503
 One-Electron (alpha) Energy = -953.58136431401886
 One-Electron (beta)  Energy = -953.58136431401829
 Total Coulomb        Energy = 702.79668214979722
   13   -1038.2195940500      1.71e-05  
 Alpha HF Exchange    Energy =  -7.25549347342764
 Beta HF Exchange     Energy =  -7.25549347342778
 DFT Correlation      Energy =  -2.77199592230107
 DFT Exchange         Energy = -57.62859353427864
 One-Electron (alpha) Energy = -953.58395978796113
 One-Electron (beta)  Energy = -953.58395978796182
 Total Coulomb        Energy = 702.80253843492721
   14   -1038.2196009469      7.50e-06  
 Alpha HF Exchange    Energy =  -7.25551999073771
 Beta HF Exchange     Energy =  -7.25551999073806
 DFT Correlation      Energy =  -2.77199615196653
 DFT Exchange         Energy = -57.62865734812247
 One-Electron (alpha) Energy = -953.58403121332367
 One-Electron (beta)  Energy = -953.58403121332572
 Total Coulomb        Energy = 702.80279805477892
   15   -1038.2196012559      1.28e-05  
 Alpha HF Exchange    Energy =  -7.25550367597861
 Beta HF Exchange     Energy =  -7.25550367597957
 DFT Correlation      Energy =  -2.77199552770124
 DFT Exchange         Energy = -57.62860388833474
 One-Electron (alpha) Energy = -953.58372159498401
 One-Electron (beta)  Energy = -953.58372159499027
 Total Coulomb        Energy = 702.80209022948168
   16   -1038.2196031310      8.70e-06  
 Alpha HF Exchange    Energy =  -7.25547667133319
 Beta HF Exchange     Energy =  -7.25547667133572
 DFT Correlation      Energy =  -2.77199554335351
 DFT Exchange         Energy = -57.62853307763482
 One-Electron (alpha) Energy = -953.58347439636543
 One-Electron (beta)  Energy = -953.58347439638271
 Total Coulomb        Energy = 702.80146998424834
   17   -1038.2196041747      1.95e-06  
 Alpha HF Exchange    Energy =  -7.25546702496943
 Beta HF Exchange     Energy =  -7.25546702497567
 DFT Correlation      Energy =  -2.77199541591795
 DFT Exchange         Energy = -57.62850512793222
 One-Electron (alpha) Energy = -953.58336082448272
 One-Electron (beta)  Energy = -953.58336082452524
 Total Coulomb        Energy = 702.80119541673957
   18   -1038.2196042286      3.44e-07  Convergence criterion met
 ---------------------------------------
 SCF time:   CPU 45.59s  wall 4.00s 
<S^2> =          0.000000000
 Alpha HF Exchange    Energy =  -7.25546702496943
 Beta HF Exchange     Energy =  -7.25546702497567
 DFT Correlation      Energy =  -2.77199541591795
 DFT Exchange         Energy = -57.62850512793222
 One-Electron (alpha) Energy = -953.58336082448272
 One-Electron (beta)  Energy = -953.58336082452524
 Total Coulomb        Energy = 702.80119541673957
 Nuclear repulsion Energy = 241.05735659749874
 SCF   energy in the final basis set =    -1038.2196042286
 Total energy in the final basis set =    -1038.2196042286
 
 --------------------------------------------------------------
 
                    Orbital Energies (a.u.)
 --------------------------------------------------------------
 
 Alpha MOs
 -- Occupied --
*******-101.440 -10.355 -10.263 -10.209  -9.556  -9.353  -7.319
 -7.312  -7.308  -7.115  -7.109  -7.108  -0.966  -0.838  -0.723
 -0.684  -0.635  -0.554  -0.514  -0.489  -0.438  -0.416  -0.402
 -0.388  -0.378  -0.221  -0.219  -0.219
 -- Virtual --
 -0.181  -0.009   0.054   0.074   0.123   0.138   0.151   0.181
  0.214   0.227   0.311   0.366   0.385   0.404   0.441   0.460
  0.470   0.490   0.502   0.521   0.538   0.571   0.596   0.642
  0.656   0.667   0.735   0.765   0.775   0.796   0.805   0.829
  0.850   0.866   0.881   0.894   0.927   0.971   0.971   0.981
  0.981   1.007   1.031   1.151   1.240   1.355   1.425   1.472
  1.576   1.622   1.659   1.801   1.848   1.869   1.953   2.021
  2.029   2.049   2.077   2.116   2.209   2.230   2.317   2.373
  2.386   2.496   2.536   2.640   2.658   2.746   2.787   2.846
  2.877   3.154   3.216   3.260   3.360   3.428   3.491   4.039
  4.263   4.324   4.387   4.570
 
 Beta MOs
 -- Occupied --
*******-101.440 -10.355 -10.263 -10.209  -9.556  -9.353  -7.319
 -7.312  -7.308  -7.115  -7.109  -7.108  -0.966  -0.838  -0.723
 -0.684  -0.635  -0.554  -0.514  -0.489  -0.438  -0.416  -0.402
 -0.388  -0.378  -0.221  -0.219  -0.219
 -- Virtual --
 -0.181  -0.009   0.054   0.074   0.123   0.138   0.151   0.181
  0.214   0.227   0.311   0.366   0.385   0.404   0.441   0.460
  0.470   0.490   0.502   0.521   0.538   0.571   0.596   0.642
  0.656   0.667   0.735   0.765   0.775   0.796   0.805   0.829
  0.850   0.866   0.881   0.894   0.927   0.971   0.971   0.981
  0.981   1.007   1.031   1.151   1.240   1.355   1.425   1.472
  1.576   1.622   1.659   1.801   1.848   1.869   1.953   2.021
  2.029   2.049   2.077   2.116   2.209   2.230   2.317   2.373
  2.386   2.496   2.536   2.640   2.658   2.746   2.787   2.846
  2.877   3.154   3.216   3.260   3.360   3.428   3.491   4.039
  4.263   4.324   4.387   4.570
 --------------------------------------------------------------
 
          Ground-State Mulliken Net Atomic Charges

     Atom                 Charge (a.u.)    Spin (a.u.)
  --------------------------------------------------------
      1 Cl                   -0.515387      -0.000000
      2 Cl                    0.173348       0.000000
      3 C                    -0.236364      -0.000000
      4 C                    -0.116488       0.000000
      5 C                    -0.311492      -0.000000
      6 H                     0.183658       0.000000
      7 H                     0.173933      -0.000000
      8 H                     0.210733      -0.000000
      9 H                     0.181185       0.000000
     10 H                     0.128203       0.000000
     11 H                     0.128670      -0.000000
  --------------------------------------------------------
  Sum of atomic charges =     0.000000
  Sum of spin   charges =    -0.000000

 -----------------------------------------------------------------
                    Cartesian Multipole Moments
 -----------------------------------------------------------------
    Charge (ESU x 10^10)
                 0.0000
    Dipole Moment (Debye)
         X      -1.3461      Y       7.9819      Z       5.8639
       Tot       9.9954
    Quadrupole Moments (Debye-Ang)
        XX     -41.6612     XY       2.5102     YY     -61.2708
        XZ       1.1520     YZ     -10.3728     ZZ     -47.5414
    Octopole Moments (Debye-Ang^2)
       XXX      -3.3655    XXY      13.5536    XYY      -0.5862
       YYY      88.4182    XXZ      18.2103    XYZ      -2.9933
       YYZ      42.7948    XZZ       0.2471    YZZ      30.1646
       ZZZ      64.4001
    Hexadecapole Moments (Debye-Ang^3)
      XXXX    -269.2607   XXXY     -41.4114   XXYY    -210.3889
      XYYY     -33.0734   YYYY   -1113.0195   XXXZ       7.7769
      XXYZ     -67.8428   XYYZ      -0.1535   YYYZ    -279.2397
      XXZZ    -102.1537   XYZZ     -10.7610   YYZZ    -267.7852
      XZZZ      13.6417   YZZZ    -231.3454   ZZZZ    -374.4898
 -----------------------------------------------------------------
 Calculating analytic gradient of the SCF energy
 Gradient of SCF Energy
            1           2           3           4           5           6
    1  -0.0000972   0.0000281   0.0001343   0.0000052  -0.0000859  -0.0000068
    2  -0.0039343  -0.0000073  -0.0000237   0.0039373  -0.0000358   0.0000042
    3  -0.0028722  -0.0000193  -0.0001404   0.0028862   0.0000238   0.0000830
            7           8           9          10          11
    1  -0.0000685   0.0000144   0.0000222   0.0000078   0.0000463
    2   0.0000273  -0.0000361   0.0000416   0.0000316  -0.0000048
    3   0.0000549  -0.0000176  -0.0000114   0.0000193  -0.0000062
 Max gradient component =       3.937E-03
 RMS gradient           =       1.202E-03
 Gradient time:  CPU 9.24 s  wall 0.85 s
 Geometry Optimization Parameters
   NAtoms,    NIC,     NZ,  NCons,   NDum,   NFix, NCnnct, MaxDiis
       11      66       0       1       0       0       0       0


** CONSTRAINED OPTIMIZATION IN DELOCALIZED INTERNAL COORDINATES **
   Searching for a Minimum

   Optimization Cycle:   1

                       Coordinates (Angstroms)
     ATOM                X               Y               Z
      1  Cl        0.2629770000   -2.7857170000   -1.6082010000
      2  Cl        0.9595490000    1.9463090000   -0.0536060000
      3  C        -0.9961640000    0.2086750000    0.8216220000
      4  C         0.3341950000    0.7734800000    0.9777320000
      5  C        -1.4972740000   -0.1787190000   -0.5871950000
      6  H        -1.6840150000    1.0107450000    1.1678100000
      7  H        -1.1030880000   -0.6182860000    1.5292730000
      8  H         0.9975070000    0.5011730000    1.7927880000
      9  H        -0.9469140000   -1.0888830000   -0.9097210000
     10  H        -2.5684640000   -0.3874710000   -0.5396090000
     11  H        -1.3304110000    0.6186960000   -1.3154940000
   Point Group: c1    Number of degrees of freedom:    27


   Energy is  -1038.219604229

              Constraints and their Current Values
                                        Value     Constraint
   Distance(Angs):        1   4             4.400001     4.500000

 Attempting to Generate Delocalized Internal Coordinates

   Using Lagrange Multiplier Algorithm


 28 Hessian modes will be used to form the next step
  Hessian Eigenvalues:
    -0.997238    0.043029    0.045000    0.045029    0.049195    0.068658
     0.081545    0.085601    0.092037    0.118762    0.142081    0.160000
     0.160056    0.160118    0.189100    0.200000    0.213683    0.220016
     0.276544    0.318040    0.324006    0.343944    0.344951    0.345393
     0.353303    0.375835    0.381031    1.002770

 Minimum Search - Taking P-RFO Step
 Searching for Lamda that Maximizes Along the Constraint modes Only
 Value Taken    Lamda =   0.01854025
 Searching for Lamda that Minimizes Along All other modes
 Value Taken    Lamda =  -0.01658035
 Step Taken.  Stepsize is  0.185709

                             Maximum     Tolerance    Cnvgd?
         Gradient            0.188972       0.000300      NO
         Displacement        0.185705       0.001200      NO
         Energy change     *********       0.000001      NO


 New Cartesian Coordinates Obtained by Inverse Iteration

 Displacement from previous Coordinates is:  0.221803
 ----------------------------------------------------------------
             Standard Nuclear Orientation (Angstroms)
    I     Atom           X                Y                Z
 ----------------------------------------------------------------
    1      Cl      0.2187975042    -2.8251455534    -1.6680988509
    2      Cl      0.9651653933     1.9697618203    -0.0308784118
    3      C      -0.9882025717     0.2155936789     0.8234718035
    4      C       0.3359457991     0.7963978537     0.9974487924
    5      C      -1.4859100027    -0.1920522223    -0.5862476103
    6      H      -1.6839969352     1.0167547253     1.1554281149
    7      H      -1.0950701955    -0.6063525200     1.5369009843
    8      H       0.9889659643     0.5361366685     1.8246654318
    9      H      -0.9474321728    -1.1099861220    -0.9251985582
   10      H      -2.5565154851    -0.4022768431    -0.5319070363
   11      H      -1.3238492978     0.6011705141    -1.3201856593
 ----------------------------------------------------------------
 Nuclear Repulsion Energy =   239.5191449273 hartrees
 There are       29 alpha and       29 beta electrons

                       Distance Matrix (Angstroms)
             Cl(  1)   Cl(  2)   C (  3)   C (  4)   C (  5)   H (  6)
   Cl(  2)  5.121396
   C (  3)  4.112283  2.760918
   C (  4)  4.498271  1.682307  1.456355
   C (  5)  3.318073  3.315063  1.549580  2.608503
   H (  6)  5.133530  3.055095  1.111838  2.038059  2.129293
   H (  7)  4.113553  3.652242  1.093617  2.075217  2.198218  1.768285
   H (  8)  4.908236  2.344971  2.239270  1.085568  3.530973  2.797070
   H (  9)  2.203126  3.733991  2.194692  2.996320  1.116892  3.065055
   H ( 10)  3.855332  4.275492  2.162966  3.484549  1.092403  2.371084
   H ( 11)  3.773651  2.962253  2.203768  2.857352  1.092763  2.535957
             H (  7)   H (  8)   H (  9)   H ( 10)
   H (  8)  2.394013
   H (  9)  2.517415  3.744477
   H ( 10)  2.541149  4.359414  1.801299
   H ( 11)  3.110208  3.904284  1.796041  1.774192
 
 Applying Cartesian multipole field
    Component          Value
    ---------          -----
     (2,0,0)        1.00000E-11
     (0,2,0)        2.00000E-11
     (0,0,2)       -3.00000E-11
 Nucleus-field energy     =     0.0000000093 hartrees
 Requested basis set is 6-31G(d,p)
 There are 40 shells and 113 basis functions
 A cutoff of  1.0D-14 yielded    757 shell pairs
 There are      6130 function pairs
 Smallest overlap matrix eigenvalue = 5.39E-03
 Guess from superposition of atomic densities
 Warning:  Energy on first SCF cycle will be non-variational
 SAD guess density has 58.000000 electrons

 -----------------------------------------------------------------------
  General SCF calculation program by
  Eric Jon Sundstrom, Paul Horn, Yuezhi Mao, Dmitri Zuev, Alec White,
  David Stuck, Shaama M.S., Shane Yost, Joonho Lee, David Small,
  Daniel Levine, Susi Lehtola, Hugh Burton, Evgeny Epifanovsky
 -----------------------------------------------------------------------
 Exchange:     0.2000 Hartree-Fock + 0.0800 Slater + 0.7200 B88
 Correlation:  0.1900 VWN1RPA + 0.8100 LYP
 Using SG-1 standard quadrature grid
 using 12 threads for integral computing
 -------------------------------------------------------
 OpenMP Integral computing Module                
 Release: version 1.0, May 2013, Q-Chem Inc. Pittsburgh 
 -------------------------------------------------------
 -------------------------------------------------------
 OpenMP BLAS3 based DFT computing Module                
 Release: version 1.0, May 2013, Q-Chem Inc. Pittsburgh 
 -------------------------------------------------------
 A unrestricted SCF calculation will be
 performed using DIIS
 SCF converges when DIIS error is below 1.0e-06
 Alpha HF Exchange    Energy =  -7.27866319458859
 Beta HF Exchange     Energy =  -7.27866319458859
 DFT Correlation      Energy =  -2.75854268645034
 DFT Exchange         Energy = -57.34603116628682
 One-Electron (alpha) Energy = -950.61227498176220
 One-Electron (beta)  Energy = -950.61227498176220
 Total Coulomb        Energy = 697.63640348944034
 ---------------------------------------
  Cycle       Energy         DIIS error
 ---------------------------------------
    1   -1038.7309017794      2.76e-02  
 Alpha HF Exchange    Energy =  -7.29466276809652
 Beta HF Exchange     Energy =  -7.29466276809653
 DFT Correlation      Energy =  -2.78190697153035
 DFT Exchange         Energy = -57.87831690013826
 One-Electron (alpha) Energy = -953.59129162783870
 One-Electron (beta)  Energy = -953.59129162783904
 Total Coulomb        Energy = 704.86204119193894
    2   -1038.0509465350      4.02e-03  
 Alpha HF Exchange    Energy =  -7.27250570624738
 Beta HF Exchange     Energy =  -7.27250570624739
 DFT Correlation      Energy =  -2.77772183759252
 DFT Exchange         Energy = -57.71222128684514
 One-Electron (alpha) Energy = -951.76636554514096
 One-Electron (beta)  Energy = -951.76636554514153
 Total Coulomb        Energy = 706.06704356567025
    3   -1032.9814971249      1.77e-02  
 Alpha HF Exchange    Energy =  -7.24618607699999
 Beta HF Exchange     Energy =  -7.24618607700000
 DFT Correlation      Energy =  -2.76362438750609
 DFT Exchange         Energy = -57.49499999216999
 One-Electron (alpha) Energy = -950.88906406496119
 One-Electron (beta)  Energy = -950.88906406496142
 Total Coulomb        Energy = 698.87703183399901
    4   -1038.1329478930      2.83e-03  
 Alpha HF Exchange    Energy =  -7.26844169004071
 Beta HF Exchange     Energy =  -7.26844169004071
 DFT Correlation      Energy =  -2.77551299568197
 DFT Exchange         Energy = -57.65793642189940
 One-Electron (alpha) Energy = -952.07672891375330
 One-Electron (beta)  Energy = -952.07672891375307
 Total Coulomb        Energy = 702.23183264043951
    5   -1037.3728130481      6.68e-03  
 Alpha HF Exchange    Energy =  -7.26028769383405
 Beta HF Exchange     Energy =  -7.26028769383406
 DFT Correlation      Energy =  -2.77162934679339
 DFT Exchange         Energy = -57.64050268530634
 One-Electron (alpha) Energy = -952.13922290870528
 One-Electron (beta)  Energy = -952.13922290870619
 Total Coulomb        Energy = 701.48618206286335
    6   -1038.2058262377      9.54e-04  
 Alpha HF Exchange    Energy =  -7.25170692868949
 Beta HF Exchange     Energy =  -7.25170692868948
 DFT Correlation      Energy =  -2.77177237891774
 DFT Exchange         Energy = -57.61752661858637
 One-Electron (alpha) Energy = -952.02792554031737
 One-Electron (beta)  Energy = -952.02792554031726
 Total Coulomb        Energy = 701.22169744901771
    7   -1038.2077215499      1.06e-03  
 Alpha HF Exchange    Energy =  -7.25024616036964
 Beta HF Exchange     Energy =  -7.25024616036962
 DFT Correlation      Energy =  -2.77152890073779
 DFT Exchange         Energy = -57.61091695651883
 One-Electron (alpha) Energy = -951.97910919505853
 One-Electron (beta)  Energy = -951.97910919505819
 Total Coulomb        Energy = 701.12400126343027
    8   -1038.1980103681      1.36e-03  
 Alpha HF Exchange    Energy =  -7.24972770446700
 Beta HF Exchange     Energy =  -7.24972770446700
 DFT Correlation      Energy =  -2.77150022516383
 DFT Exchange         Energy = -57.60898131476055
 One-Electron (alpha) Energy = -951.96721978999562
 One-Electron (beta)  Energy = -951.96721978999597
 Total Coulomb        Energy = 701.10418898207445
    9   -1038.1910426102      1.57e-03  
 Alpha HF Exchange    Energy =  -7.25313028595571
 Beta HF Exchange     Energy =  -7.25313028595554
 DFT Correlation      Energy =  -2.77154451788116
 DFT Exchange         Energy = -57.62029320029558
 One-Electron (alpha) Energy = -952.03086876918042
 One-Electron (beta)  Energy = -952.03086876917973
 Total Coulomb        Energy = 701.22433097278793
   10   -1038.2163599190      4.34e-04  
 Alpha HF Exchange    Energy =  -7.25439369039214
 Beta HF Exchange     Energy =  -7.25439369039154
 DFT Correlation      Energy =  -2.77149787619573
 DFT Exchange         Energy = -57.62260396369526
 One-Electron (alpha) Energy = -952.02964412057736
 One-Electron (beta)  Energy = -952.02964412057463
 Total Coulomb        Energy = 701.22445210726983
   11   -1038.2185804179      5.33e-05  
 Alpha HF Exchange    Energy =  -7.25490324567078
 Beta HF Exchange     Energy =  -7.25490324566922
 DFT Correlation      Energy =  -2.77155493751726
 DFT Exchange         Energy = -57.62503094200000
 One-Electron (alpha) Energy = -952.04709404548794
 One-Electron (beta)  Energy = -952.04709404547896
 Total Coulomb        Energy = 701.26283164251913
   12   -1038.2186038827      2.96e-05  
 Alpha HF Exchange    Energy =  -7.25480980828197
 Beta HF Exchange     Energy =  -7.25480980827873
 DFT Correlation      Energy =  -2.77154783571908
 DFT Exchange         Energy = -57.62468398228624
 One-Electron (alpha) Energy = -952.04466945219258
 One-Electron (beta)  Energy = -952.04466945217189
 Total Coulomb        Energy = 701.25743206474988
   13   -1038.2186133376      1.20e-05  
 Alpha HF Exchange    Energy =  -7.25477580434744
 Beta HF Exchange     Energy =  -7.25477580434112
 DFT Correlation      Energy =  -2.77154629186007
 DFT Exchange         Energy = -57.62456577304066
 One-Electron (alpha) Energy = -952.04407559370384
 One-Electron (beta)  Energy = -952.04407559366348
 Total Coulomb        Energy = 701.25605491877434
   14   -1038.2186150056      4.97e-06  
 Alpha HF Exchange    Energy =  -7.25476588087981
 Beta HF Exchange     Energy =  -7.25476588085923
 DFT Correlation      Energy =  -2.77154720102331
 DFT Exchange         Energy = -57.62455423571067
 One-Electron (alpha) Energy = -952.04420815263063
 One-Electron (beta)  Energy = -952.04420815249921
 Total Coulomb        Energy = 701.25628898305195
   15   -1038.2186155839      1.76e-06  
 Alpha HF Exchange    Energy =  -7.25475913773223
 Beta HF Exchange     Energy =  -7.25475913765289
 DFT Correlation      Energy =  -2.77154623808994
 DFT Exchange         Energy = -57.62452306493295
 One-Electron (alpha) Energy = -952.04392001018596
 One-Electron (beta)  Energy = -952.04392000967687
 Total Coulomb        Energy = 701.25566689732773
   16   -1038.2186157643      4.88e-07  Convergence criterion met
 ---------------------------------------
 SCF time:   CPU 39.38s  wall 4.00s 
<S^2> =         -0.000000000
 Alpha HF Exchange    Energy =  -7.25475913773223
 Beta HF Exchange     Energy =  -7.25475913765289
 DFT Correlation      Energy =  -2.77154623808994
 DFT Exchange         Energy = -57.62452306493295
 One-Electron (alpha) Energy = -952.04392001018596
 One-Electron (beta)  Energy = -952.04392000967687
 Total Coulomb        Energy = 701.25566689732773
 Nuclear repulsion Energy = 239.51914493662173
 SCF   energy in the final basis set =    -1038.2186157643
 Total energy in the final basis set =    -1038.2186157643
 
 --------------------------------------------------------------
 
                    Orbital Energies (a.u.)
 --------------------------------------------------------------
 
 Alpha MOs
 -- Occupied --
*******-101.440 -10.355 -10.264 -10.210  -9.556  -9.353  -7.319
 -7.312  -7.309  -7.115  -7.108  -7.108  -0.966  -0.837  -0.723
 -0.684  -0.636  -0.554  -0.513  -0.489  -0.439  -0.416  -0.401
 -0.389  -0.378  -0.221  -0.219  -0.219
 -- Virtual --
 -0.182  -0.009   0.053   0.073   0.123   0.138   0.151   0.179
  0.212   0.227   0.310   0.365   0.385   0.402   0.441   0.461
  0.470   0.491   0.502   0.522   0.534   0.568   0.595   0.642
  0.656   0.666   0.735   0.764   0.775   0.795   0.805   0.829
  0.850   0.865   0.882   0.893   0.925   0.971   0.971   0.981
  0.981   1.006   1.030   1.147   1.239   1.354   1.423   1.472
  1.575   1.617   1.659   1.793   1.845   1.870   1.952   2.020
  2.030   2.049   2.078   2.115   2.204   2.228   2.318   2.368
  2.384   2.494   2.533   2.636   2.665   2.742   2.783   2.846
  2.868   3.148   3.216   3.260   3.359   3.428   3.487   4.037
  4.261   4.323   4.384   4.568
 
 Beta MOs
 -- Occupied --
*******-101.440 -10.355 -10.264 -10.210  -9.556  -9.353  -7.319
 -7.312  -7.309  -7.115  -7.108  -7.108  -0.966  -0.837  -0.723
 -0.684  -0.636  -0.554  -0.513  -0.489  -0.439  -0.416  -0.401
 -0.389  -0.378  -0.221  -0.219  -0.219
 -- Virtual --
 -0.182  -0.009   0.053   0.073   0.123   0.138   0.151   0.179
  0.212   0.227   0.310   0.365   0.385   0.402   0.441   0.461
  0.470   0.491   0.502   0.522   0.534   0.568   0.595   0.642
  0.656   0.666   0.735   0.764   0.775   0.795   0.805   0.829
  0.850   0.865   0.882   0.893   0.925   0.971   0.971   0.981
  0.981   1.006   1.030   1.147   1.239   1.354   1.423   1.472
  1.575   1.617   1.659   1.793   1.845   1.870   1.952   2.020
  2.030   2.049   2.078   2.115   2.204   2.228   2.318   2.368
  2.384   2.494   2.533   2.636   2.665   2.742   2.783   2.846
  2.868   3.148   3.216   3.260   3.359   3.428   3.487   4.037
  4.261   4.323   4.384   4.568
 --------------------------------------------------------------
 
          Ground-State Mulliken Net Atomic Charges

     Atom                 Charge (a.u.)    Spin (a.u.)
  --------------------------------------------------------
      1 Cl                   -0.512360       0.000000
      2 Cl                    0.173101      -0.000000
      3 C                    -0.236080       0.000000
      4 C                    -0.118877      -0.000000
      5 C                    -0.312463       0.000000
      6 H                     0.184326      -0.000000
      7 H                     0.173080       0.000000
      8 H                     0.210208       0.000000
      9 H                     0.181447      -0.000000
     10 H                     0.128818      -0.000000
     11 H                     0.128802       0.000000
  --------------------------------------------------------
  Sum of atomic charges =     0.000000
  Sum of spin   charges =     0.000000

 -----------------------------------------------------------------
                    Cartesian Multipole Moments
 -----------------------------------------------------------------
    Charge (ESU x 10^10)
                -0.0000
    Dipole Moment (Debye)
         X      -1.2370      Y       8.0733      Z       6.0070
       Tot      10.1387
    Quadrupole Moments (Debye-Ang)
        XX     -41.6302     XY       2.2421     YY     -61.6572
        XZ       1.0355     YZ     -10.7785     ZZ     -47.9174
    Octopole Moments (Debye-Ang^2)
       XXX      -1.9509    XXY      13.6402    XYY       0.6875
       YYY      91.0219    XXZ      18.5545    XYZ      -2.5626
       YYZ      45.0786    XZZ       0.9780    YZZ      31.8663
       ZZZ      67.0584
    Hexadecapole Moments (Debye-Ang^3)
      XXXX    -266.6276   XXXY     -47.9401   XXYY    -213.9444
      XYYY     -41.6363   YYYY   -1146.2430   XXXZ       4.2795
      XXYZ     -71.7312   XYYZ      -2.3791   YYYZ    -297.4261
      XXZZ    -104.6828   XYZZ     -13.4752   YYZZ    -279.7734
      XZZZ      10.2488   YZZZ    -246.8029   ZZZZ    -394.6290
 -----------------------------------------------------------------
 Calculating analytic gradient of the SCF energy
 Gradient of SCF Energy
            1           2           3           4           5           6
    1   0.0002881   0.0000765  -0.0011461   0.0016196  -0.0014551   0.0003378
    2  -0.0039508   0.0000474   0.0016838   0.0043663   0.0006188   0.0003162
    3  -0.0026567   0.0001619   0.0010780   0.0040014   0.0004955   0.0002012
            7           8           9          10          11
    1   0.0001060   0.0001367  -0.0004582   0.0002248   0.0002699
    2  -0.0001507   0.0000159  -0.0022186  -0.0004645  -0.0002639
    3  -0.0002479  -0.0000641  -0.0030363   0.0000350   0.0000322
 Max gradient component =       4.366E-03
 RMS gradient           =       1.592E-03
 Gradient time:  CPU 8.98 s  wall 0.85 s
 Geometry Optimization Parameters
   NAtoms,    NIC,     NZ,  NCons,   NDum,   NFix, NCnnct, MaxDiis
       11      66       0       1       0       0       0       0

 Cartesian Hessian Update
 Hessian Updated using BFGS Update


** CONSTRAINED OPTIMIZATION IN DELOCALIZED INTERNAL COORDINATES **
   Searching for a Minimum

   Optimization Cycle:   2

                       Coordinates (Angstroms)
     ATOM                X               Y               Z
      1  Cl        0.2187975042   -2.8251455534   -1.6680988509
      2  Cl        0.9651653933    1.9697618203   -0.0308784118
      3  C        -0.9882025717    0.2155936789    0.8234718035
      4  C         0.3359457991    0.7963978537    0.9974487924
      5  C        -1.4859100027   -0.1920522223   -0.5862476103
      6  H        -1.6839969352    1.0167547253    1.1554281149
      7  H        -1.0950701955   -0.6063525200    1.5369009843
      8  H         0.9889659643    0.5361366685    1.8246654318
      9  H        -0.9474321728   -1.1099861220   -0.9251985582
     10  H        -2.5565154851   -0.4022768431   -0.5319070363
     11  H        -1.3238492978    0.6011705141   -1.3201856593
   Point Group: c1    Number of degrees of freedom:    27


   Energy is  -1038.218615764

              Constraints and their Current Values
                                        Value     Constraint
   Distance(Angs):        1   4             4.498271     4.500000
 Hessian Updated using BFGS Update

   Using Lagrange Multiplier Algorithm


 28 Hessian modes will be used to form the next step
  Hessian Eigenvalues:
    -0.997647    0.043045    0.045017    0.045100    0.050202    0.071280
     0.081526    0.085597    0.096804    0.119008    0.142505    0.160023
     0.160095    0.160289    0.193220    0.200050    0.219896    0.229810
     0.299968    0.323997    0.343440    0.344225    0.345286    0.350096
     0.353326    0.381021    0.411536    1.003069

 Minimum Search - Taking P-RFO Step
 Searching for Lamda that Maximizes Along the Constraint modes Only
 Value Taken    Lamda =   0.00000576
 Searching for Lamda that Minimizes Along All other modes
 Value Taken    Lamda =  -0.00007419
 Step Taken.  Stepsize is  0.018293

                             Maximum     Tolerance    Cnvgd?
         Gradient            0.003267       0.000300      NO
         Displacement        0.006337       0.001200      NO
         Energy change      0.000988       0.000001      NO


 New Cartesian Coordinates Obtained by Inverse Iteration

 Displacement from previous Coordinates is:  0.028348
 ----------------------------------------------------------------
             Standard Nuclear Orientation (Angstroms)
    I     Atom           X                Y                Z
 ----------------------------------------------------------------
    1      Cl      0.2148725133    -2.8289883460    -1.6670603835
    2      Cl      0.9593756752     1.9701448577    -0.0338609416
    3      C      -0.9875226787     0.2127440873     0.8234928841
    4      C       0.3340944613     0.7962500959     0.9962893244
    5      C      -1.4822750565    -0.1899700899    -0.5855252800
    6      H      -1.6855495085     1.0123142952     1.1542595140
    7      H      -1.0945732589    -0.6093477082     1.5367935258
    8      H       0.9880498291     0.5376936048     1.8232755818
    9      H      -0.9454644843    -1.1071777151    -0.9220401295
   10      H      -2.5534051095    -0.3985145274    -0.5323518541
   11      H      -1.3197043825     0.6048534458    -1.3178732413
 ----------------------------------------------------------------
 Nuclear Repulsion Energy =   239.6483899985 hartrees
 There are       29 alpha and       29 beta electrons

                       Distance Matrix (Angstroms)
             Cl(  1)   Cl(  2)   C (  3)   C (  4)   C (  5)   H (  6)
   Cl(  2)  5.123798
   C (  3)  4.111052  2.759334
   C (  4)  4.500000  1.682324  1.454995
   C (  5)  3.318802  3.306371  1.546703  2.602684
   H (  6)  5.130990  3.053637  1.111738  2.037302  2.124537
   H (  7)  4.111707  3.652320  1.093660  2.075799  2.197823  1.767872
   H (  8)  4.910682  2.345569  2.237866  1.085548  3.526233  2.796602
   H (  9)  2.205917  3.726552  2.188801  2.990033  1.114755  3.057939
   H ( 10)  3.854624  4.265990  2.159616  3.478773  1.092537  2.363952
   H ( 11)  3.777317  2.950748  2.202168  2.850795  1.092935  2.532056
             H (  7)   H (  8)   H (  9)   H ( 10)
   H (  8)  2.394806
   H (  9)  2.513152  3.739096
   H ( 10)  2.540473  4.355154  1.799870
   H ( 11)  3.110320  3.898340  1.796605  1.773643
 
 Applying Cartesian multipole field
    Component          Value
    ---------          -----
     (2,0,0)        1.00000E-11
     (0,2,0)        2.00000E-11
     (0,0,2)       -3.00000E-11
 Nucleus-field energy     =     0.0000000094 hartrees
 Requested basis set is 6-31G(d,p)
 There are 40 shells and 113 basis functions
 A cutoff of  1.0D-14 yielded    757 shell pairs
 There are      6130 function pairs
 Smallest overlap matrix eigenvalue = 5.35E-03
 Guess from superposition of atomic densities
 Warning:  Energy on first SCF cycle will be non-variational
 SAD guess density has 58.000000 electrons

 -----------------------------------------------------------------------
  General SCF calculation program by
  Eric Jon Sundstrom, Paul Horn, Yuezhi Mao, Dmitri Zuev, Alec White,
  David Stuck, Shaama M.S., Shane Yost, Joonho Lee, David Small,
  Daniel Levine, Susi Lehtola, Hugh Burton, Evgeny Epifanovsky
 -----------------------------------------------------------------------
 Exchange:     0.2000 Hartree-Fock + 0.0800 Slater + 0.7200 B88
 Correlation:  0.1900 VWN1RPA + 0.8100 LYP
 Using SG-1 standard quadrature grid
 using 12 threads for integral computing
 -------------------------------------------------------
 OpenMP Integral computing Module                
 Release: version 1.0, May 2013, Q-Chem Inc. Pittsburgh 
 -------------------------------------------------------
 -------------------------------------------------------
 OpenMP BLAS3 based DFT computing Module                
 Release: version 1.0, May 2013, Q-Chem Inc. Pittsburgh 
 -------------------------------------------------------
 A unrestricted SCF calculation will be
 performed using DIIS
 SCF converges when DIIS error is below 1.0e-06
 Alpha HF Exchange    Energy =  -7.27928270715333
 Beta HF Exchange     Energy =  -7.27928270715333
 DFT Correlation      Energy =  -2.75869652124485
 DFT Exchange         Energy = -57.34721515749567
 One-Electron (alpha) Energy = -950.73888986740656
 One-Electron (beta)  Energy = -950.73888986740656
 Total Coulomb        Energy = 697.75763987037851
 ---------------------------------------
  Cycle       Energy         DIIS error
 ---------------------------------------
    1   -1038.7362269496      2.77e-02  
 Alpha HF Exchange    Energy =  -7.29497406519340
 Beta HF Exchange     Energy =  -7.29497406519340
 DFT Correlation      Energy =  -2.78209243575695
 DFT Exchange         Energy = -57.88057450730228
 One-Electron (alpha) Energy = -953.72275584320539
 One-Electron (beta)  Energy = -953.72275584320539
 Total Coulomb        Energy = 704.99897908286482
    2   -1038.0507576691      4.03e-03  
 Alpha HF Exchange    Energy =  -7.27257641758993
 Beta HF Exchange     Energy =  -7.27257641758992
 DFT Correlation      Energy =  -2.77785340669638
 DFT Exchange         Energy = -57.71310040675350
 One-Electron (alpha) Energy = -951.88944778955215
 One-Electron (beta)  Energy = -951.88944778955181
 Total Coulomb        Energy = 706.19249492361450
    3   -1032.9741172963      1.78e-02  
 Alpha HF Exchange    Energy =  -7.24634184454915
 Beta HF Exchange     Energy =  -7.24634184454915
 DFT Correlation      Energy =  -2.76375835532675
 DFT Exchange         Energy = -57.49622380908197
 One-Electron (alpha) Energy = -951.01143411241560
 One-Electron (beta)  Energy = -951.01143411241560
 Total Coulomb        Energy = 698.99425779148805
    4   -1038.1328862790      2.83e-03  
 Alpha HF Exchange    Energy =  -7.26868606959497
 Beta HF Exchange     Energy =  -7.26868606959497
 DFT Correlation      Energy =  -2.77566606475958
 DFT Exchange         Energy = -57.65963580568480
 One-Electron (alpha) Energy = -952.20642038112248
 One-Electron (beta)  Energy = -952.20642038112214
 Total Coulomb        Energy = 702.36468491107610
    5   -1037.3724398530      6.68e-03  
 Alpha HF Exchange    Energy =  -7.26035875516712
 Beta HF Exchange     Energy =  -7.26035875516713
 DFT Correlation      Energy =  -2.77178377670269
 DFT Exchange         Energy = -57.64173951385045
 One-Electron (alpha) Energy = -952.26392340200766
 One-Electron (beta)  Energy = -952.26392340200778
 Total Coulomb        Energy = 701.60717917735974
    6   -1038.2065184197      9.33e-04  
 Alpha HF Exchange    Energy =  -7.25191090870984
 Beta HF Exchange     Energy =  -7.25191090870985
 DFT Correlation      Energy =  -2.77193151352145
 DFT Exchange         Energy = -57.61916485565349
 One-Electron (alpha) Energy = -952.15407445855703
 One-Electron (beta)  Energy = -952.15407445855703
 Total Coulomb        Energy = 701.34718489556610
    7   -1038.2074922003      1.07e-03  
 Alpha HF Exchange    Energy =  -7.25055856524831
 Beta HF Exchange     Energy =  -7.25055856524832
 DFT Correlation      Energy =  -2.77169186466065
 DFT Exchange         Energy = -57.61293986362218
 One-Electron (alpha) Energy = -952.10796845289917
 One-Electron (beta)  Energy = -952.10796845289906
 Total Coulomb        Energy = 701.25453752616977
    8   -1038.1987582306      1.34e-03  
 Alpha HF Exchange    Energy =  -7.25001859697195
 Beta HF Exchange     Energy =  -7.25001859697195
 DFT Correlation      Energy =  -2.77166269762669
 DFT Exchange         Energy = -57.61093980418211
 One-Electron (alpha) Energy = -952.09580830830726
 One-Electron (beta)  Energy = -952.09580830830714
 Total Coulomb        Energy = 701.23419611090753
    9   -1038.1916701936      1.56e-03  
 Alpha HF Exchange    Energy =  -7.25343290372104
 Beta HF Exchange     Energy =  -7.25343290372118
 DFT Correlation      Energy =  -2.77170487371307
 DFT Exchange         Energy = -57.62223080738477
 One-Electron (alpha) Energy = -952.15872679887343
 One-Electron (beta)  Energy = -952.15872679887445
 Total Coulomb        Energy = 701.35332186588175
   10   -1038.2165432126      4.19e-04  
 Alpha HF Exchange    Energy =  -7.25468379414720
 Beta HF Exchange     Energy =  -7.25468379414762
 DFT Correlation      Energy =  -2.77165795473748
 DFT Exchange         Energy = -57.62450065061863
 One-Electron (alpha) Energy = -952.15720900324095
 One-Electron (beta)  Energy = -952.15720900324357
 Total Coulomb        Energy = 701.35292790594838
   11   -1038.2186262863      4.46e-05  
 Alpha HF Exchange    Energy =  -7.25515267073824
 Beta HF Exchange     Energy =  -7.25515267073930
 DFT Correlation      Energy =  -2.77171394019225
 DFT Exchange         Energy = -57.62680123857537
 One-Electron (alpha) Energy = -952.17406123491583
 One-Electron (beta)  Energy = -952.17406123492231
 Total Coulomb        Energy = 701.38991350102731
   12   -1038.2186394812      3.00e-05  
 Alpha HF Exchange    Energy =  -7.25505917746719
 Beta HF Exchange     Energy =  -7.25505917746935
 DFT Correlation      Energy =  -2.77170727428967
 DFT Exchange         Energy = -57.62646121818468
 One-Electron (alpha) Energy = -952.17175134581771
 One-Electron (beta)  Energy = -952.17175134583135
 Total Coulomb        Energy = 701.38475030278494
   13   -1038.2186492284      1.21e-05  
 Alpha HF Exchange    Energy =  -7.25502572493517
 Beta HF Exchange     Energy =  -7.25502572493945
 DFT Correlation      Energy =  -2.77170582513312
 DFT Exchange         Energy = -57.62634656496711
 One-Electron (alpha) Energy = -952.17118533804012
 One-Electron (beta)  Energy = -952.17118533806706
 Total Coulomb        Energy = 701.38343357677434
   14   -1038.2186509315      5.08e-06  
 Alpha HF Exchange    Energy =  -7.25501440168304
 Beta HF Exchange     Energy =  -7.25501440169812
 DFT Correlation      Energy =  -2.77170675624528
 DFT Exchange         Energy = -57.62633197404153
 One-Electron (alpha) Energy = -952.17131282891421
 One-Electron (beta)  Energy = -952.17131282900937
 Total Coulomb        Energy = 701.38365158201293
   15   -1038.2186516017      1.50e-06  
 Alpha HF Exchange    Energy =  -7.25500865263912
 Beta HF Exchange     Energy =  -7.25500865269332
 DFT Correlation      Energy =  -2.77170573928935
 DFT Exchange         Energy = -57.62630266345235
 One-Electron (alpha) Energy = -952.17101987822332
 One-Electron (beta)  Energy = -952.17101987856847
 Total Coulomb        Energy = 701.38302369759583
   16   -1038.2186517594      4.72e-07  Convergence criterion met
 ---------------------------------------
 SCF time:   CPU 39.19s  wall 3.00s 
<S^2> =         -0.000000000
 Alpha HF Exchange    Energy =  -7.25500865263912
 Beta HF Exchange     Energy =  -7.25500865269332
 DFT Correlation      Energy =  -2.77170573928935
 DFT Exchange         Energy = -57.62630266345235
 One-Electron (alpha) Energy = -952.17101987822332
 One-Electron (beta)  Energy = -952.17101987856847
 Total Coulomb        Energy = 701.38302369759583
 Nuclear repulsion Energy = 239.64839000785025
 SCF   energy in the final basis set =    -1038.2186517594
 Total energy in the final basis set =    -1038.2186517594
 
 --------------------------------------------------------------
 
                    Orbital Energies (a.u.)
 --------------------------------------------------------------
 
 Alpha MOs
 -- Occupied --
*******-101.440 -10.355 -10.264 -10.210  -9.556  -9.353  -7.319
 -7.312  -7.309  -7.115  -7.108  -7.108  -0.966  -0.838  -0.723
 -0.684  -0.636  -0.554  -0.514  -0.489  -0.439  -0.416  -0.402
 -0.389  -0.378  -0.221  -0.219  -0.219
 -- Virtual --
 -0.182  -0.010   0.053   0.073   0.123   0.138   0.150   0.180
  0.213   0.227   0.310   0.365   0.385   0.403   0.441   0.460
  0.470   0.491   0.502   0.522   0.534   0.568   0.596   0.642
  0.656   0.667   0.735   0.764   0.775   0.795   0.805   0.829
  0.850   0.865   0.882   0.894   0.925   0.971   0.971   0.981
  0.981   1.006   1.030   1.148   1.238   1.354   1.423   1.472
  1.576   1.618   1.660   1.796   1.846   1.870   1.952   2.021
  2.029   2.049   2.078   2.116   2.205   2.228   2.318   2.369
  2.385   2.495   2.534   2.636   2.665   2.743   2.785   2.847
  2.870   3.150   3.216   3.260   3.360   3.429   3.488   4.037
  4.262   4.323   4.385   4.569
 
 Beta MOs
 -- Occupied --
*******-101.440 -10.355 -10.264 -10.210  -9.556  -9.353  -7.319
 -7.312  -7.309  -7.115  -7.108  -7.108  -0.966  -0.838  -0.723
 -0.684  -0.636  -0.554  -0.514  -0.489  -0.439  -0.416  -0.402
 -0.389  -0.378  -0.221  -0.219  -0.219
 -- Virtual --
 -0.182  -0.010   0.053   0.073   0.123   0.138   0.150   0.180
  0.213   0.227   0.310   0.365   0.385   0.403   0.441   0.460
  0.470   0.491   0.502   0.522   0.534   0.568   0.596   0.642
  0.656   0.667   0.735   0.764   0.775   0.795   0.805   0.829
  0.850   0.865   0.882   0.894   0.925   0.971   0.971   0.981
  0.981   1.006   1.030   1.148   1.238   1.354   1.423   1.472
  1.576   1.618   1.660   1.796   1.846   1.870   1.952   2.021
  2.029   2.049   2.078   2.116   2.205   2.228   2.318   2.369
  2.385   2.495   2.534   2.636   2.665   2.743   2.785   2.847
  2.870   3.150   3.216   3.260   3.360   3.429   3.488   4.037
  4.262   4.323   4.385   4.569
 --------------------------------------------------------------
 
          Ground-State Mulliken Net Atomic Charges

     Atom                 Charge (a.u.)    Spin (a.u.)
  --------------------------------------------------------
      1 Cl                   -0.512675      -0.000000
      2 Cl                    0.172847       0.000000
      3 C                    -0.236102      -0.000000
      4 C                    -0.118646       0.000000
      5 C                    -0.312543      -0.000000
      6 H                     0.184599       0.000000
      7 H                     0.173307      -0.000000
      8 H                     0.210093      -0.000000
      9 H                     0.181646       0.000000
     10 H                     0.128678       0.000000
     11 H                     0.128796      -0.000000
  --------------------------------------------------------
  Sum of atomic charges =    -0.000000
  Sum of spin   charges =     0.000000

 -----------------------------------------------------------------
                    Cartesian Multipole Moments
 -----------------------------------------------------------------
    Charge (ESU x 10^10)
                -0.0000
    Dipole Moment (Debye)
         X      -1.2354      Y       8.0855      Z       6.0079
       Tot      10.1487
    Quadrupole Moments (Debye-Ang)
        XX     -41.6323     XY       2.2063     YY     -61.7181
        XZ       1.0084     YZ     -10.8123     ZZ     -47.9192
    Octopole Moments (Debye-Ang^2)
       XXX      -1.6621    XXY      13.6932    XYY       0.8309
       YYY      91.3789    XXZ      18.5982    XYZ      -2.5066
       YYZ      45.1677    XZZ       1.1004    YZZ      31.9399
       ZZZ      67.1136
    Hexadecapole Moments (Debye-Ang^3)
      XXXX    -265.1696   XXXY     -48.0135   XXYY    -214.0971
      XYYY     -41.7954   YYYY   -1148.7701   XXXZ       4.1802
      XXYZ     -71.6939   XYYZ      -2.4727   YYYZ    -297.6158
      XXZZ    -104.3751   XYZZ     -13.5027   YYZZ    -280.1013
      XZZZ      10.0992   YZZZ    -246.6862   ZZZZ    -394.1726
 -----------------------------------------------------------------
 Calculating analytic gradient of the SCF energy
 Gradient of SCF Energy
            1           2           3           4           5           6
    1   0.0002843  -0.0000255  -0.0008450   0.0009336  -0.0000951   0.0002951
    2  -0.0039740   0.0000353   0.0011265   0.0041384   0.0004212   0.0001522
    3  -0.0026731   0.0000929   0.0004509   0.0035300   0.0009014  -0.0000735
            7           8           9          10          11
    1   0.0000051   0.0000434  -0.0008806   0.0001619   0.0001228
    2  -0.0001099  -0.0000646  -0.0013508  -0.0003223  -0.0000520
    3  -0.0001261  -0.0000395  -0.0022606   0.0002237  -0.0000261
 Max gradient component =       4.138E-03
 RMS gradient           =       1.401E-03
 Gradient time:  CPU 9.17 s  wall 0.84 s
 Geometry Optimization Parameters
   NAtoms,    NIC,     NZ,  NCons,   NDum,   NFix, NCnnct, MaxDiis
       11      66       0       1       0       0       0       0

 Cartesian Hessian Update
 Hessian Updated using BFGS Update


** CONSTRAINED OPTIMIZATION IN DELOCALIZED INTERNAL COORDINATES **
   Searching for a Minimum

   Optimization Cycle:   3

                       Coordinates (Angstroms)
     ATOM                X               Y               Z
      1  Cl        0.2148725133   -2.8289883460   -1.6670603835
      2  Cl        0.9593756752    1.9701448577   -0.0338609416
      3  C        -0.9875226787    0.2127440873    0.8234928841
      4  C         0.3340944613    0.7962500959    0.9962893244
      5  C        -1.4822750565   -0.1899700899   -0.5855252800
      6  H        -1.6855495085    1.0123142952    1.1542595140
      7  H        -1.0945732589   -0.6093477082    1.5367935258
      8  H         0.9880498291    0.5376936048    1.8232755818
      9  H        -0.9454644843   -1.1071777151   -0.9220401295
     10  H        -2.5534051095   -0.3985145274   -0.5323518541
     11  H        -1.3197043825    0.6048534458   -1.3178732413
   Point Group: c1    Number of degrees of freedom:    27


   Energy is  -1038.218651759

              Constraints and their Current Values
                                        Value     Constraint
   Distance(Angs):        1   4             4.500000     4.500000
 Hessian Updated using BFGS Update

 26 Hessian modes will be used to form the next step
  Hessian Eigenvalues:
     0.039356    0.043925    0.045036    0.046342    0.064454    0.081728
     0.085524    0.087816    0.119211    0.138695    0.149572    0.160056
     0.160308    0.163997    0.199959    0.211479    0.221018    0.305070
     0.314317    0.328209    0.344033    0.345334    0.346630    0.353316
     0.381002    0.388633

 Minimum Search - Taking Simple RFO Step
 Searching for Lamda that Minimizes Along All modes
 Value Taken    Lamda =  -0.00008055
 Step Taken.  Stepsize is  0.035875

                             Maximum     Tolerance    Cnvgd?
         Gradient           0.000957      0.000300      NO
         Displacement       0.013455      0.001200      NO
         Energy change     -0.000036      0.000001      NO


 New Cartesian Coordinates Obtained by Inverse Iteration

 Displacement from previous Coordinates is:  0.052351
 ----------------------------------------------------------------
             Standard Nuclear Orientation (Angstroms)
    I     Atom           X                Y                Z
 ----------------------------------------------------------------
    1      Cl      0.2077194690    -2.8348714805    -1.6612364164
    2      Cl      0.9501377480     1.9715090354    -0.0386036694
    3      C      -0.9863863883     0.2072641758     0.8239179468
    4      C       0.3313987247     0.7961678807     0.9939953822
    5      C      -1.4781344565    -0.1857989834    -0.5856986494
    6      H      -1.6881196866     1.0032945657     1.1566684532
    7      H      -1.0919827680    -0.6159551541     1.5360523980
    8      H       0.9883831172     0.5404712124     1.8194621535
    9      H      -0.9415438085    -1.1014536432    -0.9148902688
   10      H      -2.5503282748    -0.3919267388    -0.5393133161
   11      H      -1.3132456762     0.6113011300    -1.3149550137
 ----------------------------------------------------------------
 Nuclear Repulsion Energy =   239.8388658990 hartrees
 There are       29 alpha and       29 beta electrons

                       Distance Matrix (Angstroms)
             Cl(  1)   Cl(  2)   C (  3)   C (  4)   C (  5)   H (  6)
   Cl(  2)  5.126930
   C (  3)  4.105663  2.758012
   C (  4)  4.500000  1.682417  1.453372
   C (  5)  3.319107  3.293903  1.543805  2.595015
   H (  6)  5.125067  3.053935  1.112123  2.036619  2.119877
   H (  7)  4.103105  3.653049  1.093607  2.077001  2.199085  1.766715
   H (  8)  4.910971  2.345579  2.236482  1.085543  3.520792  2.795920
   H (  9)  2.209655  3.713413  2.176742  2.977448  1.111180  3.046095
   H ( 10)  3.851431  4.253211  2.159478  3.473752  1.092813  2.359322
   H ( 11)  3.782770  2.932941  2.201104  2.840824  1.092873  2.530437
             H (  7)   H (  8)   H (  9)   H ( 10)
   H (  8)  2.396991
   H (  9)  2.503090  3.727897
   H ( 10)  2.546390  4.353811  1.797964
   H ( 11)  3.111810  3.889355  1.797705  1.771570
 
 Applying Cartesian multipole field
    Component          Value
    ---------          -----
     (2,0,0)        1.00000E-11
     (0,2,0)        2.00000E-11
     (0,0,2)       -3.00000E-11
 Nucleus-field energy     =     0.0000000094 hartrees
 Requested basis set is 6-31G(d,p)
 There are 40 shells and 113 basis functions
 A cutoff of  1.0D-14 yielded    757 shell pairs
 There are      6130 function pairs
 Smallest overlap matrix eigenvalue = 5.31E-03
 Guess from superposition of atomic densities
 Warning:  Energy on first SCF cycle will be non-variational
 SAD guess density has 58.000000 electrons

 -----------------------------------------------------------------------
  General SCF calculation program by
  Eric Jon Sundstrom, Paul Horn, Yuezhi Mao, Dmitri Zuev, Alec White,
  David Stuck, Shaama M.S., Shane Yost, Joonho Lee, David Small,
  Daniel Levine, Susi Lehtola, Hugh Burton, Evgeny Epifanovsky
 -----------------------------------------------------------------------
 Exchange:     0.2000 Hartree-Fock + 0.0800 Slater + 0.7200 B88
 Correlation:  0.1900 VWN1RPA + 0.8100 LYP
 Using SG-1 standard quadrature grid
 using 12 threads for integral computing
 -------------------------------------------------------
 OpenMP Integral computing Module                
 Release: version 1.0, May 2013, Q-Chem Inc. Pittsburgh 
 -------------------------------------------------------
 -------------------------------------------------------
 OpenMP BLAS3 based DFT computing Module                
 Release: version 1.0, May 2013, Q-Chem Inc. Pittsburgh 
 -------------------------------------------------------
 A unrestricted SCF calculation will be
 performed using DIIS
 SCF converges when DIIS error is below 1.0e-06
 Alpha HF Exchange    Energy =  -7.28000766871440
 Beta HF Exchange     Energy =  -7.28000766871440
 DFT Correlation      Energy =  -2.75888279406709
 DFT Exchange         Energy = -57.34860501663943
 One-Electron (alpha) Energy = -950.92605911992268
 One-Electron (beta)  Energy = -950.92605911992268
 Total Coulomb        Energy = 697.93844586729722
 ---------------------------------------
  Cycle       Energy         DIIS error
 ---------------------------------------
    1   -1038.7423096123      2.77e-02  
 Alpha HF Exchange    Energy =  -7.29534747571229
 Beta HF Exchange     Energy =  -7.29534747571229
 DFT Correlation      Energy =  -2.78231766438375
 DFT Exchange         Energy = -57.88329794745299
 One-Electron (alpha) Energy = -953.91662234893829
 One-Electron (beta)  Energy = -953.91662234893818
 Total Coulomb        Energy = 705.20015207041615
    2   -1038.0505372823      4.04e-03  
 Alpha HF Exchange    Energy =  -7.27266168183127
 Beta HF Exchange     Energy =  -7.27266168183127
 DFT Correlation      Energy =  -2.77801249865579
 DFT Exchange         Energy = -57.71409115849572
 One-Electron (alpha) Energy = -952.07160354513553
 One-Electron (beta)  Energy = -952.07160354513564
 Total Coulomb        Energy = 706.37510002736587
    3   -1032.9666681753      1.78e-02  
 Alpha HF Exchange    Energy =  -7.24653388114049
 Beta HF Exchange     Energy =  -7.24653388114050
 DFT Correlation      Energy =  -2.76392770696499
 DFT Exchange         Energy = -57.49775519006657
 One-Electron (alpha) Energy = -951.19473447430062
 One-Electron (beta)  Energy = -951.19473447430141
 Total Coulomb        Energy = 699.17250606073299
    4   -1038.1328476388      2.84e-03  
 Alpha HF Exchange    Energy =  -7.26889888040232
 Beta HF Exchange     Energy =  -7.26889888040232
 DFT Correlation      Energy =  -2.77580802514038
 DFT Exchange         Energy = -57.66118468875528
 One-Electron (alpha) Energy = -952.39325217748296
 One-Electron (beta)  Energy = -952.39325217748319
 Total Coulomb        Energy = 702.54869758814368
    5   -1037.3737313331      6.69e-03  
 Alpha HF Exchange    Energy =  -7.26032910301532
 Beta HF Exchange     Energy =  -7.26032910301532
 DFT Correlation      Energy =  -2.77197444748871
 DFT Exchange         Energy = -57.64296829396856
 One-Electron (alpha) Energy = -952.44927501103336
 One-Electron (beta)  Energy = -952.44927501103325
 Total Coulomb        Energy = 701.78751010204246
    6   -1038.2077749591      8.92e-04  
 Alpha HF Exchange    Energy =  -7.25216889498733
 Beta HF Exchange     Energy =  -7.25216889498733
 DFT Correlation      Energy =  -2.77212478748707
 DFT Exchange         Energy = -57.62114937684336
 One-Electron (alpha) Energy = -952.34083702706550
 One-Electron (beta)  Energy = -952.34083702706550
 Total Coulomb        Energy = 701.53305571806209
    7   -1038.2073643819      1.08e-03  
 Alpha HF Exchange    Energy =  -7.25096240828315
 Beta HF Exchange     Energy =  -7.25096240828315
 DFT Correlation      Energy =  -2.77188869103225
 DFT Exchange         Energy = -57.61543069272781
 One-Electron (alpha) Energy = -952.29839459834670
 One-Electron (beta)  Energy = -952.29839459834625
 Total Coulomb        Energy = 701.44714387009424
    8   -1038.2000236185      1.30e-03  
 Alpha HF Exchange    Energy =  -7.25037936325972
 Beta HF Exchange     Energy =  -7.25037936325973
 DFT Correlation      Energy =  -2.77185729901261
 DFT Exchange         Energy = -57.61328977602311
 One-Electron (alpha) Energy = -952.28550115383234
 One-Electron (beta)  Energy = -952.28550115383280
 Total Coulomb        Energy = 701.42534646460786
    9   -1038.1926957362      1.53e-03  
 Alpha HF Exchange    Energy =  -7.25381863785811
 Beta HF Exchange     Energy =  -7.25381863785816
 DFT Correlation      Energy =  -2.77189982733920
 DFT Exchange         Energy = -57.62460335003693
 One-Electron (alpha) Energy = -952.34797933622633
 One-Electron (beta)  Energy = -952.34797933622576
 Total Coulomb        Energy = 701.54441335858780
   10   -1038.2168198585      3.95e-04  
 Alpha HF Exchange    Energy =  -7.25504552722312
 Beta HF Exchange     Energy =  -7.25504552722330
 DFT Correlation      Energy =  -2.77185349610689
 DFT Exchange         Energy = -57.62680828949540
 One-Electron (alpha) Energy = -952.34622687947785
 One-Electron (beta)  Energy = -952.34622687947888
 Total Coulomb        Energy = 701.54365750430861
   11   -1038.2186831863      3.22e-05  
 Alpha HF Exchange    Energy =  -7.25545022201622
 Beta HF Exchange     Energy =  -7.25545022201667
 DFT Correlation      Energy =  -2.77190793296927
 DFT Exchange         Energy = -57.62890970487280
 One-Electron (alpha) Energy = -952.36215480005001
 One-Electron (beta)  Energy = -952.36215480005285
 Total Coulomb        Energy = 701.57847614153548
   12   -1038.2186856320      2.99e-05  
 Alpha HF Exchange    Energy =  -7.25535842450036
 Beta HF Exchange     Energy =  -7.25535842450126
 DFT Correlation      Energy =  -2.77190160697779
 DFT Exchange         Energy = -57.62857919272661
 One-Electron (alpha) Energy = -952.35995159824552
 One-Electron (beta)  Energy = -952.35995159825063
 Total Coulomb        Energy = 701.57353953203960
   13   -1038.2186954047      1.22e-05  
 Alpha HF Exchange    Energy =  -7.25532533626574
 Beta HF Exchange     Energy =  -7.25532533626760
 DFT Correlation      Energy =  -2.77190034072392
 DFT Exchange         Energy = -57.62846941092391
 One-Electron (alpha) Energy = -952.35943258893337
 One-Electron (beta)  Energy = -952.35943258894520
 Total Coulomb        Energy = 701.57232247393563
   14   -1038.2186972197      5.14e-06  
 Alpha HF Exchange    Energy =  -7.25531130592784
 Beta HF Exchange     Energy =  -7.25531130593518
 DFT Correlation      Energy =  -2.77190129679142
 DFT Exchange         Energy = -57.62844867011958
 One-Electron (alpha) Energy = -952.35954192799568
 One-Electron (beta)  Energy = -952.35954192804252
 Total Coulomb        Energy = 701.57249247262507
   15   -1038.2186980538      9.17e-07  Convergence criterion met
 ---------------------------------------
 SCF time:   CPU 37.24s  wall 4.00s 
<S^2> =         -0.000000000
 Alpha HF Exchange    Energy =  -7.25531130592784
 Beta HF Exchange     Energy =  -7.25531130593518
 DFT Correlation      Energy =  -2.77190129679142
 DFT Exchange         Energy = -57.62844867011958
 One-Electron (alpha) Energy = -952.35954192799568
 One-Electron (beta)  Energy = -952.35954192804252
 Total Coulomb        Energy = 701.57249247262507
 Nuclear repulsion Energy = 239.83886590842764
 SCF   energy in the final basis set =    -1038.2186980538
 Total energy in the final basis set =    -1038.2186980538
 
 --------------------------------------------------------------
 
                    Orbital Energies (a.u.)
 --------------------------------------------------------------
 
 Alpha MOs
 -- Occupied --
*******-101.439 -10.355 -10.264 -10.210  -9.556  -9.353  -7.319
 -7.312  -7.309  -7.115  -7.108  -7.108  -0.967  -0.838  -0.724
 -0.684  -0.636  -0.554  -0.514  -0.489  -0.439  -0.416  -0.402
 -0.389  -0.378  -0.220  -0.219  -0.219
 -- Virtual --
 -0.181  -0.010   0.053   0.073   0.122   0.138   0.150   0.181
  0.214   0.227   0.311   0.365   0.385   0.404   0.441   0.460
  0.470   0.491   0.502   0.522   0.534   0.568   0.597   0.642
  0.656   0.667   0.735   0.764   0.775   0.795   0.804   0.829
  0.851   0.865   0.881   0.894   0.926   0.971   0.971   0.981
  0.981   1.007   1.030   1.150   1.238   1.355   1.423   1.472
  1.577   1.618   1.660   1.799   1.847   1.870   1.952   2.024
  2.027   2.049   2.078   2.117   2.207   2.228   2.317   2.371
  2.386   2.496   2.535   2.636   2.664   2.746   2.787   2.847
  2.875   3.152   3.215   3.259   3.362   3.430   3.490   4.038
  4.263   4.323   4.387   4.570
 
 Beta MOs
 -- Occupied --
*******-101.439 -10.355 -10.264 -10.210  -9.556  -9.353  -7.319
 -7.312  -7.309  -7.115  -7.108  -7.108  -0.967  -0.838  -0.724
 -0.684  -0.636  -0.554  -0.514  -0.489  -0.439  -0.416  -0.402
 -0.389  -0.378  -0.220  -0.219  -0.219
 -- Virtual --
 -0.181  -0.010   0.053   0.073   0.122   0.138   0.150   0.181
  0.214   0.227   0.311   0.365   0.385   0.404   0.441   0.460
  0.470   0.491   0.502   0.522   0.534   0.568   0.597   0.642
  0.656   0.667   0.735   0.764   0.775   0.795   0.804   0.829
  0.851   0.865   0.881   0.894   0.926   0.971   0.971   0.981
  0.981   1.007   1.030   1.150   1.238   1.355   1.423   1.472
  1.577   1.618   1.660   1.799   1.847   1.870   1.952   2.024
  2.027   2.049   2.078   2.117   2.207   2.228   2.317   2.371
  2.386   2.496   2.535   2.636   2.664   2.746   2.787   2.847
  2.875   3.152   3.215   3.259   3.362   3.430   3.490   4.038
  4.263   4.323   4.387   4.570
 --------------------------------------------------------------
 
          Ground-State Mulliken Net Atomic Charges

     Atom                 Charge (a.u.)    Spin (a.u.)
  --------------------------------------------------------
      1 Cl                   -0.513382      -0.000000
      2 Cl                    0.172401       0.000000
      3 C                    -0.236233      -0.000000
      4 C                    -0.118392       0.000000
      5 C                    -0.312707      -0.000000
      6 H                     0.184947       0.000000
      7 H                     0.173889      -0.000000
      8 H                     0.209974      -0.000000
      9 H                     0.181891       0.000000
     10 H                     0.128691       0.000000
     11 H                     0.128921      -0.000000
  --------------------------------------------------------
  Sum of atomic charges =    -0.000000
  Sum of spin   charges =     0.000000

 -----------------------------------------------------------------
                    Cartesian Multipole Moments
 -----------------------------------------------------------------
    Charge (ESU x 10^10)
                -0.0000
    Dipole Moment (Debye)
         X      -1.2325      Y       8.1050      Z       6.0000
       Tot      10.1593
    Quadrupole Moments (Debye-Ang)
        XX     -41.6243     XY       2.1483     YY     -61.8247
        XZ       0.9700     YZ     -10.8443     ZZ     -47.8910
    Octopole Moments (Debye-Ang^2)
       XXX      -1.1769    XXY      13.7638    XYY       1.1022
       YYY      91.9089    XXZ      18.5948    XYZ      -2.4087
       YYZ      45.2025    XZZ       1.2981    YZZ      31.9732
       ZZZ      66.9738
    Hexadecapole Moments (Debye-Ang^3)
      XXXX    -262.8878   XXXY     -48.2433   XXYY    -214.4018
      XYYY     -42.2054   YYYY   -1152.8495   XXXZ       3.9629
      XXYZ     -71.4418   XYYZ      -2.6968   YYYZ    -297.2248
      XXZZ    -103.6736   XYZZ     -13.6162   YYZZ    -280.2620
      XZZZ       9.6695   YZZZ    -245.7887   ZZZZ    -392.2269
 -----------------------------------------------------------------
 Calculating analytic gradient of the SCF energy
 Gradient of SCF Energy
            1           2           3           4           5           6
    1   0.0002579  -0.0000652   0.0000677   0.0000307   0.0015493   0.0000630
    2  -0.0040174   0.0000182  -0.0002834   0.0039215   0.0001190   0.0000632
    3  -0.0027069   0.0000196  -0.0001847   0.0028679   0.0008529  -0.0003067
            7           8           9          10          11
    1  -0.0001732   0.0000218  -0.0013926  -0.0000600  -0.0002994
    2   0.0000811  -0.0000969   0.0001571  -0.0000902   0.0001278
    3   0.0001175  -0.0000319  -0.0006490   0.0000528  -0.0000314
 Max gradient component =       4.017E-03
 RMS gradient           =       1.268E-03
 Gradient time:  CPU 11.22 s  wall 1.85 s
 Geometry Optimization Parameters
   NAtoms,    NIC,     NZ,  NCons,   NDum,   NFix, NCnnct, MaxDiis
       11      66       0       1       0       0       0       0

 Cartesian Hessian Update
 Hessian Updated using BFGS Update


** CONSTRAINED OPTIMIZATION IN DELOCALIZED INTERNAL COORDINATES **
   Searching for a Minimum

   Optimization Cycle:   4

                       Coordinates (Angstroms)
     ATOM                X               Y               Z
      1  Cl        0.2077194690   -2.8348714805   -1.6612364164
      2  Cl        0.9501377480    1.9715090354   -0.0386036694
      3  C        -0.9863863883    0.2072641758    0.8239179468
      4  C         0.3313987247    0.7961678807    0.9939953822
      5  C        -1.4781344565   -0.1857989834   -0.5856986494
      6  H        -1.6881196866    1.0032945657    1.1566684532
      7  H        -1.0919827680   -0.6159551541    1.5360523980
      8  H         0.9883831172    0.5404712124    1.8194621535
      9  H        -0.9415438085   -1.1014536432   -0.9148902688
     10  H        -2.5503282748   -0.3919267388   -0.5393133161
     11  H        -1.3132456762    0.6113011300   -1.3149550137
[...]
 Nuclear Repulsion Energy =   240.9587885791 hartrees
 There are       29 alpha and       29 beta electrons

                       Distance Matrix (Angstroms)
             Cl(  1)   Cl(  2)   C (  3)   C (  4)   C (  5)   H (  6)
   Cl(  2)  5.063479
   C (  3)  4.080606  2.758213
   C (  4)  4.500000  1.682872  1.451880
   C (  5)  3.248526  3.284321  1.542088  2.595777
   H (  6)  5.089091  3.072187  1.112941  2.033383  2.120509
   H (  7)  4.109849  3.650385  1.094012  2.074658  2.199811  1.763702
   H (  8)  4.972863  2.345871  2.234175  1.085463  3.529763  2.775853
   H (  9)  2.137464  3.675272  2.169270  2.965184  1.115244  3.045033
   H ( 10)  3.760264  4.255314  2.162233  3.477151  1.092240  2.369267
   H ( 11)  3.690851  2.927033  2.200623  2.844077  1.092663  2.532955
             H (  7)   H (  8)   H (  9)   H ( 10)
   H (  8)  2.395083
   H (  9)  2.501549  3.733942
   H ( 10)  2.546789  4.359168  1.804013
   H ( 11)  3.112967  3.899142  1.796725  1.774546
 
 Applying Cartesian multipole field
    Component          Value
    ---------          -----
     (2,0,0)        1.00000E-11
     (0,2,0)        2.00000E-11
     (0,0,2)       -3.00000E-11
 Nucleus-field energy     =     0.0000000086 hartrees
 Requested basis set is 6-31G(d,p)
 There are 40 shells and 113 basis functions
 A cutoff of  1.0D-14 yielded    758 shell pairs
 There are      6131 function pairs
 Smallest overlap matrix eigenvalue = 5.24E-03
 Guess from superposition of atomic densities
 Warning:  Energy on first SCF cycle will be non-variational
 SAD guess density has 58.000000 electrons

 -----------------------------------------------------------------------
  General SCF calculation program by
  Eric Jon Sundstrom, Paul Horn, Yuezhi Mao, Dmitri Zuev, Alec White,
  David Stuck, Shaama M.S., Shane Yost, Joonho Lee, David Small,
  Daniel Levine, Susi Lehtola, Hugh Burton, Evgeny Epifanovsky
 -----------------------------------------------------------------------
 Exchange:     0.2000 Hartree-Fock + 0.0800 Slater + 0.7200 B88
 Correlation:  0.1900 VWN1RPA + 0.8100 LYP
 Using SG-1 standard quadrature grid
 using 12 threads for integral computing
 -------------------------------------------------------
 OpenMP Integral computing Module                
 Release: version 1.0, May 2013, Q-Chem Inc. Pittsburgh 
 -------------------------------------------------------
 -------------------------------------------------------
 OpenMP BLAS3 based DFT computing Module                
 Release: version 1.0, May 2013, Q-Chem Inc. Pittsburgh 
 -------------------------------------------------------
 A unrestricted SCF calculation will be
 performed using DIIS
 SCF converges when DIIS error is below 1.0e-06
 Alpha HF Exchange    Energy =  -7.28091071918864
 Beta HF Exchange     Energy =  -7.28091071918864
 DFT Correlation      Energy =  -2.75948713135291
 DFT Exchange         Energy = -57.35045320195520
 One-Electron (alpha) Energy = -952.04610621486847
 One-Electron (beta)  Energy = -952.04610621486847
 Total Coulomb        Energy = 699.05464141738651
 ---------------------------------------
  Cycle       Energy         DIIS error
 ---------------------------------------
    1   -1038.7505441964      2.77e-02  
 Alpha HF Exchange    Energy =  -7.29551521991739
 Beta HF Exchange     Energy =  -7.29551521991739
 DFT Correlation      Energy =  -2.78292882795752
 DFT Exchange         Energy = -57.88528275785216
 One-Electron (alpha) Energy = -955.06962766106744
 One-Electron (beta)  Energy = -955.06962766106767
 Total Coulomb        Energy = 706.38975769584647
    2   -1038.0499510643      4.05e-03  
 Alpha HF Exchange    Energy =  -7.27468513585994
 Beta HF Exchange     Energy =  -7.27468513585993
 DFT Correlation      Energy =  -2.77787683885101
 DFT Exchange         Energy = -57.71531547162336
 One-Electron (alpha) Energy = -953.17874165282046
 One-Electron (beta)  Energy = -953.17874165282001
 Total Coulomb        Energy = 707.21603276904909
    3   -1033.2252245312      1.67e-02  
 Alpha HF Exchange    Energy =  -7.24921086776415
 Beta HF Exchange     Energy =  -7.24921086776415
 DFT Correlation      Energy =  -2.76479022036823
 DFT Exchange         Energy = -57.51164728698754
 One-Electron (alpha) Energy = -952.36781538038758
 One-Electron (beta)  Energy = -952.36781538038758
 Total Coulomb        Energy = 700.43077261425469
    4   -1038.1209288018      2.96e-03  
 Alpha HF Exchange    Energy =  -7.26387546286076
 Beta HF Exchange     Energy =  -7.26387546286076
 DFT Correlation      Energy =  -2.77440927490263
 DFT Exchange         Energy = -57.63599460371673
 One-Electron (alpha) Energy = -953.32223274968419
 One-Electron (beta)  Energy = -953.32223274968442
 Total Coulomb        Energy = 703.12297853968653
    5   -1037.5008531764      6.49e-03  
 Alpha HF Exchange    Energy =  -7.25986873680845
 Beta HF Exchange     Energy =  -7.25986873680845
 DFT Correlation      Energy =  -2.77272103557419
 DFT Exchange         Energy = -57.64488640896198
 One-Electron (alpha) Energy = -953.61100339554730
 One-Electron (beta)  Energy = -953.61100339554719
 Total Coulomb        Energy = 702.98940245948904
    6   -1038.2111606621      7.60e-04  
 Alpha HF Exchange    Energy =  -7.25154855183200
 Beta HF Exchange     Energy =  -7.25154855183201
 DFT Correlation      Energy =  -2.77265025163628
 DFT Exchange         Energy = -57.62000656770829
 One-Electron (alpha) Energy = -953.45340074750141
 One-Electron (beta)  Energy = -953.45340074750163
 Total Coulomb        Energy = 702.64252101633383
    7   -1038.2012458141      1.32e-03  
 Alpha HF Exchange    Energy =  -7.25073985786823
 Beta HF Exchange     Energy =  -7.25073985786824
 DFT Correlation      Energy =  -2.77240953529532
 DFT Exchange         Energy = -57.61464716901941
 One-Electron (alpha) Energy = -953.40996755232845
 One-Electron (beta)  Energy = -953.40996755232845
 Total Coulomb        Energy = 702.55216118358032
    8   -1038.1975217535      1.40e-03  
 Alpha HF Exchange    Energy =  -7.24992883010999
 Beta HF Exchange     Energy =  -7.24992883010999
 DFT Correlation      Energy =  -2.77231334199872
 DFT Exchange         Energy = -57.61102372339074
 One-Electron (alpha) Energy = -953.38377711540943
 One-Electron (beta)  Energy = -953.38377711540954
 Total Coulomb        Energy = 702.50490103614186
    9   -1038.1870593327      1.69e-03  
 Alpha HF Exchange    Energy =  -7.25277339050644
 Beta HF Exchange     Energy =  -7.25277339050646
 DFT Correlation      Energy =  -2.77242359555424
 DFT Exchange         Energy = -57.62200788456008
 One-Electron (alpha) Energy = -953.45896215468633
 One-Electron (beta)  Energy = -953.45896215468724
 Total Coulomb        Energy = 702.64653009350798
   10   -1038.2125838894      7.28e-04  
 Alpha HF Exchange    Energy =  -7.25453014973198
 Beta HF Exchange     Energy =  -7.25453014973203
 DFT Correlation      Energy =  -2.77241004082803
 DFT Exchange         Energy = -57.62604389006698
 One-Electron (alpha) Energy = -953.47043626384345
 One-Electron (beta)  Energy = -953.47043626384414
 Total Coulomb        Energy = 702.67118780797932
   11   -1038.2184103624      1.79e-04  
 Alpha HF Exchange    Energy =  -7.25553671687497
 Beta HF Exchange     Energy =  -7.25553671687509
 DFT Correlation      Energy =  -2.77250223169035
 DFT Exchange         Energy = -57.63029720390190
 One-Electron (alpha) Energy = -953.49972453282999
 One-Electron (beta)  Energy = -953.49972453283056
 Total Coulomb        Energy = 702.73574104225463
   12   -1038.2187923051      7.62e-06  
 Alpha HF Exchange    Energy =  -7.25551861843773
 Beta HF Exchange     Energy =  -7.25551861843801
 DFT Correlation      Energy =  -2.77248953553399
 DFT Exchange         Energy = -57.63003882671752
 One-Electron (alpha) Energy = -953.49640505120908
 One-Electron (beta)  Energy = -953.49640505121067
 Total Coulomb        Energy = 702.72879529714066
   13   -1038.2187918168      9.86e-06  
 Alpha HF Exchange    Energy =  -7.25549068899695
 Beta HF Exchange     Energy =  -7.25549068899748
 DFT Correlation      Energy =  -2.77248912951196
 DFT Exchange         Energy = -57.62995872641683
 One-Electron (alpha) Energy = -953.49614351639411
 One-Electron (beta)  Energy = -953.49614351639798
 Total Coulomb        Energy = 702.72813477145417
   14   -1038.2187929076      3.22e-06  
 Alpha HF Exchange    Energy =  -7.25548083092521
 Beta HF Exchange     Energy =  -7.25548083092630
 DFT Correlation      Energy =  -2.77248943537700
 DFT Exchange         Energy = -57.62993654934812
 One-Electron (alpha) Energy = -953.49611426831859
 One-Electron (beta)  Energy = -953.49611426832666
 Total Coulomb        Energy = 702.72803456261977
   15   -1038.2187930330      6.22e-07  Convergence criterion met
 ---------------------------------------
 SCF time:   CPU 37.08s  wall 3.00s 
<S^2> =          0.000000000
 Alpha HF Exchange    Energy =  -7.25548083092521
 Beta HF Exchange     Energy =  -7.25548083092630
 DFT Correlation      Energy =  -2.77248943537700
 DFT Exchange         Energy = -57.62993654934812
 One-Electron (alpha) Energy = -953.49611426831859
 One-Electron (beta)  Energy = -953.49611426832666
 Total Coulomb        Energy = 702.72803456261977
 Nuclear repulsion Energy = 240.95878858762430
 SCF   energy in the final basis set =    -1038.2187930330
 Total energy in the final basis set =    -1038.2187930330
 
 --------------------------------------------------------------
 
                    Orbital Energies (a.u.)
 --------------------------------------------------------------
 
 Alpha MOs
 -- Occupied --
*******-101.440 -10.353 -10.263 -10.208  -9.555  -9.353  -7.318
 -7.310  -7.307  -7.115  -7.109  -7.108  -0.965  -0.838  -0.723
 -0.685  -0.634  -0.553  -0.513  -0.490  -0.437  -0.416  -0.401
 -0.388  -0.377  -0.221  -0.220  -0.219
 -- Virtual --
 -0.180  -0.008   0.053   0.073   0.122   0.138   0.151   0.183
  0.217   0.229   0.312   0.367   0.385   0.405   0.441   0.459
  0.471   0.493   0.502   0.522   0.533   0.569   0.597   0.647
  0.654   0.670   0.736   0.765   0.776   0.796   0.807   0.829
  0.851   0.866   0.885   0.897   0.932   0.971   0.972   0.981
  0.981   1.008   1.030   1.153   1.239   1.366   1.419   1.482
  1.580   1.621   1.664   1.803   1.851   1.870   1.951   2.021
  2.030   2.051   2.078   2.118   2.206   2.230   2.314   2.371
  2.386   2.496   2.539   2.636   2.662   2.749   2.787   2.845
  2.877   3.149   3.216   3.259   3.361   3.428   3.490   4.040
  4.265   4.325   4.388   4.572
 
 Beta MOs
 -- Occupied --
*******-101.440 -10.353 -10.263 -10.208  -9.555  -9.353  -7.318
 -7.310  -7.307  -7.115  -7.109  -7.108  -0.965  -0.838  -0.723
 -0.685  -0.634  -0.553  -0.513  -0.490  -0.437  -0.416  -0.401
 -0.388  -0.377  -0.221  -0.220  -0.219
 -- Virtual --
 -0.180  -0.008   0.053   0.073   0.122   0.138   0.151   0.183
  0.217   0.229   0.312   0.367   0.385   0.405   0.441   0.459
  0.471   0.493   0.502   0.522   0.533   0.569   0.597   0.647
  0.654   0.670   0.736   0.765   0.776   0.796   0.807   0.829
  0.851   0.866   0.885   0.897   0.932   0.971   0.972   0.981
  0.981   1.008   1.030   1.153   1.239   1.366   1.419   1.482
  1.580   1.621   1.664   1.803   1.851   1.870   1.951   2.021
  2.030   2.051   2.078   2.118   2.206   2.230   2.314   2.371
  2.386   2.496   2.539   2.636   2.662   2.749   2.787   2.845
  2.877   3.149   3.216   3.259   3.361   3.428   3.490   4.040
  4.265   4.325   4.388   4.572
 --------------------------------------------------------------
 
          Ground-State Mulliken Net Atomic Charges

     Atom                 Charge (a.u.)    Spin (a.u.)
  --------------------------------------------------------
      1 Cl                   -0.508051      -0.000000
      2 Cl                    0.171097       0.000000
      3 C                    -0.237534      -0.000000
      4 C                    -0.121129       0.000000
      5 C                    -0.308728      -0.000000
      6 H                     0.187981       0.000000
      7 H                     0.173821       0.000000
      8 H                     0.207772      -0.000000
      9 H                     0.175973       0.000000
     10 H                     0.129059       0.000000
     11 H                     0.129738      -0.000000
  --------------------------------------------------------
  Sum of atomic charges =    -0.000000
  Sum of spin   charges =     0.000000

 -----------------------------------------------------------------
                    Cartesian Multipole Moments
 -----------------------------------------------------------------
    Charge (ESU x 10^10)
                 0.0000
    Dipole Moment (Debye)
         X      -1.1380      Y       7.9373      Z       6.1087
       Tot      10.0803
    Quadrupole Moments (Debye-Ang)
        XX     -41.5663     XY       1.7154     YY     -61.1930
        XZ       0.6484     YZ     -10.8754     ZZ     -48.1567
    Octopole Moments (Debye-Ang^2)
       XXX       0.2045    XXY      13.4034    XYY       2.6279
       YYY      87.7566    XXZ      19.2870    XYZ      -1.7263
       YYZ      45.7520    XZZ       2.2222    YZZ      32.4776
       ZZZ      70.7354
    Hexadecapole Moments (Debye-Ang^3)
      XXXX    -262.1532   XXXY     -56.2924   XXYY    -208.1836
      XYYY     -54.1027   YYYY   -1111.0561   XXXZ       1.0512
      XXYZ     -71.6300   XYYZ      -5.5302   YYYZ    -295.6438
      XXZZ    -105.9003   XYZZ     -17.3532   YYZZ    -277.1833
      XZZZ       6.3475   YZZZ    -248.0652   ZZZZ    -408.5316
 -----------------------------------------------------------------
 Calculating analytic gradient of the SCF energy
 Gradient of SCF Energy
            1           2           3           4           5           6
    1  -0.0001608   0.0000114   0.0001061   0.0001134  -0.0001598  -0.0000051
    2  -0.0030645   0.0000064  -0.0001045   0.0030355  -0.0000175   0.0000434
    3  -0.0022745  -0.0000022  -0.0000424   0.0022984  -0.0000200   0.0000208
            7           8           9          10          11
    1  -0.0000529  -0.0000028   0.0000869   0.0000212   0.0000423
    2   0.0000418   0.0000023   0.0000757  -0.0000053  -0.0000134
    3   0.0000227   0.0000036  -0.0000108   0.0000010   0.0000033
 Max gradient component =       3.064E-03
 RMS gradient           =       9.402E-04
 Gradient time:  CPU 9.18 s  wall 0.84 s
 Geometry Optimization Parameters
   NAtoms,    NIC,     NZ,  NCons,   NDum,   NFix, NCnnct, MaxDiis
       11      66       0       1       0       0       0       0

 Cartesian Hessian Update
 Hessian Updated using BFGS Update


** CONSTRAINED OPTIMIZATION IN DELOCALIZED INTERNAL COORDINATES **
   Searching for a Minimum

   Optimization Cycle:  16

                       Coordinates (Angstroms)
     ATOM                X               Y               Z
      1  Cl        0.1486232842   -2.7813542193   -1.7112584737
      2  Cl        0.9729528442    1.9349716911   -0.0633597366
      3  C        -0.9843806736    0.2070291990    0.8259079548
      4  C         0.3273164438    0.8038974802    1.0024176894
      5  C        -1.4681105779   -0.2005772393   -0.5804694500
      6  H        -1.6908141304    1.0032326296    1.1509473307
      7  H        -1.0919777461   -0.6073716640    1.5484294986
      8  H         0.9614224498    0.5864767725    1.8561551573
      9  H        -0.9069953174   -1.1116966394   -0.8947618903
     10  H        -2.5366212936   -0.4235310632   -0.5409104649
     11  H        -1.3035172829    0.5889250528   -1.3176986152
   Point Group: c1    Number of degrees of freedom:    27


   Energy is  -1038.218793033

              Constraints and their Current Values
                                        Value     Constraint
   Distance(Angs):        1   4             4.500000     4.500000
 Hessian Updated using BFGS Update

 26 Hessian modes will be used to form the next step
  Hessian Eigenvalues:
     0.003135    0.006042    0.018778    0.043271    0.045263    0.064724
     0.081902    0.085550    0.100474    0.117996    0.140587    0.153597
     0.160198    0.162974    0.164166    0.209573    0.220963    0.300984
     0.313033    0.323006    0.343856    0.344887    0.346272    0.353373
     0.379478    0.386552

 Minimum Search - Taking Simple RFO Step
 Searching for Lamda that Minimizes Along All modes
 Value Taken    Lamda =   0.00000000
 Step Taken.  Stepsize is  0.002478

                             Maximum     Tolerance    Cnvgd?
         Gradient           0.000068      0.000300     YES
         Displacement       0.001642      0.001200      NO
         Energy change     -0.000001      0.000001     YES


                       Distance Matrix (Angstroms)
             Cl(  1)   Cl(  2)   C (  3)   C (  4)   C (  5)   H (  6)
   Cl(  2)  5.063479
   C (  3)  4.080606  2.758213
   C (  4)  4.500000  1.682872  1.451880
   C (  5)  3.248526  3.284321  1.542088  2.595777
   H (  6)  5.089091  3.072187  1.112941  2.033383  2.120509
   H (  7)  4.109849  3.650385  1.094012  2.074658  2.199811  1.763702
   H (  8)  4.972863  2.345871  2.234175  1.085463  3.529763  2.775853
   H (  9)  2.137464  3.675272  2.169270  2.965184  1.115244  3.045033
   H ( 10)  3.760264  4.255314  2.162233  3.477151  1.092240  2.369267
   H ( 11)  3.690851  2.927033  2.200623  2.844077  1.092663  2.532955
             H (  7)   H (  8)   H (  9)   H ( 10)
   H (  8)  2.395083
   H (  9)  2.501549  3.733942
   H ( 10)  2.546789  4.359168  1.804013
   H ( 11)  3.112967  3.899142  1.796725  1.774546
 
 Final energy is   -1038.21879303298     


 ******************************
 **  OPTIMIZATION CONVERGED  **
 ******************************

                       Coordinates (Angstroms)
     ATOM                X               Y               Z
      1  Cl        0.1486232842   -2.7813542193   -1.7112584737
      2  Cl        0.9729528442    1.9349716911   -0.0633597366
      3  C        -0.9843806736    0.2070291990    0.8259079548
      4  C         0.3273164438    0.8038974802    1.0024176894
      5  C        -1.4681105779   -0.2005772393   -0.5804694500
      6  H        -1.6908141304    1.0032326296    1.1509473307
      7  H        -1.0919777461   -0.6073716640    1.5484294986
      8  H         0.9614224498    0.5864767725    1.8561551573
      9  H        -0.9069953174   -1.1116966394   -0.8947618903
     10  H        -2.5366212936   -0.4235310632   -0.5409104649
     11  H        -1.3035172829    0.5889250528   -1.3176986152

Z-matrix Print:
$molecule
0 1
Cl
C  1 1.682872
H  2 1.085463 1 114.117733
C  2 1.451880 1 123.087551 3 177.769431 0
H  4 1.094012 2 108.336283 1 170.581746 0
H  4 1.112941 2 104.113831 1 -76.805391 0
C  4 1.542088 2 120.194337 1 40.074168 0
H  7 1.092240 4 109.134927 2 -167.915003 0
H  7 1.092663 4 112.153830 2 -47.506046 0
H  7 1.115244 4 108.368728 2 72.773561 0
Cl 10 2.137464 7 173.878157 4 -148.826955 0
$end

PES scan, value:    4.5000 energy: -1038.2187930330
------- Summary of potential scan: ------ 
    4.5000     -1038.2187930330
----------------------------------------- 
Archival summary:
1\1\hpc0332\JobtypUnspecified\ProcedureUnspecified\6-31G**\l236\knomura\MonMar1122:01:182019MonMar1122:01:182019\0\\#,JobtypUnspecified,ProcedureUnspecified,6-31G**,\\0,1\Cl\C,1,1.68287\H,2,1.08546,1,114.118\C,2,1.45188,1,123.088,3,177.769,0\H,4,1.09401,2,108.336,1,170.582,0\H,4,1.11294,2,104.114,1,-76.8054,0\C,4,1.54209,2,120.194,1,40.0742,0\H,7,1.09224,4,109.135,2,-167.915,0\H,7,1.09266,4,112.154,2,-47.506,0\H,7,1.11524,4,108.369,2,72.7736,0\Cl,10,2.13746,7,173.878,4,-148.827,0\\\@

 Total job time:  73.07s(wall), 834.84s(cpu) 
 Mon Mar 11 22:01:18 2019

        *************************************************************
        *                                                           *
        *  Thank you very much for using Q-Chem.  Have a nice day.  *
        *                                                           *
        *************************************************************


