
Running Job 1 of 1 ruruma/CH3CH2CHCl2_afterGeo_siglet.xyz.data/inputs/bond_singlet_3.4.in
qchem ruruma/CH3CH2CHCl2_afterGeo_siglet.xyz.data/inputs/bond_singlet_3.4.in_17286.0 /staging/scratch/2858534/qchem17286/ 1
/usr/usc/qchem/5.1.1/exe/qcprog.exe_s ruruma/CH3CH2CHCl2_afterGeo_siglet.xyz.data/inputs/bond_singlet_3.4.in_17286.0 /staging/scratch/2858534/qchem17286/
Check license passed

                  Welcome to Q-Chem
     A Quantum Leap Into The Future Of Chemistry


 Q-Chem 5.1, Q-Chem, Inc., Pleasanton, CA (2018)

 Yihan Shao,  Zhengting Gan,  E. Epifanovsky,  A. T. B. Gilbert,  M. Wormit,  
 J. Kussmann,  A. W. Lange,  A. Behn,  Jia Deng,  Xintian Feng,  D. Ghosh,  
 M. Goldey,  P. R. Horn,  L. D. Jacobson,  I. Kaliman,  T. Kus,  A. Landau,  
 Jie Liu,  E. I. Proynov,  R. M. Richard,  R. P. Steele,  E. J. Sundstrom,  
 H. L. Woodcock III,  P. M. Zimmerman,  D. Zuev,  B. Albrecht,  E. Alguire,  
 S. A. Baeppler,  D. Barton,  Z. Benda,  Y. A. Bernard,  E. J. Berquist,  
 K. B. Bravaya,  H. Burton,  D. Casanova,  Chun-Min Chang,  Yunqing Chen,  
 A. Chien,  K. D. Closser,  M. P. Coons,  S. Coriani,  S. Dasgupta,  
 A. L. Dempwolff,  M. Diedenhofen,  Hainam Do,  R. G. Edgar,  Po-Tung Fang,  
 S. Faraji,  S. Fatehi,  Qingguo Feng,  K. D. Fenk,  J. Fosso-Tande,  
 Qinghui Ge,  A. Ghysels,  G. Gidofalvi,  J. Gomes,  J. Gonthier,  A. Gunina,  
 D. Hait,  M. W. D. Hanson-Heine,  P. H. P. Harbach,  A. W. Hauser,  
 J. E. Herr,  E. G. Hohenstein,  Z. C. Holden,  Kerwin Hui,  B. C. Huynh,  
 T.-C. Jagau,  Hyunjun Ji,  B. Kaduk,  K. Khistyaev,  Jaehoon Kim,  
 P. Klunzinger,  K. Koh,  D. Kosenkov,  L. Koulias,  T. Kowalczyk,  
 C. M. Krauter,  A. Kunitsa,  Ka Un Lao,  A. Laurent,  K. V. Lawler,  
 Joonho Lee,  D. Lefrancois,  S. Lehtola,  D. S. Levine,  Yi-Pei Li,  
 You-Sheng Lin,  Fenglai Liu,  E. Livshits,  A. Luenser,  P. Manohar,  
 E. Mansoor,  S. F. Manzer,  Shan-Ping Mao,  Yuezhi Mao,  N. Mardirossian,  
 A. V. Marenich,  T. Markovich,  L. A. Martinez-Martinez,  S. A. Maurer,  
 N. J. Mayhall,  S. C. McKenzie,  J.-M. Mewes,  A. F. Morrison,  
 J. W. Mullinax,  K. Nanda,  T. S. Nguyen-Beck,  R. Olivares-Amaya,  
 J. A. Parkhill,  T. M. Perrine,  F. Plasser,  P. Pokhilko,  S. Prager,  
 A. Prociuk,  E. Ramos,  D. R. Rehn,  F. Rob,  M. Schneider,  N. Sergueev,  
 S. M. Sharada,  S. Sharma,  D. W. Small,  T. Stauch,  T. Stein,  
 Yu-Chuan Su,  A. J. W. Thom,  A. Tkatchenko,  T. Tsuchimochi,  N. M. Tubman,  
 L. Vogt,  M. L. Vidal,  O. Vydrov,  M. A. Watson,  J. Wenzel,  
 M. de Wergifosse,  T. A. Wesolowski,  A. White,  J. Witte,  A. Yamada,  
 Jun Yang,  K. Yao,  S. Yeganeh,  S. R. Yost,  Zhi-Qiang You,  A. Zech,  
 Igor Ying Zhang,  Xing Zhang,  Yan Zhao,  Ying Zhu,  B. R. Brooks,  
 G. K. L. Chan,  C. J. Cramer,  M. S. Gordon,  W. J. Hehre,  A. Klamt,  
 M. W. Schmidt,  C. D. Sherrill,  D. G. Truhlar,  A. Aspuru-Guzik,  R. Baer,  
 A. T. Bell,  N. A. Besley,  Jeng-Da Chai,  A. E. DePrince, III,  
 R. A. DiStasio Jr.,  A. Dreuw,  B. D. Dunietz,  T. R. Furlani,  
 Chao-Ping Hsu,  Yousung Jung,  Jing Kong,  D. S. Lambrecht,  WanZhen Liang,  
 C. Ochsenfeld,  V. A. Rassolov,  L. V. Slipchenko,  J. E. Subotnik,  
 T. Van Voorhis,  J. M. Herbert,  A. I. Krylov,  P. M. W. Gill,  M. Head-Gordon

 Contributors to earlier versions of Q-Chem not listed above: 
 R. D. Adamson,  B. Austin,  J. Baker,  G. J. O. Beran,  K. Brandhorst,  
 S. T. Brown,  E. F. C. Byrd,  A. K. Chakraborty,  C.-L. Cheng,  
 Siu Hung Chien,  D. M. Chipman,  D. L. Crittenden,  H. Dachsel,  
 R. J. Doerksen,  A. D. Dutoi,  L. Fusti-Molnar,  W. A. Goddard III,  
 A. Golubeva-Zadorozhnaya,  S. R. Gwaltney,  G. Hawkins,  A. Heyden,  
 S. Hirata,  G. Kedziora,  F. J. Keil,  C. Kelley,  Jihan Kim,  R. A. King,  
 R. Z. Khaliullin,  P. P. Korambath,  W. Kurlancheek,  A. M. Lee,  M. S. Lee,  
 S. V. Levchenko,  Ching Yeh Lin,  D. Liotard,  R. C. Lochan,  I. Lotan,  
 P. E. Maslen,  N. Nair,  D. P. O'Neill,  D. Neuhauser,  E. Neuscamman,  
 C. M. Oana,  R. Olson,  B. Peters,  R. Peverati,  P. A. Pieniazek,  
 Y. M. Rhee,  J. Ritchie,  M. A. Rohrdanz,  E. Rosta,  N. J. Russ,  
 H. F. Schaefer III,  N. E. Schultz,  N. Shenvi,  A. C. Simmonett,  A. Sodt,  
 D. Stuck,  K. S. Thanthiriwatte,  V. Vanovschi,  Tao Wang,  A. Warshel,  
 C. F. Williams,  Q. Wu,  X. Xu,  W. Zhang

 Please cite Q-Chem as follows:
 Y. Shao et al., Mol. Phys. 113, 184-215 (2015)
 DOI: 10.1080/00268976.2014.952696

 Q-Chem 5.1.1 for Intel X86 EM64T Linux

 Parts of Q-Chem use Armadillo 8.300.2 (Tropical Shenanigans).
 http://arma.sourceforge.net/

 Q-Chem begins on Mon Mar 11 21:46:40 2019  

Host: 
0

     Scratch files written to /staging/scratch/2858534/qchem17286//
 Aug318 |scratch|qcdevops|jenkins|workspace|build_RNUM 6013   
Processing $rem in /usr/usc/qchem/5.1.1/config/preferences.
 MEM_TOTAL  2000 
Input Ideriv = 2
Curr. Ideriv = -1
Max.  Ideriv = 2

Checking the input file for inconsistencies... 	...done.

--------------------------------------------------------------
User input:
--------------------------------------------------------------

$comment
potential surface scanner
$end

$rem
JOBTYPE  PES_SCAN
UNRESTRICTED TRUE
SYM_IGNORE  TRUE
GEOM_OPT_MAX_CYCLES 400
SCF_MAX_CYCLES 400
METHOD   B3LYP
BASIS   6-31G**
PDB_PRINT 2
SCF_CONVERGENCE 6
THRESH 14
SCF_PRINT 1
$end
$molecule
0 1
Cl 1.078017 -2.413730 -0.724787
Cl 1.018052 1.718442 -0.181825
C -1.050742 0.154761 0.768122
C 0.388470 0.461000 0.741654
C -1.726278 -0.001939 -0.608577
H -1.535014 0.986780 1.314510
H -1.175567 -0.751301 1.366040
H 1.105063 -0.012575 1.404610
H -1.259265 -0.844050 -1.126261
H -2.791089 -0.199409 -0.464001
H -1.623749 0.902021 -1.214090
$end
$scan
stre 1 4 3.400000 3.401000 0.100000
$end
--------------------------------------------------------------
 ----------------------------------------------------------------
             Standard Nuclear Orientation (Angstroms)
    I     Atom           X                Y                Z
 ----------------------------------------------------------------
    1      Cl      1.0780170000    -2.4137300000    -0.7247870000
    2      Cl      1.0180520000     1.7184420000    -0.1818250000
    3      C      -1.0507420000     0.1547610000     0.7681220000
    4      C       0.3884700000     0.4610000000     0.7416540000
    5      C      -1.7262780000    -0.0019390000    -0.6085770000
    6      H      -1.5350140000     0.9867800000     1.3145100000
    7      H      -1.1755670000    -0.7513010000     1.3660400000
    8      H       1.1050630000    -0.0125750000     1.4046100000
    9      H      -1.2592650000    -0.8440500000    -1.1262610000
   10      H      -2.7910890000    -0.1994090000    -0.4640010000
   11      H      -1.6237490000     0.9020210000    -1.2140900000
 ----------------------------------------------------------------
 Nuclear Repulsion Energy =   251.2522757393 hartrees
 There are       29 alpha and       29 beta electrons
 Requested basis set is 6-31G(d,p)
 There are 40 shells and 113 basis functions

 Total QAlloc Memory Limit   2000 MB
 Mega-Array Size       188 MB
 MEM_STATIC part       192 MB
A total of 1 constraints
  
            1
    1   1.0100000
    2   1.0100000
    3   4.0100000
    4   3.4000000
    5   3.4010000
    6   0.1000000
    7   0.0000000
    8   0.0000000
    9   0.0000000
   10   0.0000000

                       Distance Matrix (Angstroms)
             Cl(  1)   Cl(  2)   C (  3)   C (  4)   C (  5)   H (  6)
   Cl(  2)  4.168123
   C (  3)  3.654797  2.761776
   C (  4)  3.300000  1.682364  1.471671
   C (  5)  3.700583  3.266983  1.541494  2.551391
   H (  6)  4.748698  3.048359  1.106939  2.074705  2.170809
   H (  7)  3.494835  3.647942  1.092719  2.075029  2.182645  1.775608
   H (  8)  3.209456  2.349631  2.254022  1.085030  3.474122  2.824329
   H (  9)  2.843935  3.555910  2.151695  2.811991  1.093274  3.063550
   H ( 10)  4.465558  4.274030  2.161567  3.464006  1.092575  2.479490
   H ( 11)  4.305016  2.951479  2.194516  2.840503  1.092841  2.531576
             H (  7)   H (  8)   H (  9)   H ( 10)
   H (  8)  2.397598
   H (  9)  2.495430  3.561840
   H ( 10)  2.502708  4.325114  1.789032
   H ( 11)  3.097000  3.891078  1.785869  1.771571
 
 A cutoff of  1.0D-14 yielded    772 shell pairs
 There are      6331 function pairs
 
 -------------------------------------------------------
 OpenMP Integral Computing Module                       
 Release: version 1.0, May 2013, Q-Chem Inc. Pittsburgh 
 -------------------------------------------------------
 Integral Job Info:
 Integral job number is                      11
 Integral operator is                         1
 short-range coefficients                     0
 long-range coefficients              100000000
 Omega coefficients                           0
 if combine SR and LR in K                    0
 Integral screening is                        0
 Integral computing path is                   2
 max size of driver memory is            800000
 size of driver memory is                593474
 size of scratch memory is             15267112
 max col of scratch BK array               1296
 max len of scratch array in speh3          155
 max len of scratch index in speh4           18
 max int batch size is                      520
 min int batch size is                       52
 fixed nKL is                                52
 max L of basis functions is                  2
 order of int derivative is                   0
 number of shells is                         40
 number of basis is                         113
 number of cartesian basis is               113
 number of contracted shell pairs           772
 number of primitive shell pairs           3099
 maxK2 (contraction) of shell pair           36
 max number of K2 of shell pair               1
 max number of CS2 of shell pair             60
 max number of PS2 of shell pair            360
 mem total for path MDJ                  516600
 -------------------------------------------------------
 Smallest overlap matrix eigenvalue = 5.62E-03

 Scale SEOQF with 1.000000e-01/1.000000e-01/1.000000e+00

 Standard Electronic Orientation quadrupole field applied
 Nucleus-field energy     =    -0.0000000152 hartrees
 Guess from superposition of atomic densities
 Warning:  Energy on first SCF cycle will be non-variational
 SAD guess density has 58.000000 electrons

 -----------------------------------------------------------------------
  General SCF calculation program by
  Eric Jon Sundstrom, Paul Horn, Yuezhi Mao, Dmitri Zuev, Alec White,
  David Stuck, Shaama M.S., Shane Yost, Joonho Lee, David Small,
  Daniel Levine, Susi Lehtola, Hugh Burton, Evgeny Epifanovsky
 -----------------------------------------------------------------------
 Exchange:     0.2000 Hartree-Fock + 0.0800 Slater + 0.7200 B88
 Correlation:  0.1900 VWN1RPA + 0.8100 LYP
 Using SG-1 standard quadrature grid
 using 12 threads for integral computing
 -------------------------------------------------------
 OpenMP Integral computing Module                
 Release: version 1.0, May 2013, Q-Chem Inc. Pittsburgh 
 -------------------------------------------------------
 -------------------------------------------------------
 OpenMP BLAS3 based DFT computing Module                
 Release: version 1.0, May 2013, Q-Chem Inc. Pittsburgh 
 -------------------------------------------------------
 A unrestricted SCF calculation will be
 performed using DIIS
 SCF converges when DIIS error is below 1.0e-06
 Alpha HF Exchange    Energy =  -7.27726596617250
 Beta HF Exchange     Energy =  -7.27726596617250
 DFT Correlation      Energy =  -2.75799310056724
 DFT Exchange         Energy = -57.34168210748462
 One-Electron (alpha) Energy = -962.33755642172616
 One-Electron (beta)  Energy = -962.33755642172616
 Total Coulomb        Energy = 709.36287657009257
 ---------------------------------------
  Cycle       Energy         DIIS error
 ---------------------------------------
    1   -1038.7141676896      2.76e-02  
 Alpha HF Exchange    Energy =  -7.29496996427215
 Beta HF Exchange     Energy =  -7.29496996427215
 DFT Correlation      Energy =  -2.78134620242866
 DFT Exchange         Energy = -57.87797414860668
 One-Electron (alpha) Energy = -965.35974926095082
 One-Electron (beta)  Energy = -965.35974926095059
 Total Coulomb        Energy = 716.62681867837921
    2   -1038.0896643990      3.97e-03  
 Alpha HF Exchange    Energy =  -7.27823045512748
 Beta HF Exchange     Energy =  -7.27823045512747
 DFT Correlation      Energy =  -2.77858417197009
 DFT Exchange         Energy = -57.72706239979131
 One-Electron (alpha) Energy = -963.78082005236411
 One-Electron (beta)  Energy = -963.78082005236388
 Total Coulomb        Energy = 717.71889653461221
    3   -1033.6525753280      1.57e-02  
 Alpha HF Exchange    Energy =  -7.24828700082679
 Beta HF Exchange     Energy =  -7.24828700082680
 DFT Correlation      Energy =  -2.76271965139573
 DFT Exchange         Energy = -57.49680512797843
 One-Electron (alpha) Energy = -962.58235286673255
 One-Electron (beta)  Energy = -962.58235286673312
 Total Coulomb        Energy = 710.51507609283476
    4   -1038.1534526975      2.97e-03  
 Alpha HF Exchange    Energy =  -7.25256864555552
 Beta HF Exchange     Energy =  -7.25256864555552
 DFT Correlation      Energy =  -2.77118577957557
 DFT Exchange         Energy = -57.59734937287551
 One-Electron (alpha) Energy = -963.65185207301022
 One-Electron (beta)  Energy = -963.65185207300976
 Total Coulomb        Energy = 712.69103732552298
    5   -1038.2340635399      1.31e-03  
 Alpha HF Exchange    Energy =  -7.25896930521376
 Beta HF Exchange     Energy =  -7.25896930521377
 DFT Correlation      Energy =  -2.77138992834843
 DFT Exchange         Energy = -57.63422687024608
 One-Electron (alpha) Energy = -963.90815682214156
 One-Electron (beta)  Energy = -963.90815682214145
 Total Coulomb        Energy = 713.24069402598866
    6   -1038.2468993032      3.42e-04  
 Alpha HF Exchange    Energy =  -7.25661928267717
 Beta HF Exchange     Energy =  -7.25661928267718
 DFT Correlation      Energy =  -2.77111733499312
 DFT Exchange         Energy = -57.61929944867336
 One-Electron (alpha) Energy = -963.78708013862695
 One-Electron (beta)  Energy = -963.78708013862718
 Total Coulomb        Energy = 712.97809245680230
    7   -1038.2474474453      2.06e-04  
 Alpha HF Exchange    Energy =  -7.25651170076416
 Beta HF Exchange     Energy =  -7.25651170076416
 DFT Correlation      Energy =  -2.77092035893547
 DFT Exchange         Energy = -57.61673594307575
 One-Electron (alpha) Energy = -963.75863132387985
 One-Electron (beta)  Energy = -963.75863132387951
 Total Coulomb        Energy = 712.91795103054005
    8   -1038.2477155966      8.08e-05  
 Alpha HF Exchange    Energy =  -7.25736628670948
 Beta HF Exchange     Energy =  -7.25736628670949
 DFT Correlation      Energy =  -2.77101940901071
 DFT Exchange         Energy = -57.62131500766589
 One-Electron (alpha) Energy = -963.79162345156726
 One-Electron (beta)  Energy = -963.79162345156749
 Total Coulomb        Energy = 712.99030804091365
    9   -1038.2477301282      6.62e-05  
 Alpha HF Exchange    Energy =  -7.25708591229621
 Beta HF Exchange     Energy =  -7.25708591229622
 DFT Correlation      Energy =  -2.77100933432737
 DFT Exchange         Energy = -57.62026754607184
 One-Electron (alpha) Energy = -963.78547777629694
 One-Electron (beta)  Energy = -963.78547777629706
 Total Coulomb        Energy = 712.97634355950129
   10   -1038.2477849739      1.43e-06  
 Alpha HF Exchange    Energy =  -7.25708402287934
 Beta HF Exchange     Energy =  -7.25708402287934
 DFT Correlation      Energy =  -2.77100941986585
 DFT Exchange         Energy = -57.62025453792209
 One-Electron (alpha) Energy = -963.78560909893190
 One-Electron (beta)  Energy = -963.78560909893190
 Total Coulomb        Energy = 712.97658946458478
   11   -1038.2477850127      6.82e-07  Convergence criterion met
 ---------------------------------------
 SCF time:   CPU 29.35s  wall 3.00s 
<S^2> =         -0.000000000
 Alpha HF Exchange    Energy =  -7.25708402287934
 Beta HF Exchange     Energy =  -7.25708402287934
 DFT Correlation      Energy =  -2.77100941986585
 DFT Exchange         Energy = -57.62025453792209
 One-Electron (alpha) Energy = -963.78560909893190
 One-Electron (beta)  Energy = -963.78560909893190
 Total Coulomb        Energy = 712.97658946458478
 Nuclear repulsion Energy = 251.25227572413812
 SCF   energy in the final basis set =    -1038.2477850127
 Total energy in the final basis set =    -1038.2477850127
 
 --------------------------------------------------------------
 
                    Orbital Energies (a.u.)
 --------------------------------------------------------------
 
 Alpha MOs
 -- Occupied --
*******-101.455 -10.360 -10.253 -10.209  -9.549  -9.367  -7.312
 -7.305  -7.302  -7.130  -7.123  -7.123  -0.960  -0.830  -0.718
 -0.694  -0.631  -0.546  -0.508  -0.482  -0.434  -0.411  -0.400
 -0.386  -0.372  -0.241  -0.231  -0.230
 -- Virtual --
 -0.167  -0.003   0.067   0.085   0.125   0.140   0.150   0.182
  0.185   0.212   0.312   0.367   0.379   0.408   0.423   0.452
  0.482   0.485   0.504   0.515   0.555   0.580   0.593   0.638
  0.663   0.685   0.746   0.779   0.795   0.807   0.820   0.839
  0.851   0.874   0.891   0.897   0.921   0.961   0.966   0.969
  0.979   1.016   1.030   1.070   1.202   1.263   1.418   1.470
  1.592   1.624   1.667   1.797   1.848   1.868   1.983   2.023
  2.032   2.053   2.081   2.118   2.218   2.227   2.336   2.364
  2.414   2.499   2.527   2.655   2.669   2.745   2.785   2.857
  2.877   3.176   3.230   3.267   3.362   3.433   3.494   4.056
  4.267   4.307   4.370   4.562
 
 Beta MOs
 -- Occupied --
*******-101.455 -10.360 -10.253 -10.209  -9.549  -9.367  -7.312
 -7.305  -7.302  -7.130  -7.123  -7.123  -0.960  -0.830  -0.718
 -0.694  -0.631  -0.546  -0.508  -0.482  -0.434  -0.411  -0.400
 -0.386  -0.372  -0.241  -0.231  -0.230
 -- Virtual --
 -0.167  -0.003   0.067   0.085   0.125   0.140   0.150   0.182
  0.185   0.212   0.312   0.367   0.379   0.408   0.423   0.452
  0.482   0.485   0.504   0.515   0.555   0.580   0.593   0.638
  0.663   0.685   0.746   0.779   0.795   0.807   0.820   0.839
  0.851   0.874   0.891   0.897   0.921   0.961   0.966   0.969
  0.979   1.016   1.030   1.070   1.202   1.263   1.418   1.470
  1.592   1.624   1.667   1.797   1.848   1.868   1.983   2.023
  2.032   2.053   2.081   2.118   2.218   2.227   2.336   2.364
  2.414   2.499   2.527   2.655   2.669   2.745   2.785   2.857
  2.877   3.176   3.230   3.267   3.362   3.433   3.494   4.056
  4.267   4.307   4.370   4.562
 --------------------------------------------------------------
 
          Ground-State Mulliken Net Atomic Charges

     Atom                 Charge (a.u.)    Spin (a.u.)
  --------------------------------------------------------
      1 Cl                   -0.535557      -0.000000
      2 Cl                    0.172129      -0.000000
      3 C                    -0.220313       0.000000
      4 C                    -0.093227       0.000000
      5 C                    -0.330492      -0.000000
      6 H                     0.156736      -0.000000
      7 H                     0.176866       0.000000
      8 H                     0.232775       0.000000
      9 H                     0.190723      -0.000000
     10 H                     0.126230      -0.000000
     11 H                     0.124131      -0.000000
  --------------------------------------------------------
  Sum of atomic charges =    -0.000000
  Sum of spin   charges =    -0.000000

 -----------------------------------------------------------------
                    Cartesian Multipole Moments
 -----------------------------------------------------------------
    Charge (ESU x 10^10)
                 0.0000
    Dipole Moment (Debye)
         X      -2.9151      Y       6.5309      Z       3.3908
       Tot       7.9151
    Quadrupole Moments (Debye-Ang)
        XX     -44.4783     XY       7.0492     YY     -56.4080
        XZ       2.1435     YZ      -4.0594     ZZ     -43.2425
    Octopole Moments (Debye-Ang^2)
       XXX     -37.1124    XXY      17.3081    XYY     -21.4148
       YYY      62.7921    XXZ      10.5665    XYZ      -5.2201
       YYZ      13.2702    XZZ     -10.5540    YZZ      12.9082
       ZZZ      25.3507
    Hexadecapole Moments (Debye-Ang^3)
      XXXX    -412.3301   XXXY      56.5758   XXYY    -207.3028
      XYYY      80.9968   YYYY    -811.7394   XXXZ      27.5362
      XXYZ     -28.3766   XYYZ      10.5416   YYYZ     -87.6780
      XXZZ     -95.7032   XYZZ      18.4163   YYZZ    -157.4108
      XZZZ      27.5408   YZZZ     -72.2543   ZZZZ    -171.7582
 -----------------------------------------------------------------
 Calculating analytic gradient of the SCF energy
 Gradient of SCF Energy
            1           2           3           4           5           6
    1   0.0047143  -0.0000448  -0.0001464  -0.0046983   0.0002134  -0.0000382
    2  -0.0196557  -0.0000452  -0.0000791   0.0197165   0.0000251  -0.0000448
    3  -0.0100701   0.0001199  -0.0001481   0.0099711   0.0001506   0.0000441
            7           8           9          10          11
    1   0.0000279  -0.0000168  -0.0000002  -0.0000032  -0.0000076
    2  -0.0000546   0.0000428   0.0000856  -0.0000122   0.0000217
    3  -0.0000717   0.0000868   0.0000241  -0.0000787  -0.0000279
 Max gradient component =       1.972E-02
 RMS gradient           =       5.561E-03
 Gradient time:  CPU 9.74 s  wall 0.91 s
 Geometry Optimization Parameters
   NAtoms,    NIC,     NZ,  NCons,   NDum,   NFix, NCnnct, MaxDiis
       11      66       0       1       0       0       0       0


** CONSTRAINED OPTIMIZATION IN DELOCALIZED INTERNAL COORDINATES **
   Searching for a Minimum

   Optimization Cycle:   1

                       Coordinates (Angstroms)
     ATOM                X               Y               Z
      1  Cl        1.0780170000   -2.4137300000   -0.7247870000
      2  Cl        1.0180520000    1.7184420000   -0.1818250000
      3  C        -1.0507420000    0.1547610000    0.7681220000
      4  C         0.3884700000    0.4610000000    0.7416540000
      5  C        -1.7262780000   -0.0019390000   -0.6085770000
      6  H        -1.5350140000    0.9867800000    1.3145100000
      7  H        -1.1755670000   -0.7513010000    1.3660400000
      8  H         1.1050630000   -0.0125750000    1.4046100000
      9  H        -1.2592650000   -0.8440500000   -1.1262610000
     10  H        -2.7910890000   -0.1994090000   -0.4640010000
     11  H        -1.6237490000    0.9020210000   -1.2140900000
   Point Group: c1    Number of degrees of freedom:    27


   Energy is  -1038.247785013

              Constraints and their Current Values
                                        Value     Constraint
   Distance(Angs):        1   4             3.300000     3.400000

 Attempting to Generate Delocalized Internal Coordinates

   Using Lagrange Multiplier Algorithm


 28 Hessian modes will be used to form the next step
  Hessian Eigenvalues:
    -0.991758    0.017821    0.045000    0.045000    0.045372    0.047284
     0.071141    0.080897    0.081285    0.085192    0.114642    0.122366
     0.138776    0.141959    0.160000    0.160000    0.218559    0.220199
     0.283253    0.329262    0.339281    0.344864    0.345003    0.345168
     0.353934    0.355406    0.380995    1.008310

 Minimum Search - Taking P-RFO Step
 Searching for Lamda that Maximizes Along the Constraint modes Only
 Value Taken    Lamda =   0.02221845


 ********************************************
 ** ERROR IN DETERMINING Lamda IN CONFormD **
 ********************************************


 ** Scaling Hessian by  2.493480 **


 28 Hessian modes will be used to form the next step
  Hessian Eigenvalues:
    -0.979577    0.044437    0.112207    0.112207    0.113135    0.117901
     0.177389    0.201715    0.202684    0.212424    0.285859    0.305116
     0.346035    0.353973    0.398957    0.398957    0.544973    0.549062
     0.706287    0.821009    0.845991    0.859910    0.860257    0.860670
     0.882527    0.886199    0.950003    1.020849

 Minimum Search - Taking P-RFO Step
 Searching for Lamda that Maximizes Along the Constraint modes Only
 Value Taken    Lamda =   0.02269416
 Searching for Lamda that Minimizes Along All other modes
 Value Taken    Lamda =  -0.01303503
 Step Taken.  Stepsize is  0.185515

                             Maximum     Tolerance    Cnvgd?
         Gradient            0.188974       0.000300      NO
         Displacement        0.185510       0.001200      NO
         Energy change     *********       0.000001      NO


 New Cartesian Coordinates Obtained by Inverse Iteration

 Displacement from previous Coordinates is:  0.200800
 ----------------------------------------------------------------
             Standard Nuclear Orientation (Angstroms)
    I     Atom           X                Y                Z
 ----------------------------------------------------------------
    1      Cl      1.0644551441    -2.4692661471    -0.7892391510
    2      Cl      1.0171648221     1.7331518358    -0.1699302090
    3      C      -1.0503582864     0.1635115187     0.7728880951
    4      C       0.3868443187     0.4793379397     0.7580543302
    5      C      -1.7184144102    -0.0098966575    -0.6068747395
    6      H      -1.5426686207     0.9983814191     1.3075990524
    7      H      -1.1751274264    -0.7377049188     1.3781120483
    8      H       1.0999788161     0.0161405396     1.4319701834
    9      H      -1.2551812889    -0.8554962085    -1.1282756822
   10      H      -2.7828442389    -0.2095291883    -0.4625217637
   11      H      -1.6159508294     0.8913698672    -1.2163871639
 ----------------------------------------------------------------
 Nuclear Repulsion Energy =   249.4624260033 hartrees
 There are       29 alpha and       29 beta electrons

                       Distance Matrix (Angstroms)
             Cl(  1)   Cl(  2)   C (  3)   C (  4)   C (  5)   H (  6)
   Cl(  2)  4.248070
   C (  3)  3.720779  2.761762
   C (  4)  3.398167  1.682412  1.471570
   C (  5)  3.718349  3.273001  1.542762  2.556266
   H (  6)  4.818548  3.045608  1.106930  2.072300  2.170880
   H (  7)  3.565311  3.647974  1.092728  2.074951  2.182897  1.775966
   H (  8)  3.333509  2.349696  2.253898  1.085023  3.478636  2.822030
   H (  9)  2.846034  3.575344  2.166738  2.834832  1.096122  3.074573
   H ( 10)  4.473798  4.277813  2.160302  3.465728  1.092567  2.475967
   H ( 11)  4.319827  2.955836  2.192462  2.842425  1.092834  2.527316
             H (  7)   H (  8)   H (  9)   H ( 10)
   H (  8)  2.397351
   H (  9)  2.510431  3.586278
   H ( 10)  2.500331  4.326239  1.787248
   H ( 11)  3.095099  3.893083  1.785906  1.772550
 
 Applying Cartesian multipole field
    Component          Value
    ---------          -----
     (2,0,0)        1.00000E-11
     (0,2,0)        2.00000E-11
     (0,0,2)       -3.00000E-10
 Nucleus-field energy     =    -0.0000000168 hartrees
 Requested basis set is 6-31G(d,p)
 There are 40 shells and 113 basis functions
 A cutoff of  1.0D-14 yielded    771 shell pairs
 There are      6319 function pairs
 Smallest overlap matrix eigenvalue = 5.63E-03
 Guess from superposition of atomic densities
 Warning:  Energy on first SCF cycle will be non-variational
 SAD guess density has 58.000000 electrons

 -----------------------------------------------------------------------
  General SCF calculation program by
  Eric Jon Sundstrom, Paul Horn, Yuezhi Mao, Dmitri Zuev, Alec White,
  David Stuck, Shaama M.S., Shane Yost, Joonho Lee, David Small,
  Daniel Levine, Susi Lehtola, Hugh Burton, Evgeny Epifanovsky
 -----------------------------------------------------------------------
 Exchange:     0.2000 Hartree-Fock + 0.0800 Slater + 0.7200 B88
 Correlation:  0.1900 VWN1RPA + 0.8100 LYP
 Using SG-1 standard quadrature grid
 using 12 threads for integral computing
 -------------------------------------------------------
 OpenMP Integral computing Module                
 Release: version 1.0, May 2013, Q-Chem Inc. Pittsburgh 
 -------------------------------------------------------
 -------------------------------------------------------
 OpenMP BLAS3 based DFT computing Module                
 Release: version 1.0, May 2013, Q-Chem Inc. Pittsburgh 
 -------------------------------------------------------
 A unrestricted SCF calculation will be
 performed using DIIS
 SCF converges when DIIS error is below 1.0e-06
 Alpha HF Exchange    Energy =  -7.27668646310317
 Beta HF Exchange     Energy =  -7.27668646310317
 DFT Correlation      Energy =  -2.75745422658631
 DFT Exchange         Energy = -57.34072877206481
 One-Electron (alpha) Energy = -960.54960319265763
 One-Electron (beta)  Energy = -960.54960319265763
 Total Coulomb        Energy = 707.57848478492986
 ---------------------------------------
  Cycle       Energy         DIIS error
 ---------------------------------------
    1   -1038.7098515388      2.76e-02  
 Alpha HF Exchange    Energy =  -7.29484007303418
 Beta HF Exchange     Energy =  -7.29484007303417
 DFT Correlation      Energy =  -2.78087152868933
 DFT Exchange         Energy = -57.87680002191554
 One-Electron (alpha) Energy = -963.55745955831389
 One-Electron (beta)  Energy = -963.55745955831321
 Total Coulomb        Energy = 714.81584137963807
    2   -1038.0840034472      3.98e-03  
 Alpha HF Exchange    Energy =  -7.27798001242065
 Beta HF Exchange     Energy =  -7.27798001242064
 DFT Correlation      Energy =  -2.77814735740090
 DFT Exchange         Energy = -57.72541987030263
 One-Electron (alpha) Energy = -962.04713024845000
 One-Electron (beta)  Energy = -962.04713024844943
 Total Coulomb        Energy = 716.08809261653550
    3   -1033.6032691464      1.58e-02  
 Alpha HF Exchange    Energy =  -7.24809712796646
 Beta HF Exchange     Energy =  -7.24809712796645
 DFT Correlation      Energy =  -2.76219811856780
 DFT Exchange         Energy = -57.49509770463641
 One-Electron (alpha) Energy = -960.77789937122327
 One-Electron (beta)  Energy = -960.77789937122293
 Total Coulomb        Energy = 708.69902046926995
    4   -1038.1478423658      2.96e-03  
 Alpha HF Exchange    Energy =  -7.25124397655639
 Beta HF Exchange     Energy =  -7.25124397655640
 DFT Correlation      Energy =  -2.77075189382841
 DFT Exchange         Energy = -57.59402085992751
 One-Electron (alpha) Energy = -961.85212749675225
 One-Electron (beta)  Energy = -961.85212749675270
 Total Coulomb        Energy = 710.88715453267639
    5   -1038.2219351812      1.61e-03  
 Alpha HF Exchange    Energy =  -7.25902588999944
 Beta HF Exchange     Energy =  -7.25902588999943
 DFT Correlation      Energy =  -2.77084285396038
 DFT Exchange         Energy = -57.63357900641532
 One-Electron (alpha) Energy = -962.10804336069191
 One-Electron (beta)  Energy = -962.10804336069157
 Total Coulomb        Energy = 711.43366636944006
    6   -1038.2424680058      3.83e-04  
 Alpha HF Exchange    Energy =  -7.25586245801286
 Beta HF Exchange     Energy =  -7.25586245801287
 DFT Correlation      Energy =  -2.77060548772483
 DFT Exchange         Energy = -57.61676300929258
 One-Electron (alpha) Energy = -961.98226366147389
 One-Electron (beta)  Energy = -961.98226366147469
 Total Coulomb        Energy = 711.15806950084993
    7   -1038.2431252487      2.63e-04  
 Alpha HF Exchange    Energy =  -7.25575680066943
 Beta HF Exchange     Energy =  -7.25575680066942
 DFT Correlation      Energy =  -2.77040960407450
 DFT Exchange         Energy = -57.61435445226567
 One-Electron (alpha) Energy = -961.95749097511157
 One-Electron (beta)  Energy = -961.95749097511145
 Total Coulomb        Energy = 711.10534066158493
    8   -1038.2434929598      1.31e-04  
 Alpha HF Exchange    Energy =  -7.25674705772411
 Beta HF Exchange     Energy =  -7.25674705772411
 DFT Correlation      Energy =  -2.77048954590162
 DFT Exchange         Energy = -57.61899744082343
 One-Electron (alpha) Energy = -961.98816009534892
 One-Electron (beta)  Energy = -961.98816009534914
 Total Coulomb        Energy = 711.17323283642702
    9   -1038.2436424700      6.03e-05  
 Alpha HF Exchange    Energy =  -7.25655072906550
 Beta HF Exchange     Energy =  -7.25655072906550
 DFT Correlation      Energy =  -2.77049557688409
 DFT Exchange         Energy = -57.61857644704686
 One-Electron (alpha) Energy = -961.98713740625476
 One-Electron (beta)  Energy = -961.98713740625476
 Total Coulomb        Energy = 711.17033298886304
   10   -1038.2436893192      1.77e-06  
 Alpha HF Exchange    Energy =  -7.25654954761811
 Beta HF Exchange     Energy =  -7.25654954761811
 DFT Correlation      Energy =  -2.77049459823738
 DFT Exchange         Energy = -57.61855325492716
 One-Electron (alpha) Energy = -961.98703091367895
 One-Electron (beta)  Energy = -961.98703091367861
 Total Coulomb        Energy = 711.17009341750190
   11   -1038.2436893718      5.42e-07  Convergence criterion met
 ---------------------------------------
 SCF time:   CPU 28.82s  wall 3.00s 
<S^2> =         -0.000000000
 Alpha HF Exchange    Energy =  -7.25654954761811
 Beta HF Exchange     Energy =  -7.25654954761811
 DFT Correlation      Energy =  -2.77049459823738
 DFT Exchange         Energy = -57.61855325492716
 One-Electron (alpha) Energy = -961.98703091367895
 One-Electron (beta)  Energy = -961.98703091367861
 Total Coulomb        Energy = 711.17009341750190
 Nuclear repulsion Energy = 249.46242598647581
 SCF   energy in the final basis set =    -1038.2436893718
 Total energy in the final basis set =    -1038.2436893718
 
 --------------------------------------------------------------
 
                    Orbital Energies (a.u.)
 --------------------------------------------------------------
 
 Alpha MOs
 -- Occupied --
*******-101.453 -10.361 -10.255 -10.210  -9.551  -9.365  -7.314
 -7.306  -7.303  -7.128  -7.121  -7.121  -0.962  -0.831  -0.719
 -0.692  -0.633  -0.547  -0.509  -0.483  -0.436  -0.412  -0.400
 -0.387  -0.373  -0.238  -0.229  -0.228
 -- Virtual --
 -0.170  -0.005   0.065   0.083   0.124   0.139   0.149   0.181
  0.184   0.212   0.311   0.366   0.378   0.407   0.422   0.452
  0.480   0.484   0.504   0.513   0.554   0.580   0.591   0.636
  0.662   0.682   0.744   0.778   0.791   0.806   0.818   0.839
  0.849   0.874   0.891   0.897   0.921   0.962   0.968   0.971
  0.973   1.012   1.029   1.067   1.199   1.261   1.420   1.465
  1.592   1.622   1.663   1.794   1.846   1.866   1.981   2.023
  2.032   2.052   2.081   2.116   2.214   2.226   2.335   2.361
  2.412   2.496   2.525   2.655   2.670   2.742   2.783   2.856
  2.872   3.173   3.228   3.265   3.361   3.432   3.491   4.052
  4.265   4.307   4.367   4.560
 
 Beta MOs
 -- Occupied --
*******-101.453 -10.361 -10.255 -10.210  -9.551  -9.365  -7.314
 -7.306  -7.303  -7.128  -7.121  -7.121  -0.962  -0.831  -0.719
 -0.692  -0.633  -0.547  -0.509  -0.483  -0.436  -0.412  -0.400
 -0.387  -0.373  -0.238  -0.229  -0.228
 -- Virtual --
 -0.170  -0.005   0.065   0.083   0.124   0.139   0.149   0.181
  0.184   0.212   0.311   0.366   0.378   0.407   0.422   0.452
  0.480   0.484   0.504   0.513   0.554   0.580   0.591   0.636
  0.662   0.682   0.744   0.778   0.791   0.806   0.818   0.839
  0.849   0.874   0.891   0.897   0.921   0.962   0.968   0.971
  0.973   1.012   1.029   1.067   1.199   1.261   1.420   1.465
  1.592   1.622   1.663   1.794   1.846   1.866   1.981   2.023
  2.032   2.052   2.081   2.116   2.214   2.226   2.335   2.361
  2.412   2.496   2.525   2.655   2.670   2.742   2.783   2.856
  2.872   3.173   3.228   3.265   3.361   3.432   3.491   4.052
  4.265   4.307   4.367   4.560
 --------------------------------------------------------------
 
          Ground-State Mulliken Net Atomic Charges

     Atom                 Charge (a.u.)    Spin (a.u.)
  --------------------------------------------------------
      1 Cl                   -0.537966       0.000000
      2 Cl                    0.174588      -0.000000
      3 C                    -0.221410       0.000000
      4 C                    -0.093574      -0.000000
      5 C                    -0.330518      -0.000000
      6 H                     0.158045      -0.000000
      7 H                     0.176750      -0.000000
      8 H                     0.231145       0.000000
      9 H                     0.192213       0.000000
     10 H                     0.126585       0.000000
     11 H                     0.124141       0.000000
  --------------------------------------------------------
  Sum of atomic charges =     0.000000
  Sum of spin   charges =    -0.000000

 -----------------------------------------------------------------
                    Cartesian Multipole Moments
 -----------------------------------------------------------------
    Charge (ESU x 10^10)
                -0.0000
    Dipole Moment (Debye)
         X      -2.9120      Y       6.7561      Z       3.5816
       Tot       8.1824
    Quadrupole Moments (Debye-Ang)
        XX     -44.4067     XY       7.2116     YY     -57.0945
        XZ       2.3183     YZ      -4.4941     ZZ     -43.3753
    Octopole Moments (Debye-Ang^2)
       XXX     -36.5940    XXY      17.9423    XYY     -21.8853
       YYY      67.1185    XXZ      11.3678    XYZ      -5.7138
       YYZ      15.2440    XZZ     -10.6074    YZZ      14.0336
       ZZZ      27.6415
    Hexadecapole Moments (Debye-Ang^3)
      XXXX    -408.5881   XXXY      57.2312   XXYY    -211.7667
      XYYY      83.9046   YYYY    -846.3865   XXXZ      29.8368
      XXYZ     -31.9628   XYYZ      12.4810   YYYZ    -100.7917
      XXZZ     -96.6956   XYZZ      19.1879   YYZZ    -164.8063
      XZZZ      30.1712   YZZZ     -82.5065   ZZZZ    -180.8467
 -----------------------------------------------------------------
 Calculating analytic gradient of the SCF energy
 Gradient of SCF Energy
            1           2           3           4           5           6
    1   0.0042853  -0.0000055  -0.0008578  -0.0035989   0.0000893   0.0003187
    2  -0.0182136   0.0003216   0.0012706   0.0174094   0.0004107   0.0000211
    3  -0.0096990  -0.0001394   0.0005553   0.0099054   0.0011761   0.0001012
            7           8           9          10          11
    1   0.0000640  -0.0002508  -0.0005319   0.0001606   0.0003270
    2  -0.0000868   0.0004212  -0.0011288  -0.0004190  -0.0000065
    3  -0.0002608   0.0003879  -0.0020734  -0.0000765   0.0001233
 Max gradient component =       1.821E-02
 RMS gradient           =       5.133E-03
 Gradient time:  CPU 9.39 s  wall 0.88 s
 Geometry Optimization Parameters
   NAtoms,    NIC,     NZ,  NCons,   NDum,   NFix, NCnnct, MaxDiis
       11      66       0       1       0       0       0       0

 Cartesian Hessian Update
 Hessian Updated using BFGS Update
**WARNING** Hereditary positive definiteness endangered


** CONSTRAINED OPTIMIZATION IN DELOCALIZED INTERNAL COORDINATES **
   Searching for a Minimum

   Optimization Cycle:   2

                       Coordinates (Angstroms)
     ATOM                X               Y               Z
      1  Cl        1.0644551441   -2.4692661471   -0.7892391510
      2  Cl        1.0171648221    1.7331518358   -0.1699302090
      3  C        -1.0503582864    0.1635115187    0.7728880951
      4  C         0.3868443187    0.4793379397    0.7580543302
      5  C        -1.7184144102   -0.0098966575   -0.6068747395
      6  H        -1.5426686207    0.9983814191    1.3075990524
      7  H        -1.1751274264   -0.7377049188    1.3781120483
      8  H         1.0999788161    0.0161405396    1.4319701834
      9  H        -1.2551812889   -0.8554962085   -1.1282756822
     10  H        -2.7828442389   -0.2095291883   -0.4625217637
     11  H        -1.6159508294    0.8913698672   -1.2163871639
   Point Group: c1    Number of degrees of freedom:    27


   Energy is  -1038.243689372

              Constraints and their Current Values
                                        Value     Constraint
   Distance(Angs):        1   4             3.398167     3.400000
 Hessian Updated using BFGS Update
**WARNING** Hereditary positive definiteness endangered

   Using Lagrange Multiplier Algorithm


 28 Hessian modes will be used to form the next step
  Hessian Eigenvalues:
    -1.003027    0.044272    0.110152    0.112206    0.112646    0.116193
     0.176650    0.201207    0.202563    0.212415    0.285571    0.304891
     0.345929    0.353925    0.366716    0.398956    0.542172    0.548895
     0.702374    0.820963    0.838272    0.859892    0.860237    0.860648
     0.882457    0.885715    0.949196    0.997438

 Minimum Search - Taking P-RFO Step
 Searching for Lamda that Maximizes Along the Constraint modes Only
 Value Taken    Lamda =   0.00000791
 Searching for Lamda that Minimizes Along All other modes
 Value Taken    Lamda =  -0.00009267
 Step Taken.  Stepsize is  0.013690

                             Maximum     Tolerance    Cnvgd?
         Gradient            0.007392       0.000300      NO
         Displacement        0.007589       0.001200      NO
         Energy change      0.004096       0.000001      NO


 New Cartesian Coordinates Obtained by Inverse Iteration

 Displacement from previous Coordinates is:  0.024171
 ----------------------------------------------------------------
             Standard Nuclear Orientation (Angstroms)
    I     Atom           X                Y                Z
 ----------------------------------------------------------------
    1      Cl      1.0654390429    -2.4738095212    -0.7838070359
    2      Cl      1.0143595259     1.7358587424    -0.1699038812
    3      C      -1.0504952410     0.1625106079     0.7726175518
    4      C       0.3860312942     0.4801651464     0.7564646806
    5      C      -1.7183729990    -0.0078754201    -0.6068917379
    6      H      -1.5437944824     0.9957654735     1.3090437880
    7      H      -1.1745521486    -0.7399237754     1.3762943928
    8      H       1.1013596023     0.0143467875     1.4263704467
    9      H      -1.2528340734    -0.8530699060    -1.1249734405
   10      H      -2.7829904045    -0.2076927194    -0.4637681789
   11      H      -1.6162521165     0.8937245845    -1.2160515855
 ----------------------------------------------------------------
 Nuclear Repulsion Energy =   249.4174044412 hartrees
 There are       29 alpha and       29 beta electrons

                       Distance Matrix (Angstroms)
             Cl(  1)   Cl(  2)   C (  3)   C (  4)   C (  5)   H (  6)
   Cl(  2)  4.254503
   C (  3)  3.721535  2.761774
   C (  4)  3.400000  1.682178  1.471317
   C (  5)  3.723136  3.270993  1.542121  2.554494
   H (  6)  4.819344  3.046174  1.106983  2.072538  2.169927
   H (  7)  3.562297  3.648501  1.092796  2.075627  2.182811  1.775804
   H (  8)  3.328227  2.349311  2.253847  1.085106  3.476426  2.823790
   H (  9)  2.849137  3.571397  2.161758  2.828994  1.095212  3.070389
   H ( 10)  4.477513  4.275934  2.160380  3.464797  1.092621  2.475233
   H ( 11)  4.326498  2.953597  2.193071  2.840949  1.092880  2.528195
             H (  7)   H (  8)   H (  9)   H ( 10)
   H (  8)  2.398167
   H (  9)  2.505049  3.578267
   H ( 10)  2.501234  4.325517  1.787479
   H ( 11)  3.095830  3.891158  1.786521  1.772097
 
 Applying Cartesian multipole field
    Component          Value
    ---------          -----
     (2,0,0)        1.00000E-11
     (0,2,0)        2.00000E-11
     (0,0,2)       -3.00000E-10
 Nucleus-field energy     =    -0.0000000166 hartrees
 Requested basis set is 6-31G(d,p)
 There are 40 shells and 113 basis functions
 A cutoff of  1.0D-14 yielded    771 shell pairs
 There are      6319 function pairs
 Smallest overlap matrix eigenvalue = 5.62E-03
 Guess from superposition of atomic densities
 Warning:  Energy on first SCF cycle will be non-variational
 SAD guess density has 58.000000 electrons

 -----------------------------------------------------------------------
  General SCF calculation program by
  Eric Jon Sundstrom, Paul Horn, Yuezhi Mao, Dmitri Zuev, Alec White,
  David Stuck, Shaama M.S., Shane Yost, Joonho Lee, David Small,
  Daniel Levine, Susi Lehtola, Hugh Burton, Evgeny Epifanovsky
 -----------------------------------------------------------------------
 Exchange:     0.2000 Hartree-Fock + 0.0800 Slater + 0.7200 B88
 Correlation:  0.1900 VWN1RPA + 0.8100 LYP
 Using SG-1 standard quadrature grid
 using 12 threads for integral computing
 -------------------------------------------------------
 OpenMP Integral computing Module                
 Release: version 1.0, May 2013, Q-Chem Inc. Pittsburgh 
 -------------------------------------------------------
 -------------------------------------------------------
 OpenMP BLAS3 based DFT computing Module                
 Release: version 1.0, May 2013, Q-Chem Inc. Pittsburgh 
 -------------------------------------------------------
 A unrestricted SCF calculation will be
 performed using DIIS
 SCF converges when DIIS error is below 1.0e-06
 Alpha HF Exchange    Energy =  -7.27686042858755
 Beta HF Exchange     Energy =  -7.27686042858755
 DFT Correlation      Energy =  -2.75749028161193
 DFT Exchange         Energy = -57.34107210002454
 One-Electron (alpha) Energy = -960.50379820970375
 One-Electron (beta)  Energy = -960.50379820970375
 Total Coulomb        Energy = 707.53110530329309
 ---------------------------------------
  Cycle       Energy         DIIS error
 ---------------------------------------
    1   -1038.7113699303      2.76e-02  
 Alpha HF Exchange    Energy =  -7.29492398527534
 Beta HF Exchange     Energy =  -7.29492398527535
 DFT Correlation      Energy =  -2.78091375091789
 DFT Exchange         Energy = -57.87741743325146
 One-Electron (alpha) Energy = -963.50992579489696
 One-Electron (beta)  Energy = -963.50992579489730
 Total Coulomb        Energy = 714.76670841214627
    2   -1038.0839179077      3.98e-03  
 Alpha HF Exchange    Energy =  -7.27801433101503
 Beta HF Exchange     Energy =  -7.27801433101504
 DFT Correlation      Energy =  -2.77818881865471
 DFT Exchange         Energy = -57.72573783233273
 One-Electron (alpha) Energy = -962.00643774448019
 One-Electron (beta)  Energy = -962.00643774448065
 Total Coulomb        Energy = 716.05497782203565
    3   -1033.6004485553      1.58e-02  
 Alpha HF Exchange    Energy =  -7.24815915440745
 Beta HF Exchange     Energy =  -7.24815915440745
 DFT Correlation      Energy =  -2.76222754325714
 DFT Exchange         Energy = -57.49553172267579
 One-Electron (alpha) Energy = -960.72971884646836
 One-Electron (beta)  Energy = -960.72971884646813
 Total Coulomb        Energy = 708.64842036192363
    4   -1038.1476904811      2.97e-03  
 Alpha HF Exchange    Energy =  -7.25129111347222
 Beta HF Exchange     Energy =  -7.25129111347223
 DFT Correlation      Energy =  -2.77078701644081
 DFT Exchange         Energy = -57.59445681183072
 One-Electron (alpha) Energy = -961.80481440076198
 One-Electron (beta)  Energy = -961.80481440076233
 Total Coulomb        Energy = 710.83829317389518
    5   -1038.2217572582      1.61e-03  
 Alpha HF Exchange    Energy =  -7.25909732789883
 Beta HF Exchange     Energy =  -7.25909732789884
 DFT Correlation      Energy =  -2.77087855056500
 DFT Exchange         Energy = -57.63409213894559
 One-Electron (alpha) Energy = -962.06067241414087
 One-Electron (beta)  Energy = -962.06067241414075
 Total Coulomb        Energy = 711.38469222255367
    6   -1038.2424135264      3.83e-04  
 Alpha HF Exchange    Energy =  -7.25592370591902
 Beta HF Exchange     Energy =  -7.25592370591903
 DFT Correlation      Energy =  -2.77064142339674
 DFT Exchange         Energy = -57.61725284316280
 One-Electron (alpha) Energy = -961.93501436868814
 One-Electron (beta)  Energy = -961.93501436868860
 Total Coulomb        Energy = 711.10929207445213
    7   -1038.2430739167      2.64e-04  
 Alpha HF Exchange    Energy =  -7.25581930640668
 Beta HF Exchange     Energy =  -7.25581930640668
 DFT Correlation      Energy =  -2.77044542787064
 DFT Exchange         Energy = -57.61484973259407
 One-Electron (alpha) Energy = -961.91023450879823
 One-Electron (beta)  Energy = -961.91023450879766
 Total Coulomb        Energy = 711.05655420625578
    8   -1038.2434441600      1.31e-04  
 Alpha HF Exchange    Energy =  -7.25681180051222
 Beta HF Exchange     Energy =  -7.25681180051222
 DFT Correlation      Energy =  -2.77052521312772
 DFT Exchange         Energy = -57.61949548173879
 One-Electron (alpha) Energy = -961.94084030448198
 One-Electron (beta)  Energy = -961.94084030448164
 Total Coulomb        Energy = 711.12432474601951
    9   -1038.2435957342      6.03e-05  
 Alpha HF Exchange    Energy =  -7.25661638514754
 Beta HF Exchange     Energy =  -7.25661638514756
 DFT Correlation      Energy =  -2.77053150995800
 DFT Exchange         Energy = -57.61908253747193
 One-Electron (alpha) Energy = -961.93990681987816
 One-Electron (beta)  Energy = -961.93990681987862
 Total Coulomb        Energy = 711.12161355192495
   10   -1038.2436424809      1.79e-06  
 Alpha HF Exchange    Energy =  -7.25661530216748
 Beta HF Exchange     Energy =  -7.25661530216747
 DFT Correlation      Energy =  -2.77053050392378
 DFT Exchange         Energy = -57.61905936499347
 One-Electron (alpha) Energy = -961.93979631115394
 One-Electron (beta)  Energy = -961.93979631115360
 Total Coulomb        Energy = 711.12136613325492
   11   -1038.2436425376      5.42e-07  Convergence criterion met
 ---------------------------------------
 SCF time:   CPU 28.73s  wall 3.00s 
<S^2> =          0.000000000
 Alpha HF Exchange    Energy =  -7.25661530216748
 Beta HF Exchange     Energy =  -7.25661530216747
 DFT Correlation      Energy =  -2.77053050392378
 DFT Exchange         Energy = -57.61905936499347
 One-Electron (alpha) Energy = -961.93979631115394
 One-Electron (beta)  Energy = -961.93979631115360
 Total Coulomb        Energy = 711.12136613325492
 Nuclear repulsion Energy = 249.41740442465994
 SCF   energy in the final basis set =    -1038.2436425376
 Total energy in the final basis set =    -1038.2436425376
 
 --------------------------------------------------------------
 
                    Orbital Energies (a.u.)
 --------------------------------------------------------------
 
 Alpha MOs
 -- Occupied --
*******-101.453 -10.361 -10.255 -10.210  -9.551  -9.365  -7.314
 -7.307  -7.303  -7.128  -7.121  -7.121  -0.962  -0.831  -0.719
 -0.692  -0.633  -0.547  -0.509  -0.483  -0.436  -0.412  -0.400
 -0.387  -0.373  -0.238  -0.229  -0.228
 -- Virtual --
 -0.170  -0.005   0.065   0.083   0.124   0.139   0.149   0.181
  0.184   0.212   0.311   0.366   0.378   0.407   0.422   0.452
  0.480   0.484   0.503   0.513   0.554   0.580   0.591   0.636
  0.662   0.681   0.744   0.778   0.791   0.805   0.818   0.839
  0.849   0.874   0.891   0.897   0.922   0.962   0.968   0.971
  0.973   1.012   1.029   1.067   1.199   1.261   1.419   1.466
  1.591   1.622   1.664   1.795   1.847   1.867   1.980   2.023
  2.031   2.052   2.081   2.116   2.215   2.226   2.335   2.362
  2.411   2.496   2.526   2.655   2.669   2.743   2.784   2.857
  2.873   3.173   3.228   3.265   3.361   3.432   3.492   4.052
  4.265   4.307   4.367   4.560
 
 Beta MOs
 -- Occupied --
*******-101.453 -10.361 -10.255 -10.210  -9.551  -9.365  -7.314
 -7.307  -7.303  -7.128  -7.121  -7.121  -0.962  -0.831  -0.719
 -0.692  -0.633  -0.547  -0.509  -0.483  -0.436  -0.412  -0.400
 -0.387  -0.373  -0.238  -0.229  -0.228
 -- Virtual --
 -0.170  -0.005   0.065   0.083   0.124   0.139   0.149   0.181
  0.184   0.212   0.311   0.366   0.378   0.407   0.422   0.452
  0.480   0.484   0.503   0.513   0.554   0.580   0.591   0.636
  0.662   0.681   0.744   0.778   0.791   0.805   0.818   0.839
  0.849   0.874   0.891   0.897   0.922   0.962   0.968   0.971
  0.973   1.012   1.029   1.067   1.199   1.261   1.419   1.466
  1.591   1.622   1.664   1.795   1.847   1.867   1.980   2.023
  2.031   2.052   2.081   2.116   2.215   2.226   2.335   2.362
  2.411   2.496   2.526   2.655   2.669   2.743   2.784   2.857
  2.873   3.173   3.228   3.265   3.361   3.432   3.492   4.052
  4.265   4.307   4.367   4.560
 --------------------------------------------------------------
 
          Ground-State Mulliken Net Atomic Charges

     Atom                 Charge (a.u.)    Spin (a.u.)
  --------------------------------------------------------
      1 Cl                   -0.538343      -0.000000
      2 Cl                    0.174692       0.000000
      3 C                    -0.221489       0.000000
      4 C                    -0.093791       0.000000
      5 C                    -0.330741      -0.000000
      6 H                     0.158053       0.000000
      7 H                     0.177016       0.000000
      8 H                     0.231472      -0.000000
      9 H                     0.192196       0.000000
     10 H                     0.126702       0.000000
     11 H                     0.124232       0.000000
  --------------------------------------------------------
  Sum of atomic charges =     0.000000
  Sum of spin   charges =     0.000000

 -----------------------------------------------------------------
                    Cartesian Multipole Moments
 -----------------------------------------------------------------
    Charge (ESU x 10^10)
                -0.0000
    Dipole Moment (Debye)
         X      -2.9175      Y       6.7719      Z       3.5676
       Tot       8.1914
    Quadrupole Moments (Debye-Ang)
        XX     -44.4037     XY       7.2270     YY     -57.1460
        XZ       2.3026     YZ      -4.4890     ZZ     -43.3805
    Octopole Moments (Debye-Ang^2)
       XXX     -36.5707    XXY      18.0010    XYY     -21.9276
       YYY      67.4015    XXZ      11.3024    XYZ      -5.6866
       YYZ      15.1646    XZZ     -10.5857    YZZ      14.0425
       ZZZ      27.4163
    Hexadecapole Moments (Debye-Ang^3)
      XXXX    -408.2422   XXXY      57.6697   XXYY    -212.2521
      XYYY      84.5945   YYYY    -849.3629   XXXZ      29.6666
      XXYZ     -31.8113   XYYZ      12.4186   YYYZ    -100.3537
      XXZZ     -96.5085   XYZZ      19.2989   YYZZ    -165.0776
      XZZZ      29.9142   YZZZ     -82.0302   ZZZZ    -180.0323
 -----------------------------------------------------------------
 Calculating analytic gradient of the SCF energy
 Gradient of SCF Energy
            1           2           3           4           5           6
    1   0.0043246   0.0000075  -0.0006743  -0.0037920   0.0003203   0.0002272
    2  -0.0182342   0.0002412   0.0007414   0.0175847   0.0003650  -0.0000083
    3  -0.0096152  -0.0000697   0.0001897   0.0096111   0.0009962   0.0000411
            7           8           9          10          11
    1  -0.0000229  -0.0001762  -0.0004753   0.0000851   0.0001761
    2  -0.0001052   0.0003814  -0.0007299  -0.0003015   0.0000654
    3  -0.0001678   0.0003614  -0.0013330  -0.0000926   0.0000787
 Max gradient component =       1.823E-02
 RMS gradient           =       5.120E-03
 Gradient time:  CPU 9.44 s  wall 0.87 s
 Geometry Optimization Parameters
   NAtoms,    NIC,     NZ,  NCons,   NDum,   NFix, NCnnct, MaxDiis
       11      66       0       1       0       0       0       0

 Cartesian Hessian Update
 Hessian Updated using BFGS Update


** CONSTRAINED OPTIMIZATION IN DELOCALIZED INTERNAL COORDINATES **
   Searching for a Minimum

   Optimization Cycle:   3

                       Coordinates (Angstroms)
     ATOM                X               Y               Z
      1  Cl        1.0654390429   -2.4738095212   -0.7838070359
      2  Cl        1.0143595259    1.7358587424   -0.1699038812
      3  C        -1.0504952410    0.1625106079    0.7726175518
      4  C         0.3860312942    0.4801651464    0.7564646806
      5  C        -1.7183729990   -0.0078754201   -0.6068917379
      6  H        -1.5437944824    0.9957654735    1.3090437880
      7  H        -1.1745521486   -0.7399237754    1.3762943928
      8  H         1.1013596023    0.0143467875    1.4263704467
      9  H        -1.2528340734   -0.8530699060   -1.1249734405
     10  H        -2.7829904045   -0.2076927194   -0.4637681789
     11  H        -1.6162521165    0.8937245845   -1.2160515855
   Point Group: c1    Number of degrees of freedom:    27


   Energy is  -1038.243642538

              Constraints and their Current Values
                                        Value     Constraint
   Distance(Angs):        1   4             3.400000     3.400000
 Hessian Updated using BFGS Update

 26 Hessian modes will be used to form the next step
  Hessian Eigenvalues:
     0.040194    0.060399    0.112201    0.112577    0.116048    0.176557
     0.199856    0.202298    0.212725    0.252224    0.287503    0.307819
     0.346146    0.354188    0.399058    0.537091    0.548768    0.713719
     0.819321    0.824493    0.860045    0.860533    0.860966    0.882293
     0.884659    0.947977

 Minimum Search - Taking Simple RFO Step
 Searching for Lamda that Minimizes Along All modes
 Value Taken    Lamda =  -0.00004697
 Step Taken.  Stepsize is  0.028157

                             Maximum     Tolerance    Cnvgd?
         Gradient           0.001036      0.000300      NO
         Displacement       0.012617      0.001200      NO
         Energy change      0.000047      0.000001      NO


 New Cartesian Coordinates Obtained by Inverse Iteration

 Displacement from previous Coordinates is:  0.053272
 ----------------------------------------------------------------
             Standard Nuclear Orientation (Angstroms)
    I     Atom           X                Y                Z
 ----------------------------------------------------------------
    1      Cl      1.0666756770    -2.4805124480    -0.7700516289
    2      Cl      1.0086043064     1.7412794567    -0.1698383421
    3      C      -1.0507606951     0.1605457605     0.7721957698
    4      C       0.3843681589     0.4816825574     0.7530555207
    5      C      -1.7185522265    -0.0037250220    -0.6072939434
    6      H      -1.5460613765     0.9900750559     1.3128929229
    7      H      -1.1727405114    -0.7446476387     1.3722568881
    8      H       1.1045261138     0.0087461604     1.4129756461
    9      H      -1.2476904083    -0.8478832434    -1.1183165846
   10      H      -2.7834953696    -0.2039857595    -0.4667462256
   11      H      -1.6169756688     0.8984251208    -1.2157350233
 ----------------------------------------------------------------
 Nuclear Repulsion Energy =   249.3972977337 hartrees
 There are       29 alpha and       29 beta electrons

                       Distance Matrix (Angstroms)
             Cl(  1)   Cl(  2)   C (  3)   C (  4)   C (  5)   H (  6)
   Cl(  2)  4.264640
   C (  3)  3.719846  2.761726
   C (  4)  3.400000  1.681662  1.470745
   C (  5)  3.730745  3.267077  1.541403  2.551165
   H (  6)  4.817679  3.047805  1.107156  2.073268  2.168988
   H (  7)  3.552140  3.649131  1.092853  2.076508  2.183002  1.775431
   H (  8)  3.311110  2.348653  2.253642  1.085261  3.471515  2.828186
   H (  9)  2.853604  3.562898  2.151685  2.816628  1.093370  3.062335
   H ( 10)  4.483122  4.272263  2.161071  3.463151  1.092686  2.474700
   H ( 11)  4.337953  2.949233  2.194752  2.838166  1.092883  2.531282
             H (  7)   H (  8)   H (  9)   H ( 10)
   H (  8)  2.399001
   H (  9)  2.493839  3.560081
   H ( 10)  2.503753  4.323809  1.788252
   H ( 11)  3.097537  3.886929  1.787584  1.771175
 
 Applying Cartesian multipole field
    Component          Value
    ---------          -----
     (2,0,0)        1.00000E-11
     (0,2,0)        2.00000E-11
     (0,0,2)       -3.00000E-10
 Nucleus-field energy     =    -0.0000000160 hartrees
 Requested basis set is 6-31G(d,p)
 There are 40 shells and 113 basis functions
 A cutoff of  1.0D-14 yielded    771 shell pairs
 There are      6319 function pairs
 Smallest overlap matrix eigenvalue = 5.61E-03
 Guess from superposition of atomic densities
 Warning:  Energy on first SCF cycle will be non-variational
 SAD guess density has 58.000000 electrons

 -----------------------------------------------------------------------
  General SCF calculation program by
  Eric Jon Sundstrom, Paul Horn, Yuezhi Mao, Dmitri Zuev, Alec White,
  David Stuck, Shaama M.S., Shane Yost, Joonho Lee, David Small,
  Daniel Levine, Susi Lehtola, Hugh Burton, Evgeny Epifanovsky
 -----------------------------------------------------------------------
 Exchange:     0.2000 Hartree-Fock + 0.0800 Slater + 0.7200 B88
 Correlation:  0.1900 VWN1RPA + 0.8100 LYP
 Using SG-1 standard quadrature grid
 using 12 threads for integral computing
 -------------------------------------------------------
 OpenMP Integral computing Module                
 Release: version 1.0, May 2013, Q-Chem Inc. Pittsburgh 
 -------------------------------------------------------
 -------------------------------------------------------
 OpenMP BLAS3 based DFT computing Module                
 Release: version 1.0, May 2013, Q-Chem Inc. Pittsburgh 
 -------------------------------------------------------
 A unrestricted SCF calculation will be
 performed using DIIS
 SCF converges when DIIS error is below 1.0e-06
 Alpha HF Exchange    Energy =  -7.27718287535357
 Beta HF Exchange     Energy =  -7.27718287535357
 DFT Correlation      Energy =  -2.75757679419562
 DFT Exchange         Energy = -57.34170810709063
 One-Electron (alpha) Energy = -960.48217454065366
 One-Electron (beta)  Energy = -960.48217454065366
 Total Coulomb        Energy = 707.50656781817781
 ---------------------------------------
  Cycle       Energy         DIIS error
 ---------------------------------------
    1   -1038.7141341975      2.76e-02  
 Alpha HF Exchange    Energy =  -7.29507448071280
 Beta HF Exchange     Energy =  -7.29507448071280
 DFT Correlation      Energy =  -2.78100570368805
 DFT Exchange         Energy = -57.87853768806697
 One-Electron (alpha) Energy = -963.48509561714911
 One-Electron (beta)  Energy = -963.48509561714900
 Total Coulomb        Energy = 714.73860090927315
    2   -1038.0839849605      3.98e-03  
 Alpha HF Exchange    Energy =  -7.27807320939361
 Beta HF Exchange     Energy =  -7.27807320939361
 DFT Correlation      Energy =  -2.77828201095931
 DFT Exchange         Energy = -57.72632768741120
 One-Electron (alpha) Energy = -961.99139520892356
 One-Electron (beta)  Energy = -961.99139520892356
 Total Coulomb        Energy = 716.05038794199891
    3   -1033.5958608753      1.58e-02  
 Alpha HF Exchange    Energy =  -7.24827678647081
 Beta HF Exchange     Energy =  -7.24827678647081
 DFT Correlation      Energy =  -2.76230265383637
 DFT Exchange         Energy = -57.49638437170139
 One-Electron (alpha) Energy = -960.70483111505985
 One-Electron (beta)  Energy = -960.70483111506007
 Total Coulomb        Energy = 708.61994814442619
    4   -1038.1476569665      2.97e-03  
 Alpha HF Exchange    Energy =  -7.25141710029459
 Beta HF Exchange     Energy =  -7.25141710029459
 DFT Correlation      Energy =  -2.77086879946823
 DFT Exchange         Energy = -57.59536166757846
 One-Electron (alpha) Energy = -961.78058649223283
 One-Electron (beta)  Energy = -961.78058649223271
 Total Coulomb        Energy = 710.81111046755871
    5   -1038.2218294669      1.61e-03  
 Alpha HF Exchange    Energy =  -7.25922322540263
 Beta HF Exchange     Energy =  -7.25922322540262
 DFT Correlation      Energy =  -2.77096447232537
 DFT Exchange         Energy = -57.63504347000982
 One-Electron (alpha) Energy = -962.03649352922457
 One-Electron (beta)  Energy = -962.03649352922412
 Total Coulomb        Energy = 711.35769226596233
    6   -1038.2424514680      3.82e-04  
 Alpha HF Exchange    Energy =  -7.25605956065345
 Beta HF Exchange     Energy =  -7.25605956065345
 DFT Correlation      Energy =  -2.77072577845473
 DFT Exchange         Energy = -57.61821496315198
 One-Electron (alpha) Energy = -961.91101934102369
 One-Electron (beta)  Energy = -961.91101934102358
 Total Coulomb        Energy = 711.08270004829740
    7   -1038.2431007790      2.63e-04  
 Alpha HF Exchange    Energy =  -7.25595693469097
 Beta HF Exchange     Energy =  -7.25595693469097
 DFT Correlation      Energy =  -2.77052981955353
 DFT Exchange         Energy = -57.61582042070636
 One-Electron (alpha) Energy = -961.88614772213566
 One-Electron (beta)  Energy = -961.88614772213577
 Total Coulomb        Energy = 711.02979068003890
    8   -1038.2434711562      1.31e-04  
 Alpha HF Exchange    Energy =  -7.25695174589872
 Beta HF Exchange     Energy =  -7.25695174589871
 DFT Correlation      Energy =  -2.77061024763466
 DFT Exchange         Energy = -57.62048340268021
 One-Electron (alpha) Energy = -961.91684705650141
 One-Electron (beta)  Energy = -961.91684705650107
 Total Coulomb        Energy = 711.09777359850898
    9   -1038.2436199389      6.07e-05  
 Alpha HF Exchange    Energy =  -7.25675328333152
 Beta HF Exchange     Energy =  -7.25675328333152
 DFT Correlation      Energy =  -2.77061641049972
 DFT Exchange         Energy = -57.62005668782056
 One-Electron (alpha) Energy = -961.91585381068842
 One-Electron (beta)  Energy = -961.91585381068842
 Total Coulomb        Energy = 711.09492224606413
   10   -1038.2436673226      1.80e-06  
 Alpha HF Exchange    Energy =  -7.25675220921359
 Beta HF Exchange     Energy =  -7.25675220921358
 DFT Correlation      Energy =  -2.77061538941804
 DFT Exchange         Energy = -57.62003337271493
 One-Electron (alpha) Energy = -961.91574206126700
 One-Electron (beta)  Energy = -961.91574206126631
 Total Coulomb        Energy = 711.09467219772444
   11   -1038.2436673877      5.52e-07  Convergence criterion met
 ---------------------------------------
 SCF time:   CPU 29.28s  wall 2.00s 
<S^2> =         -0.000000000
 Alpha HF Exchange    Energy =  -7.25675220921359
 Beta HF Exchange     Energy =  -7.25675220921358
 DFT Correlation      Energy =  -2.77061538941804
 DFT Exchange         Energy = -57.62003337271493
 One-Electron (alpha) Energy = -961.91574206126700
 One-Electron (beta)  Energy = -961.91574206126631
 Total Coulomb        Energy = 711.09467219772444
 Nuclear repulsion Energy = 249.39729771767281
 SCF   energy in the final basis set =    -1038.2436673877
 Total energy in the final basis set =    -1038.2436673877
 
 --------------------------------------------------------------
 
                    Orbital Energies (a.u.)
 --------------------------------------------------------------
 
 Alpha MOs
 -- Occupied --
*******-101.453 -10.361 -10.255 -10.210  -9.551  -9.365  -7.314
 -7.307  -7.304  -7.127  -7.121  -7.121  -0.962  -0.831  -0.719
 -0.692  -0.633  -0.548  -0.509  -0.483  -0.436  -0.412  -0.401
 -0.387  -0.374  -0.238  -0.229  -0.228
 -- Virtual --
 -0.170  -0.005   0.065   0.083   0.124   0.139   0.149   0.181
  0.184   0.211   0.311   0.366   0.378   0.407   0.422   0.452
  0.480   0.485   0.503   0.513   0.553   0.580   0.591   0.637
  0.662   0.681   0.744   0.778   0.791   0.805   0.817   0.840
  0.849   0.874   0.890   0.897   0.922   0.962   0.968   0.971
  0.973   1.012   1.030   1.068   1.198   1.262   1.418   1.467
  1.589   1.624   1.664   1.797   1.847   1.867   1.980   2.021
  2.032   2.052   2.081   2.116   2.217   2.226   2.334   2.364
  2.410   2.497   2.526   2.654   2.668   2.744   2.784   2.857
  2.876   3.175   3.227   3.266   3.361   3.432   3.493   4.053
  4.266   4.307   4.368   4.561
 
 Beta MOs
 -- Occupied --
*******-101.453 -10.361 -10.255 -10.210  -9.551  -9.365  -7.314
 -7.307  -7.304  -7.127  -7.121  -7.121  -0.962  -0.831  -0.719
 -0.692  -0.633  -0.548  -0.509  -0.483  -0.436  -0.412  -0.401
 -0.387  -0.374  -0.238  -0.229  -0.228
 -- Virtual --
 -0.170  -0.005   0.065   0.083   0.124   0.139   0.149   0.181
  0.184   0.211   0.311   0.366   0.378   0.407   0.422   0.452
  0.480   0.485   0.503   0.513   0.553   0.580   0.591   0.637
  0.662   0.681   0.744   0.778   0.791   0.805   0.817   0.840
  0.849   0.874   0.890   0.897   0.922   0.962   0.968   0.971
  0.973   1.012   1.030   1.068   1.198   1.262   1.418   1.467
  1.589   1.624   1.664   1.797   1.847   1.867   1.980   2.021
  2.032   2.052   2.081   2.116   2.217   2.226   2.334   2.364
  2.410   2.497   2.526   2.654   2.668   2.744   2.784   2.857
  2.876   3.175   3.227   3.266   3.361   3.432   3.493   4.053
  4.266   4.307   4.368   4.561
 --------------------------------------------------------------
 
          Ground-State Mulliken Net Atomic Charges

     Atom                 Charge (a.u.)    Spin (a.u.)
  --------------------------------------------------------
      1 Cl                   -0.539169       0.000000
      2 Cl                    0.174874      -0.000000
      3 C                    -0.221670       0.000000
      4 C                    -0.094304      -0.000000
      5 C                    -0.331149      -0.000000
      6 H                     0.157999      -0.000000
      7 H                     0.177575      -0.000000
      8 H                     0.232297      -0.000000
      9 H                     0.192150       0.000000
     10 H                     0.126961       0.000000
     11 H                     0.124436       0.000000
  --------------------------------------------------------
  Sum of atomic charges =    -0.000000
  Sum of spin   charges =     0.000000

 -----------------------------------------------------------------
                    Cartesian Multipole Moments
 -----------------------------------------------------------------
    Charge (ESU x 10^10)
                -0.0000
    Dipole Moment (Debye)
         X      -2.9259      Y       6.7962      Z       3.5310
       Tot       8.1986
    Quadrupole Moments (Debye-Ang)
        XX     -44.3944     XY       7.2459     YY     -57.2238
        XZ       2.2625     YZ      -4.4599     ZZ     -43.3845
    Octopole Moments (Debye-Ang^2)
       XXX     -36.4810    XXY      18.0685    XYY     -21.9595
       YYY      67.7702    XXZ      11.1211    XYZ      -5.6107
       YYZ      14.9126    XZZ     -10.5256    YZZ      14.0034
       ZZZ      26.8340
    Hexadecapole Moments (Debye-Ang^3)
      XXXX    -407.4004   XXXY      58.3565   XXYY    -212.9962
      XYYY      85.6985   YYYY    -854.0414   XXXZ      29.1589
      XXYZ     -31.3523   XYYZ      12.1819   YYYZ     -98.9413
      XXZZ     -96.0473   XYZZ      19.4321   YYZZ    -165.3370
      XZZZ      29.2096   YZZZ     -80.6612   ZZZZ    -178.0475
 -----------------------------------------------------------------
 Calculating analytic gradient of the SCF energy
 Gradient of SCF Energy
            1           2           3           4           5           6
    1   0.0044020   0.0000227  -0.0001874  -0.0042142   0.0006316   0.0000343
    2  -0.0183088   0.0000348  -0.0003617   0.0180611   0.0002457  -0.0000446
    3  -0.0094543   0.0000566  -0.0004469   0.0091392   0.0003955  -0.0000009
            7           8           9          10          11
    1  -0.0001492  -0.0000335  -0.0003240  -0.0000550  -0.0001272
    2  -0.0000949   0.0002584   0.0001049  -0.0000412   0.0001463
    3   0.0000088   0.0002618   0.0001779  -0.0001340  -0.0000037
 Max gradient component =       1.831E-02
 RMS gradient           =       5.143E-03
 Gradient time:  CPU 9.37 s  wall 0.86 s
 Geometry Optimization Parameters
   NAtoms,    NIC,     NZ,  NCons,   NDum,   NFix, NCnnct, MaxDiis
       11      66       0       1       0       0       0       0

 Cartesian Hessian Update
 Hessian Updated using BFGS Update


** CONSTRAINED OPTIMIZATION IN DELOCALIZED INTERNAL COORDINATES **
   Searching for a Minimum

   Optimization Cycle:   4

                       Coordinates (Angstroms)
     ATOM                X               Y               Z
      1  Cl        1.0666756770   -2.4805124480   -0.7700516289
      2  Cl        1.0086043064    1.7412794567   -0.1698383421
      3  C        -1.0507606951    0.1605457605    0.7721957698
      4  C         0.3843681589    0.4816825574    0.7530555207
      5  C        -1.7185522265   -0.0037250220   -0.6072939434
      6  H        -1.5460613765    0.9900750559    1.3128929229
      7  H        -1.1727405114   -0.7446476387    1.3722568881
      8  H         1.1045261138    0.0087461604    1.4129756461
      9  H        -1.2476904083   -0.8478832434   -1.1183165846
     10  H        -2.7834953696   -0.2039857595   -0.4667462256
     11  H        -1.6169756688    0.8984251208   -1.2157350233
   Point Group: c1    Number of degrees of freedom:    27


   Energy is  -1038.243667388

              Constraints and their Current Values
                                        Value     Constraint
   Distance(Angs):        1   4             3.400000     3.400000
 Hessian Updated using BFGS Update

 26 Hessian modes will be used to form the next step
  Hessian Eigenvalues:
     0.040815    0.049620    0.112201    0.112682    0.116497    0.179770
     0.202252    0.202567    0.212641    0.264264    0.287319    0.310512
     0.346163    0.354455    0.399184    0.537219    0.548804    0.725674
     0.819788    0.828716    0.860060    0.860559    0.861748    0.882262
     0.884419    0.947760

 Minimum Search - Taking Simple RFO Step
 Searching for Lamda that Minimizes Along All modes
 Value Taken    Lamda =  -0.00000322
 Step Taken.  Stepsize is  0.006586

                             Maximum     Tolerance    Cnvgd?
         Gradient           0.000376      0.000300      NO
         Displacement       0.003362      0.001200      NO
         Energy change     -0.000025      0.000001      NO


 New Cartesian Coordinates Obtained by Inverse Iteration

 Displacement from previous Coordinates is:  0.007803
 ----------------------------------------------------------------
             Standard Nuclear Orientation (Angstroms)
    I     Atom           X                Y                Z
 ----------------------------------------------------------------
    1      Cl      1.0654682295    -2.4809069170    -0.7685226391
    2      Cl      1.0079222720     1.7424694574    -0.1692973745
    3      C      -1.0507608932     0.1607114496     0.7723887630
    4      C       0.3841625934     0.4823190909     0.7530267176
    5      C      -1.7184649466    -0.0035877380    -0.6075395020
    6      H      -1.5466049626     0.9895948805     1.3136644747
    7      H      -1.1720477937    -0.7448708606     1.3719247187
    8      H       1.1050395455     0.0074533968     1.4107898061
    9      H      -1.2466513282    -0.8476078839    -1.1177648745
   10      H      -2.7833776212    -0.2040312981    -0.4672532860
   11      H      -1.6167870950     0.8984564224    -1.2160218040
 ----------------------------------------------------------------
 Nuclear Repulsion Energy =   249.3981054062 hartrees
 There are       29 alpha and       29 beta electrons

                       Distance Matrix (Angstroms)
             Cl(  1)   Cl(  2)   C (  3)   C (  4)   C (  5)   H (  6)
   Cl(  2)  4.266063
   C (  3)  3.719003  2.761686
   C (  4)  3.400000  1.681588  1.470650
   C (  5)  3.730055  3.267103  1.541760  2.551135
   H (  6)  4.816930  3.048213  1.107198  2.073525  2.169556
   H (  7)  3.549903  3.648904  1.092810  2.076252  2.183197  1.775404
   H (  8)  3.308006  2.348699  2.253557  1.085271  3.470728  2.829356
   H (  9)  2.852286  3.562470  2.151223  2.815692  1.093301  3.062211
   H ( 10)  4.482024  4.272189  2.161414  3.463159  1.092656  2.475079
   H ( 11)  4.337608  2.949083  2.195092  2.837979  1.092828  2.532300
             H (  7)   H (  8)   H (  9)   H ( 10)
   H (  8)  2.398464
   H (  9)  2.492925  3.557410
   H ( 10)  2.504290  4.323374  1.788542
   H ( 11)  3.097706  3.886176  1.787567  1.771177
 
 Applying Cartesian multipole field
    Component          Value
    ---------          -----
     (2,0,0)        1.00000E-11
     (0,2,0)        2.00000E-11
     (0,0,2)       -3.00000E-10
 Nucleus-field energy     =    -0.0000000160 hartrees
 Requested basis set is 6-31G(d,p)
 There are 40 shells and 113 basis functions
 A cutoff of  1.0D-14 yielded    771 shell pairs
 There are      6319 function pairs
 Smallest overlap matrix eigenvalue = 5.61E-03
 Guess from superposition of atomic densities
 Warning:  Energy on first SCF cycle will be non-variational
 SAD guess density has 58.000000 electrons

 -----------------------------------------------------------------------
  General SCF calculation program by
  Eric Jon Sundstrom, Paul Horn, Yuezhi Mao, Dmitri Zuev, Alec White,
  David Stuck, Shaama M.S., Shane Yost, Joonho Lee, David Small,
  Daniel Levine, Susi Lehtola, Hugh Burton, Evgeny Epifanovsky
 -----------------------------------------------------------------------
 Exchange:     0.2000 Hartree-Fock + 0.0800 Slater + 0.7200 B88
 Correlation:  0.1900 VWN1RPA + 0.8100 LYP
 Using SG-1 standard quadrature grid
 using 12 threads for integral computing
 -------------------------------------------------------
 OpenMP Integral computing Module                
 Release: version 1.0, May 2013, Q-Chem Inc. Pittsburgh 
 -------------------------------------------------------
 -------------------------------------------------------
 OpenMP BLAS3 based DFT computing Module                
 Release: version 1.0, May 2013, Q-Chem Inc. Pittsburgh 
 -------------------------------------------------------
 A unrestricted SCF calculation will be
 performed using DIIS
 SCF converges when DIIS error is below 1.0e-06
 Alpha HF Exchange    Energy =  -7.27717583232741
 Beta HF Exchange     Energy =  -7.27717583232741
 DFT Correlation      Energy =  -2.75758177538524
 DFT Exchange         Energy = -57.34169865164554
 One-Electron (alpha) Energy = -960.48295833362192
 One-Electron (beta)  Energy = -960.48295833362192
 Total Coulomb        Energy = 707.50738562754555
 ---------------------------------------
  Cycle       Energy         DIIS error
 ---------------------------------------
    1   -1038.7140577412      2.76e-02  
 Alpha HF Exchange    Energy =  -7.29507037871043
 Beta HF Exchange     Energy =  -7.29507037871043
 DFT Correlation      Energy =  -2.78100702424514
 DFT Exchange         Energy = -57.87851110591063
 One-Electron (alpha) Energy = -963.48529612903553
 One-Electron (beta)  Energy = -963.48529612903565
 Total Coulomb        Energy = 714.73810522007705
    2   -1038.0840405354      3.98e-03  
 Alpha HF Exchange    Energy =  -7.27806646757779
 Beta HF Exchange     Energy =  -7.27806646757779
 DFT Correlation      Energy =  -2.77828706802567
 DFT Exchange         Energy = -57.72631704817103
 One-Electron (alpha) Energy = -961.99148364824987
 One-Electron (beta)  Energy = -961.99148364824941
 Total Coulomb        Energy = 716.05066171416308
    3   -1033.5949372435      1.58e-02  
 Alpha HF Exchange    Energy =  -7.24827776693928
 Beta HF Exchange     Energy =  -7.24827776693927
 DFT Correlation      Energy =  -2.76230820654181
 DFT Exchange         Energy = -57.49640484214284
 One-Electron (alpha) Energy = -960.70600756456940
 One-Electron (beta)  Energy = -960.70600756456884
 Total Coulomb        Energy = 708.62145372054874
    4   -1038.1477246010      2.97e-03  
 Alpha HF Exchange    Energy =  -7.25141256224588
 Beta HF Exchange     Energy =  -7.25141256224588
 DFT Correlation      Energy =  -2.77087461499037
 DFT Exchange         Energy = -57.59537195529549
 One-Electron (alpha) Energy = -961.78114273178619
 One-Electron (beta)  Energy = -961.78114273178630
 Total Coulomb        Energy = 710.81150310277133
    5   -1038.2217486654      1.61e-03  
 Alpha HF Exchange    Energy =  -7.25922856231947
 Beta HF Exchange     Energy =  -7.25922856231946
 DFT Correlation      Energy =  -2.77096874597856
 DFT Exchange         Energy = -57.63506227845703
 One-Electron (alpha) Energy = -962.03706501915929
 One-Electron (beta)  Energy = -962.03706501915894
 Total Coulomb        Energy = 711.35806160115953
[...]

 Minimum Search - Taking Simple RFO Step
 Searching for Lamda that Minimizes Along All modes
 Value Taken    Lamda =  -0.00000110
 Step Taken.  Stepsize is  0.010101

                             Maximum     Tolerance    Cnvgd?
         Gradient           0.000192      0.000300     YES
         Displacement       0.006537      0.001200      NO
         Energy change     -0.000001      0.000001      NO


 New Cartesian Coordinates Obtained by Inverse Iteration

 Displacement from previous Coordinates is:  0.012737
 ----------------------------------------------------------------
             Standard Nuclear Orientation (Angstroms)
    I     Atom           X                Y                Z
 ----------------------------------------------------------------
    1      Cl      1.0336383038    -2.4765415992    -0.7780606019
    2      Cl      1.0020142934     1.7686279494    -0.1404008785
    3      C      -1.0514782391     0.1694860544     0.7779111867
    4      C       0.3836133337     0.4872623397     0.7559967455
    5      C      -1.7111888736    -0.0133937538    -0.6076662958
    6      H      -1.5521497448     1.0058009261     1.3016369148
    7      H      -1.1749857369    -0.7306974257     1.3843837493
    8      H       1.1125875949    -0.0192035930     1.3804650056
    9      H      -1.2256393148    -0.8556755590    -1.1090328676
   10      H      -2.7747549602    -0.2217543339    -0.4694614107
   11      H      -1.6137586563     0.8860889951    -1.2203765474
 ----------------------------------------------------------------
 Nuclear Repulsion Energy =   249.4038372563 hartrees
 There are       29 alpha and       29 beta electrons

                       Distance Matrix (Angstroms)
             Cl(  1)   Cl(  2)   C (  3)   C (  4)   C (  5)   H (  6)
   Cl(  2)  4.292910
   C (  3)  3.710825  2.759961
   C (  4)  3.400000  1.681620  1.470017
   C (  5)  3.691911  3.279544  1.545473  2.549202
   H (  6)  4.810213  3.030698  1.106518  2.076965  2.170136
   H (  7)  3.549952  3.648414  1.092425  2.075458  2.184102  1.778912
   H (  8)  3.271693  2.349809  2.254297  1.085298  3.453464  2.856164
   H (  9)  2.800194  3.575983  2.154494  2.805621  1.093876  3.063174
   H ( 10)  4.436571  4.281809  2.163028  3.461176  1.092560  2.477588
   H ( 11)  4.302515  2.964370  2.196095  2.838064  1.092692  2.525605
             H (  7)   H (  8)   H (  9)   H ( 10)
   H (  8)  2.395669
   H (  9)  2.497061  3.516332
   H ( 10)  2.501005  4.309836  1.791833
   H ( 11)  3.096982  3.875164  1.787954  1.771751
 
 Applying Cartesian multipole field
    Component          Value
    ---------          -----
     (2,0,0)        1.00000E-11
     (0,2,0)        2.00000E-11
     (0,0,2)       -3.00000E-10
 Nucleus-field energy     =    -0.0000000160 hartrees
 Requested basis set is 6-31G(d,p)
 There are 40 shells and 113 basis functions
 A cutoff of  1.0D-14 yielded    771 shell pairs
 There are      6319 function pairs
 Smallest overlap matrix eigenvalue = 5.63E-03
 Guess from superposition of atomic densities
 Warning:  Energy on first SCF cycle will be non-variational
 SAD guess density has 58.000000 electrons

 -----------------------------------------------------------------------
  General SCF calculation program by
  Eric Jon Sundstrom, Paul Horn, Yuezhi Mao, Dmitri Zuev, Alec White,
  David Stuck, Shaama M.S., Shane Yost, Joonho Lee, David Small,
  Daniel Levine, Susi Lehtola, Hugh Burton, Evgeny Epifanovsky
 -----------------------------------------------------------------------
 Exchange:     0.2000 Hartree-Fock + 0.0800 Slater + 0.7200 B88
 Correlation:  0.1900 VWN1RPA + 0.8100 LYP
 Using SG-1 standard quadrature grid
 using 12 threads for integral computing
 -------------------------------------------------------
 OpenMP Integral computing Module                
 Release: version 1.0, May 2013, Q-Chem Inc. Pittsburgh 
 -------------------------------------------------------
 -------------------------------------------------------
 OpenMP BLAS3 based DFT computing Module                
 Release: version 1.0, May 2013, Q-Chem Inc. Pittsburgh 
 -------------------------------------------------------
 A unrestricted SCF calculation will be
 performed using DIIS
 SCF converges when DIIS error is below 1.0e-06
 Alpha HF Exchange    Energy =  -7.27698572429541
 Beta HF Exchange     Energy =  -7.27698572429541
 DFT Correlation      Energy =  -2.75767755871913
 DFT Exchange         Energy = -57.34134512745664
 One-Electron (alpha) Energy = -960.48944750991905
 One-Electron (beta)  Energy = -960.48944750991905
 Total Coulomb        Energy = 707.51594868518077
 ---------------------------------------
  Cycle       Energy         DIIS error
 ---------------------------------------
    1   -1038.7121032292      2.76e-02  
 Alpha HF Exchange    Energy =  -7.29495656252153
 Beta HF Exchange     Energy =  -7.29495656252152
 DFT Correlation      Energy =  -2.78101996933118
 DFT Exchange         Energy = -57.87769586729365
 One-Electron (alpha) Energy = -963.48294975395061
 One-Electron (beta)  Energy = -963.48294975395038
 Total Coulomb        Energy = 714.72610838282287
    2   -1038.0845828465      3.97e-03  
 Alpha HF Exchange    Energy =  -7.27808682658842
 Beta HF Exchange     Energy =  -7.27808682658842
 DFT Correlation      Energy =  -2.77836649093654
 DFT Exchange         Energy = -57.72678709015998
 One-Electron (alpha) Energy = -961.98414631509172
 One-Electron (beta)  Energy = -961.98414631509172
 Total Coulomb        Energy = 716.04117217975659
    3   -1033.5846104445      1.58e-02  
 Alpha HF Exchange    Energy =  -7.24825356297649
 Beta HF Exchange     Energy =  -7.24825356297648
 DFT Correlation      Energy =  -2.76240340595297
 DFT Exchange         Energy = -57.49653929675659
 One-Electron (alpha) Energy = -960.72030597082733
 One-Electron (beta)  Energy = -960.72030597082653
 Total Coulomb        Energy = 708.64375581084130
    4   -1038.1484687193      2.97e-03  
 Alpha HF Exchange    Energy =  -7.25121696582692
 Beta HF Exchange     Energy =  -7.25121696582693
 DFT Correlation      Energy =  -2.77097717871554
 DFT Exchange         Energy = -57.59492545418616
 One-Electron (alpha) Energy = -961.78361262545980
 One-Electron (beta)  Energy = -961.78361262546059
 Total Coulomb        Energy = 710.81222244695721
    5   -1038.2195021283      1.68e-03  
 Alpha HF Exchange    Energy =  -7.25932615373170
 Beta HF Exchange     Energy =  -7.25932615373170
 DFT Correlation      Energy =  -2.77103915281816
 DFT Exchange         Energy = -57.63522800020158
 One-Electron (alpha) Energy = -962.04091008966452
 One-Electron (beta)  Energy = -962.04091008966441
 Total Coulomb        Energy = 711.36054654220891
    6   -1038.2423558574      3.94e-04  
 Alpha HF Exchange    Energy =  -7.25601324425358
 Beta HF Exchange     Energy =  -7.25601324425358
 DFT Correlation      Energy =  -2.77080198824064
 DFT Exchange         Energy = -57.61801051949543
 One-Electron (alpha) Energy = -961.91476508276230
 One-Electron (beta)  Energy = -961.91476508276219
 Total Coulomb        Energy = 711.08343080481882
    7   -1038.2431011167      2.71e-04  
 Alpha HF Exchange    Energy =  -7.25589713895735
 Beta HF Exchange     Energy =  -7.25589713895735
 DFT Correlation      Energy =  -2.77060970562594
 DFT Exchange         Energy = -57.61565707539175
 One-Electron (alpha) Energy = -961.89078882932404
 One-Electron (beta)  Energy = -961.89078882932438
 Total Coulomb        Energy = 711.03233979196636
    8   -1038.2434616854      1.43e-04  
 Alpha HF Exchange    Energy =  -7.25687416818796
 Beta HF Exchange     Energy =  -7.25687416818796
 DFT Correlation      Energy =  -2.77068180532430
 DFT Exchange         Energy = -57.62011414090105
 One-Electron (alpha) Energy = -961.91978890044936
 One-Electron (beta)  Energy = -961.91978890044959
 Total Coulomb        Energy = 711.09661716536425
    9   -1038.2436676779      5.03e-05  
 Alpha HF Exchange    Energy =  -7.25673757330371
 Beta HF Exchange     Energy =  -7.25673757330371
 DFT Correlation      Energy =  -2.77069312744793
 DFT Exchange         Energy = -57.61998695880473
 One-Electron (alpha) Energy = -961.92067345004102
 One-Electron (beta)  Energy = -961.92067345004114
 Total Coulomb        Energy = 711.09796459743438
   10   -1038.2437002953      2.01e-06  
 Alpha HF Exchange    Energy =  -7.25673753580806
 Beta HF Exchange     Energy =  -7.25673753580806
 DFT Correlation      Energy =  -2.77069193032750
 DFT Exchange         Energy = -57.61996536828183
 One-Electron (alpha) Energy = -961.92053993800084
 One-Electron (beta)  Energy = -961.92053993800084
 Total Coulomb        Energy = 711.09767461108856
   11   -1038.2437003949      5.46e-07  Convergence criterion met
 ---------------------------------------
 SCF time:   CPU 28.15s  wall 3.00s 
<S^2> =          0.000000000
 Alpha HF Exchange    Energy =  -7.25673753580806
 Beta HF Exchange     Energy =  -7.25673753580806
 DFT Correlation      Energy =  -2.77069193032750
 DFT Exchange         Energy = -57.61996536828183
 One-Electron (alpha) Energy = -961.92053993800084
 One-Electron (beta)  Energy = -961.92053993800084
 Total Coulomb        Energy = 711.09767461108856
 Nuclear repulsion Energy = 249.40383724021058
 SCF   energy in the final basis set =    -1038.2437003949
 Total energy in the final basis set =    -1038.2437003949
 
 --------------------------------------------------------------
 
                    Orbital Energies (a.u.)
 --------------------------------------------------------------
 
 Alpha MOs
 -- Occupied --
*******-101.453 -10.361 -10.255 -10.211  -9.551  -9.365  -7.315
 -7.307  -7.304  -7.127  -7.121  -7.121  -0.963  -0.831  -0.718
 -0.692  -0.633  -0.548  -0.509  -0.482  -0.437  -0.412  -0.400
 -0.387  -0.374  -0.238  -0.229  -0.228
 -- Virtual --
 -0.171  -0.005   0.066   0.083   0.124   0.140   0.150   0.182
  0.185   0.210   0.311   0.366   0.379   0.406   0.421   0.452
  0.480   0.487   0.503   0.511   0.554   0.580   0.589   0.636
  0.661   0.680   0.744   0.778   0.791   0.806   0.816   0.841
  0.849   0.874   0.888   0.898   0.921   0.962   0.968   0.971
  0.972   1.013   1.035   1.073   1.196   1.264   1.420   1.474
  1.585   1.625   1.659   1.794   1.846   1.869   1.982   2.021
  2.031   2.051   2.081   2.115   2.221   2.226   2.336   2.368
  2.408   2.500   2.523   2.651   2.669   2.739   2.786   2.856
  2.877   3.175   3.227   3.267   3.360   3.432   3.493   4.053
  4.265   4.307   4.370   4.560
 
 Beta MOs
 -- Occupied --
*******-101.453 -10.361 -10.255 -10.211  -9.551  -9.365  -7.315
 -7.307  -7.304  -7.127  -7.121  -7.121  -0.963  -0.831  -0.718
 -0.692  -0.633  -0.548  -0.509  -0.482  -0.437  -0.412  -0.400
 -0.387  -0.374  -0.238  -0.229  -0.228
 -- Virtual --
 -0.171  -0.005   0.066   0.083   0.124   0.140   0.150   0.182
  0.185   0.210   0.311   0.366   0.379   0.406   0.421   0.452
  0.480   0.487   0.503   0.511   0.554   0.580   0.589   0.636
  0.661   0.680   0.744   0.778   0.791   0.806   0.816   0.841
  0.849   0.874   0.888   0.898   0.921   0.962   0.968   0.971
  0.972   1.013   1.035   1.073   1.196   1.264   1.420   1.474
  1.585   1.625   1.659   1.794   1.846   1.869   1.982   2.021
  2.031   2.051   2.081   2.115   2.221   2.226   2.336   2.368
  2.408   2.500   2.523   2.651   2.669   2.739   2.786   2.856
  2.877   3.175   3.227   3.267   3.360   3.432   3.493   4.053
  4.265   4.307   4.370   4.560
 --------------------------------------------------------------
 
          Ground-State Mulliken Net Atomic Charges

     Atom                 Charge (a.u.)    Spin (a.u.)
  --------------------------------------------------------
      1 Cl                   -0.539915      -0.000000
      2 Cl                    0.174208       0.000000
      3 C                    -0.222420       0.000000
      4 C                    -0.095192       0.000000
      5 C                    -0.329970      -0.000000
      6 H                     0.157702      -0.000000
      7 H                     0.176377      -0.000000
      8 H                     0.234488       0.000000
      9 H                     0.193237      -0.000000
     10 H                     0.127319       0.000000
     11 H                     0.124166       0.000000
  --------------------------------------------------------
  Sum of atomic charges =    -0.000000
  Sum of spin   charges =     0.000000

 -----------------------------------------------------------------
                    Cartesian Multipole Moments
 -----------------------------------------------------------------
    Charge (ESU x 10^10)
                -0.0000
    Dipole Moment (Debye)
         X      -2.8450      Y       6.7889      Z       3.5375
       Tot       8.1669
    Quadrupole Moments (Debye-Ang)
        XX     -44.2240     XY       7.0336     YY     -57.1462
        XZ       2.2509     YZ      -4.5148     ZZ     -43.5216
    Octopole Moments (Debye-Ang^2)
       XXX     -34.7733    XXY      17.2746    XYY     -20.9344
       YYY      66.7670    XXZ      10.8182    XYZ      -5.5603
       YYZ      14.8356    XZZ     -10.1463    YZZ      13.6107
       ZZZ      25.9355
    Hexadecapole Moments (Debye-Ang^3)
      XXXX    -399.1097   XXXY      53.4188   XXYY    -211.6797
      XYYY      80.7581   YYYY    -858.3186   XXXZ      27.5891
      XXYZ     -32.0653   XYYZ      11.6627   YYYZ    -101.8256
      XXZZ     -94.9819   XYZZ      17.8471   YYZZ    -166.6767
      XZZZ      27.5863   YZZZ     -83.5576   ZZZZ    -179.0059
 -----------------------------------------------------------------
 Calculating analytic gradient of the SCF energy
 Gradient of SCF Energy
            1           2           3           4           5           6
    1   0.0039877  -0.0000057   0.0000480  -0.0040622   0.0000077   0.0000020
    2  -0.0179622   0.0000391  -0.0003065   0.0181128  -0.0000034   0.0000856
    3  -0.0093926   0.0000429   0.0001308   0.0094436  -0.0001334   0.0000705
            7           8           9          10          11
    1   0.0000344  -0.0000289   0.0001031  -0.0000127  -0.0000732
    2   0.0000164  -0.0000107  -0.0000206   0.0000573  -0.0000077
    3  -0.0000846   0.0000175  -0.0000768  -0.0000720   0.0000542
 Max gradient component =       1.811E-02
 RMS gradient           =       5.107E-03
 Gradient time:  CPU 9.38 s  wall 0.86 s
 Geometry Optimization Parameters
   NAtoms,    NIC,     NZ,  NCons,   NDum,   NFix, NCnnct, MaxDiis
       11      66       0       1       0       0       0       0

 Cartesian Hessian Update
 Hessian Updated using BFGS Update


** CONSTRAINED OPTIMIZATION IN DELOCALIZED INTERNAL COORDINATES **
   Searching for a Minimum

   Optimization Cycle:  16

                       Coordinates (Angstroms)
     ATOM                X               Y               Z
      1  Cl        1.0336383038   -2.4765415992   -0.7780606019
      2  Cl        1.0020142934    1.7686279494   -0.1404008785
      3  C        -1.0514782391    0.1694860544    0.7779111867
      4  C         0.3836133337    0.4872623397    0.7559967455
      5  C        -1.7111888736   -0.0133937538   -0.6076662958
      6  H        -1.5521497448    1.0058009261    1.3016369148
      7  H        -1.1749857369   -0.7306974257    1.3843837493
      8  H         1.1125875949   -0.0192035930    1.3804650056
      9  H        -1.2256393148   -0.8556755590   -1.1090328676
     10  H        -2.7747549602   -0.2217543339   -0.4694614107
     11  H        -1.6137586563    0.8860889951   -1.2203765474
   Point Group: c1    Number of degrees of freedom:    27


   Energy is  -1038.243700395

              Constraints and their Current Values
                                        Value     Constraint
   Distance(Angs):        1   4             3.400000     3.400000
 Hessian Updated using BFGS Update

 26 Hessian modes will be used to form the next step
  Hessian Eigenvalues:
     0.002178    0.006803    0.030738    0.080733    0.095710    0.113271
     0.184296    0.198720    0.205877    0.247654    0.268406    0.292958
     0.344762    0.353536    0.397069    0.534479    0.546589    0.605507
     0.796453    0.832141    0.850796    0.857063    0.860336    0.881053
     0.882312    0.943013

 Minimum Search - Taking Simple RFO Step
 Searching for Lamda that Minimizes Along All modes
 Value Taken    Lamda =   0.00000000
 Step Taken.  Stepsize is  0.004346

                             Maximum     Tolerance    Cnvgd?
         Gradient           0.000131      0.000300     YES
         Displacement       0.002768      0.001200      NO
         Energy change     -0.000001      0.000001     YES


                       Distance Matrix (Angstroms)
             Cl(  1)   Cl(  2)   C (  3)   C (  4)   C (  5)   H (  6)
   Cl(  2)  4.292910
   C (  3)  3.710825  2.759961
   C (  4)  3.400000  1.681620  1.470017
   C (  5)  3.691911  3.279544  1.545473  2.549202
   H (  6)  4.810213  3.030698  1.106518  2.076965  2.170136
   H (  7)  3.549952  3.648414  1.092425  2.075458  2.184102  1.778912
   H (  8)  3.271693  2.349809  2.254297  1.085298  3.453464  2.856164
   H (  9)  2.800194  3.575983  2.154494  2.805621  1.093876  3.063174
   H ( 10)  4.436571  4.281809  2.163028  3.461176  1.092560  2.477588
   H ( 11)  4.302515  2.964370  2.196095  2.838064  1.092692  2.525605
             H (  7)   H (  8)   H (  9)   H ( 10)
   H (  8)  2.395669
   H (  9)  2.497061  3.516332
   H ( 10)  2.501005  4.309836  1.791833
   H ( 11)  3.096982  3.875164  1.787954  1.771751
 
 Final energy is   -1038.24370039493     


 ******************************
 **  OPTIMIZATION CONVERGED  **
 ******************************

                       Coordinates (Angstroms)
     ATOM                X               Y               Z
      1  Cl        1.0336383038   -2.4765415992   -0.7780606019
      2  Cl        1.0020142934    1.7686279494   -0.1404008785
      3  C        -1.0514782391    0.1694860544    0.7779111867
      4  C         0.3836133337    0.4872623397    0.7559967455
      5  C        -1.7111888736   -0.0133937538   -0.6076662958
      6  H        -1.5521497448    1.0058009261    1.3016369148
      7  H        -1.1749857369   -0.7306974257    1.3843837493
      8  H         1.1125875949   -0.0192035930    1.3804650056
      9  H        -1.2256393148   -0.8556755590   -1.1090328676
     10  H        -2.7747549602   -0.2217543339   -0.4694614107
     11  H        -1.6137586563    0.8860889951   -1.2203765474

Z-matrix Print:
$molecule
0 1
Cl
C  1 1.681620
H  2 1.085298 1 114.538020
C  2 1.470017 1 122.118361 3 174.621261 0
H  4 1.092425 2 107.264223 1 176.901820 0
H  4 1.106518 2 106.582528 1 -67.628256 0
C  4 1.545473 2 115.400282 1 53.151772 0
H  7 1.092560 4 108.947183 2 -178.704876 0
H  7 1.092692 4 111.546109 2 -59.147681 0
H  7 1.093876 4 108.213430 2 61.625664 0
Cl 10 2.800194 7 138.561528 4 -11.428037 0
$end

PES scan, value:    3.4000 energy: -1038.2437003949
------- Summary of potential scan: ------ 
    3.4000     -1038.2437003949
----------------------------------------- 
Archival summary:
1\1\hpc0332\JobtypUnspecified\ProcedureUnspecified\6-31G**\l236\knomura\MonMar1121:47:422019MonMar1121:47:422019\0\\#,JobtypUnspecified,ProcedureUnspecified,6-31G**,\\0,1\Cl\C,1,1.68162\H,2,1.0853,1,114.538\C,2,1.47002,1,122.118,3,174.621,0\H,4,1.09243,2,107.264,1,176.902,0\H,4,1.10652,2,106.583,1,-67.6283,0\C,4,1.54547,2,115.4,1,53.1518,0\H,7,1.09256,4,108.947,2,-178.705,0\H,7,1.09269,4,111.546,2,-59.1477,0\H,7,1.09388,4,108.213,2,61.6257,0\Cl,10,2.80019,7,138.562,4,-11.428,0\\\@

 Total job time:  61.91s(wall), 686.17s(cpu) 
 Mon Mar 11 21:47:42 2019

        *************************************************************
        *                                                           *
        *  Thank you very much for using Q-Chem.  Have a nice day.  *
        *                                                           *
        *************************************************************


