
Running Job 1 of 1 ruruma/CH3CH2CHCl2_afterGeo_siglet.xyz.data/inputs/bond_triplet_2.6.in
qchem ruruma/CH3CH2CHCl2_afterGeo_siglet.xyz.data/inputs/bond_triplet_2.6.in_19545.0 /staging/scratch/2858534/qchem19545/ 1
/usr/usc/qchem/5.1.1/exe/qcprog.exe_s ruruma/CH3CH2CHCl2_afterGeo_siglet.xyz.data/inputs/bond_triplet_2.6.in_19545.0 /staging/scratch/2858534/qchem19545/
Check license passed

                  Welcome to Q-Chem
     A Quantum Leap Into The Future Of Chemistry


 Q-Chem 5.1, Q-Chem, Inc., Pleasanton, CA (2018)

 Yihan Shao,  Zhengting Gan,  E. Epifanovsky,  A. T. B. Gilbert,  M. Wormit,  
 J. Kussmann,  A. W. Lange,  A. Behn,  Jia Deng,  Xintian Feng,  D. Ghosh,  
 M. Goldey,  P. R. Horn,  L. D. Jacobson,  I. Kaliman,  T. Kus,  A. Landau,  
 Jie Liu,  E. I. Proynov,  R. M. Richard,  R. P. Steele,  E. J. Sundstrom,  
 H. L. Woodcock III,  P. M. Zimmerman,  D. Zuev,  B. Albrecht,  E. Alguire,  
 S. A. Baeppler,  D. Barton,  Z. Benda,  Y. A. Bernard,  E. J. Berquist,  
 K. B. Bravaya,  H. Burton,  D. Casanova,  Chun-Min Chang,  Yunqing Chen,  
 A. Chien,  K. D. Closser,  M. P. Coons,  S. Coriani,  S. Dasgupta,  
 A. L. Dempwolff,  M. Diedenhofen,  Hainam Do,  R. G. Edgar,  Po-Tung Fang,  
 S. Faraji,  S. Fatehi,  Qingguo Feng,  K. D. Fenk,  J. Fosso-Tande,  
 Qinghui Ge,  A. Ghysels,  G. Gidofalvi,  J. Gomes,  J. Gonthier,  A. Gunina,  
 D. Hait,  M. W. D. Hanson-Heine,  P. H. P. Harbach,  A. W. Hauser,  
 J. E. Herr,  E. G. Hohenstein,  Z. C. Holden,  Kerwin Hui,  B. C. Huynh,  
 T.-C. Jagau,  Hyunjun Ji,  B. Kaduk,  K. Khistyaev,  Jaehoon Kim,  
 P. Klunzinger,  K. Koh,  D. Kosenkov,  L. Koulias,  T. Kowalczyk,  
 C. M. Krauter,  A. Kunitsa,  Ka Un Lao,  A. Laurent,  K. V. Lawler,  
 Joonho Lee,  D. Lefrancois,  S. Lehtola,  D. S. Levine,  Yi-Pei Li,  
 You-Sheng Lin,  Fenglai Liu,  E. Livshits,  A. Luenser,  P. Manohar,  
 E. Mansoor,  S. F. Manzer,  Shan-Ping Mao,  Yuezhi Mao,  N. Mardirossian,  
 A. V. Marenich,  T. Markovich,  L. A. Martinez-Martinez,  S. A. Maurer,  
 N. J. Mayhall,  S. C. McKenzie,  J.-M. Mewes,  A. F. Morrison,  
 J. W. Mullinax,  K. Nanda,  T. S. Nguyen-Beck,  R. Olivares-Amaya,  
 J. A. Parkhill,  T. M. Perrine,  F. Plasser,  P. Pokhilko,  S. Prager,  
 A. Prociuk,  E. Ramos,  D. R. Rehn,  F. Rob,  M. Schneider,  N. Sergueev,  
 S. M. Sharada,  S. Sharma,  D. W. Small,  T. Stauch,  T. Stein,  
 Yu-Chuan Su,  A. J. W. Thom,  A. Tkatchenko,  T. Tsuchimochi,  N. M. Tubman,  
 L. Vogt,  M. L. Vidal,  O. Vydrov,  M. A. Watson,  J. Wenzel,  
 M. de Wergifosse,  T. A. Wesolowski,  A. White,  J. Witte,  A. Yamada,  
 Jun Yang,  K. Yao,  S. Yeganeh,  S. R. Yost,  Zhi-Qiang You,  A. Zech,  
 Igor Ying Zhang,  Xing Zhang,  Yan Zhao,  Ying Zhu,  B. R. Brooks,  
 G. K. L. Chan,  C. J. Cramer,  M. S. Gordon,  W. J. Hehre,  A. Klamt,  
 M. W. Schmidt,  C. D. Sherrill,  D. G. Truhlar,  A. Aspuru-Guzik,  R. Baer,  
 A. T. Bell,  N. A. Besley,  Jeng-Da Chai,  A. E. DePrince, III,  
 R. A. DiStasio Jr.,  A. Dreuw,  B. D. Dunietz,  T. R. Furlani,  
 Chao-Ping Hsu,  Yousung Jung,  Jing Kong,  D. S. Lambrecht,  WanZhen Liang,  
 C. Ochsenfeld,  V. A. Rassolov,  L. V. Slipchenko,  J. E. Subotnik,  
 T. Van Voorhis,  J. M. Herbert,  A. I. Krylov,  P. M. W. Gill,  M. Head-Gordon

 Contributors to earlier versions of Q-Chem not listed above: 
 R. D. Adamson,  B. Austin,  J. Baker,  G. J. O. Beran,  K. Brandhorst,  
 S. T. Brown,  E. F. C. Byrd,  A. K. Chakraborty,  C.-L. Cheng,  
 Siu Hung Chien,  D. M. Chipman,  D. L. Crittenden,  H. Dachsel,  
 R. J. Doerksen,  A. D. Dutoi,  L. Fusti-Molnar,  W. A. Goddard III,  
 A. Golubeva-Zadorozhnaya,  S. R. Gwaltney,  G. Hawkins,  A. Heyden,  
 S. Hirata,  G. Kedziora,  F. J. Keil,  C. Kelley,  Jihan Kim,  R. A. King,  
 R. Z. Khaliullin,  P. P. Korambath,  W. Kurlancheek,  A. M. Lee,  M. S. Lee,  
 S. V. Levchenko,  Ching Yeh Lin,  D. Liotard,  R. C. Lochan,  I. Lotan,  
 P. E. Maslen,  N. Nair,  D. P. O'Neill,  D. Neuhauser,  E. Neuscamman,  
 C. M. Oana,  R. Olson,  B. Peters,  R. Peverati,  P. A. Pieniazek,  
 Y. M. Rhee,  J. Ritchie,  M. A. Rohrdanz,  E. Rosta,  N. J. Russ,  
 H. F. Schaefer III,  N. E. Schultz,  N. Shenvi,  A. C. Simmonett,  A. Sodt,  
 D. Stuck,  K. S. Thanthiriwatte,  V. Vanovschi,  Tao Wang,  A. Warshel,  
 C. F. Williams,  Q. Wu,  X. Xu,  W. Zhang

 Please cite Q-Chem as follows:
 Y. Shao et al., Mol. Phys. 113, 184-215 (2015)
 DOI: 10.1080/00268976.2014.952696

 Q-Chem 5.1.1 for Intel X86 EM64T Linux

 Parts of Q-Chem use Armadillo 8.300.2 (Tropical Shenanigans).
 http://arma.sourceforge.net/

 Q-Chem begins on Mon Mar 11 22:41:29 2019  

Host: 
0

     Scratch files written to /staging/scratch/2858534/qchem19545//
 Aug318 |scratch|qcdevops|jenkins|workspace|build_RNUM 6013   
Processing $rem in /usr/usc/qchem/5.1.1/config/preferences.
 MEM_TOTAL  2000 
Input Ideriv = 2
Curr. Ideriv = -1
Max.  Ideriv = 2

Checking the input file for inconsistencies... 	...done.

--------------------------------------------------------------
User input:
--------------------------------------------------------------

$comment
potential surface scanner
$end

$rem
JOBTYPE  PES_SCAN
UNRESTRICTED TRUE
SYM_IGNORE  TRUE
GEOM_OPT_MAX_CYCLES 400
SCF_MAX_CYCLES 400
METHOD   B3LYP
BASIS   6-31G**
PDB_PRINT 2
SCF_CONVERGENCE 6
THRESH 14
SCF_PRINT 1
$end
$molecule
0 3
Cl -0.510665 -1.537082 -0.245952
Cl -0.800174 2.222559 0.188211
C -0.898270 0.445207 2.306267
C -0.204789 0.790549 1.087680
C -0.849709 -0.920598 -1.908925
H -0.734759 0.998855 3.231059
H -1.702708 -0.286334 2.298831
H 0.870652 0.701233 0.978271
H -0.920858 0.164708 -1.854238
H -1.789907 -1.353572 -2.246903
H -0.030920 -1.225519 -2.558896
$end
$scan
stre 1 4 2.600000 2.601000 0.100000
$end
--------------------------------------------------------------
 ----------------------------------------------------------------
             Standard Nuclear Orientation (Angstroms)
    I     Atom           X                Y                Z
 ----------------------------------------------------------------
    1      Cl     -0.5106650000    -1.5370820000    -0.2459520000
    2      Cl     -0.8001740000     2.2225590000     0.1882110000
    3      C      -0.8982700000     0.4452070000     2.3062670000
    4      C      -0.2047890000     0.7905490000     1.0876800000
    5      C      -0.8497090000    -0.9205980000    -1.9089250000
    6      H      -0.7347590000     0.9988550000     3.2310590000
    7      H      -1.7027080000    -0.2863340000     2.2988310000
    8      H       0.8706520000     0.7012330000     0.9782710000
    9      H      -0.9208580000     0.1647080000    -1.8542380000
   10      H      -1.7899070000    -1.3535720000    -2.2469030000
   11      H      -0.0309200000    -1.2255190000    -2.5588960000
 ----------------------------------------------------------------
 Nuclear Repulsion Energy =   260.3582211906 hartrees
 There are       30 alpha and       28 beta electrons
 Requested basis set is 6-31G(d,p)
 There are 40 shells and 113 basis functions

 Total QAlloc Memory Limit   2000 MB
 Mega-Array Size       188 MB
 MEM_STATIC part       192 MB
A total of 1 constraints
  
            1
    1   1.0100000
    2   1.0100000
    3   4.0100000
    4   2.6000000
    5   2.6010000
    6   0.1000000
    7   0.0000000
    8   0.0000000
    9   0.0000000
   10   0.0000000

                       Distance Matrix (Angstroms)
             Cl(  1)   Cl(  2)   C (  3)   C (  4)   C (  5)   H (  6)
   Cl(  2)  3.795684
   C (  3)  3.254770  2.766724
   C (  4)  2.700000  1.792814  1.443998
   C (  5)  1.805681  3.778871  4.431210  3.510497
   H (  6)  4.309385  3.280344  1.090184  2.217732  5.487891
   H (  7)  3.075916  3.400563  1.087349  2.206881  4.339943  1.859485
   H (  8)  2.901174  2.393802  2.226703  1.084676  3.731739  2.782261
   H (  9)  2.377169  2.901881  4.170011  3.091814  1.089010  5.156615
   H ( 10)  2.382004  4.438250  4.976141  4.269578  1.088884  6.054364
   H ( 11)  2.382632  4.475220  5.216650  4.170405  1.088969  6.242340
             H (  7)   H (  8)   H (  9)   H ( 10)
   H (  8)  3.056362
   H (  9)  4.250025  3.394182
   H ( 10)  4.670150  4.658599  1.792932
   H ( 11)  5.222495  4.127561  1.794788  1.791026
 
 A cutoff of  1.0D-14 yielded    740 shell pairs
 There are      6215 function pairs
 
 -------------------------------------------------------
 OpenMP Integral Computing Module                       
 Release: version 1.0, May 2013, Q-Chem Inc. Pittsburgh 
 -------------------------------------------------------
 Integral Job Info:
 Integral job number is                      11
 Integral operator is                         1
 short-range coefficients                     0
 long-range coefficients              100000000
 Omega coefficients                           0
 if combine SR and LR in K                    0
 Integral screening is                        0
 Integral computing path is                   2
 max size of driver memory is            800000
 size of driver memory is                593474
 size of scratch memory is             15267112
 max col of scratch BK array               1296
 max len of scratch array in speh3          155
 max len of scratch index in speh4           18
 max int batch size is                      520
 min int batch size is                       52
 fixed nKL is                                52
 max L of basis functions is                  2
 order of int derivative is                   0
 number of shells is                         40
 number of basis is                         113
 number of cartesian basis is               113
 number of contracted shell pairs           740
 number of primitive shell pairs           2924
 maxK2 (contraction) of shell pair           36
 max number of K2 of shell pair               1
 max number of CS2 of shell pair             63
 max number of PS2 of shell pair            330
 mem total for path MDJ                  516600
 -------------------------------------------------------
 Smallest overlap matrix eigenvalue = 8.85E-03

 Scale SEOQF with 1.000000e-01/1.000000e-01/1.000000e-01

 Standard Electronic Orientation quadrupole field applied
 Nucleus-field energy     =     0.0000000010 hartrees
 Guess from superposition of atomic densities
 Warning:  Energy on first SCF cycle will be non-variational
 SAD guess density has 58.000000 electrons

 -----------------------------------------------------------------------
  General SCF calculation program by
  Eric Jon Sundstrom, Paul Horn, Yuezhi Mao, Dmitri Zuev, Alec White,
  David Stuck, Shaama M.S., Shane Yost, Joonho Lee, David Small,
  Daniel Levine, Susi Lehtola, Hugh Burton, Evgeny Epifanovsky
 -----------------------------------------------------------------------
 Exchange:     0.2000 Hartree-Fock + 0.0800 Slater + 0.7200 B88
 Correlation:  0.1900 VWN1RPA + 0.8100 LYP
 Using SG-1 standard quadrature grid
 using 12 threads for integral computing
 -------------------------------------------------------
 OpenMP Integral computing Module                
 Release: version 1.0, May 2013, Q-Chem Inc. Pittsburgh 
 -------------------------------------------------------
 -------------------------------------------------------
 OpenMP BLAS3 based DFT computing Module                
 Release: version 1.0, May 2013, Q-Chem Inc. Pittsburgh 
 -------------------------------------------------------
 A unrestricted SCF calculation will be
 performed using DIIS
 SCF converges when DIIS error is below 1.0e-06
 Alpha HF Exchange    Energy =  -7.26090058266213
 Beta HF Exchange     Energy =  -7.26090058266213
 DFT Correlation      Energy =  -2.75599314194776
 DFT Exchange         Energy = -57.31511987398711
 One-Electron (alpha) Energy = -971.47532703342904
 One-Electron (beta)  Energy = -971.47532703342904
 Total Coulomb        Energy = 718.60735289653201
 ---------------------------------------
  Cycle       Energy         DIIS error
 ---------------------------------------
    1   -1038.5779941599      2.63e-02  
 Alpha HF Exchange    Energy =  -7.38761724725632
 Beta HF Exchange     Energy =  -7.18575481977117
 DFT Correlation      Energy =  -2.77133189967383
 DFT Exchange         Energy = -57.83261298481105
 One-Electron (alpha) Energy = -989.58779024403736
 One-Electron (beta)  Energy = -959.53864111156724
 Total Coulomb        Energy = 725.79693227230121
    2   -1038.1485948432      2.46e-03  
 Alpha HF Exchange    Energy =  -7.34709412032878
 Beta HF Exchange     Energy =  -7.15879045512461
 DFT Correlation      Energy =  -2.75175363974264
 DFT Exchange         Energy = -57.52721162191159
 One-Electron (alpha) Energy = -987.31320146613234
 One-Electron (beta)  Energy = -957.46437368494912
 Total Coulomb        Energy = 721.05151691579510
    3   -1038.1526868807      2.48e-03  
 Alpha HF Exchange    Energy =  -7.36423404175859
 Beta HF Exchange     Energy =  -7.16780370818082
 DFT Correlation      Energy =  -2.75959068938661
 DFT Exchange         Energy = -57.64385854870893
 One-Electron (alpha) Energy = -988.22064987612555
 One-Electron (beta)  Energy = -958.14328661291972
 Total Coulomb        Energy = 722.74638221612850
    4   -1038.1948200693      4.31e-04  
 Alpha HF Exchange    Energy =  -7.36729805042052
 Beta HF Exchange     Energy =  -7.17182760808544
 DFT Correlation      Energy =  -2.75959044050740
 DFT Exchange         Energy = -57.66849103883427
 One-Electron (alpha) Energy = -988.41496333430723
 One-Electron (beta)  Energy = -958.33506191839274
 Total Coulomb        Energy = 723.16293543029553
    5   -1038.1960757686      1.73e-04  
 Alpha HF Exchange    Energy =  -7.36663598533427
 Beta HF Exchange     Energy =  -7.17083665919984
 DFT Correlation      Energy =  -2.75925457528603
 DFT Exchange         Energy = -57.66182112922971
 One-Electron (alpha) Energy = -988.36463139824104
 One-Electron (beta)  Energy = -958.26335914420611
 Total Coulomb        Energy = 723.03203061676732
    6   -1038.1962870831      5.57e-05  
 Alpha HF Exchange    Energy =  -7.36658710624869
 Beta HF Exchange     Energy =  -7.17088607309207
 DFT Correlation      Energy =  -2.75916809563366
 DFT Exchange         Energy = -57.66150273683078
 One-Electron (alpha) Energy = -988.35478692377671
 One-Electron (beta)  Energy = -958.25219192339966
 Total Coulomb        Energy = 723.01059187654471
    7   -1038.1963097908      1.96e-05  
 Alpha HF Exchange    Energy =  -7.36670034391586
 Beta HF Exchange     Energy =  -7.17095703052817
 DFT Correlation      Energy =  -2.75916581818406
 DFT Exchange         Energy = -57.66216428463096
 One-Electron (alpha) Energy = -988.36521907324550
 One-Electron (beta)  Energy = -958.25880606181352
 Total Coulomb        Energy = 723.02847859444728
    8   -1038.1963128262      7.94e-06  
 Alpha HF Exchange    Energy =  -7.36667878383337
 Beta HF Exchange     Energy =  -7.17094967165263
 DFT Correlation      Energy =  -2.75915037247862
 DFT Exchange         Energy = -57.66203592091370
 One-Electron (alpha) Energy = -988.36330035345054
 One-Electron (beta)  Energy = -958.25613914867256
 Total Coulomb        Energy = 723.02371970906927
    9   -1038.1963133503      2.68e-06  
 Alpha HF Exchange    Energy =  -7.36667312398907
 Beta HF Exchange     Energy =  -7.17093874458809
 DFT Correlation      Energy =  -2.75914479362243
 DFT Exchange         Energy = -57.66196527868179
 One-Electron (alpha) Energy = -988.36250355170171
 One-Electron (beta)  Energy = -958.25495707662401
 Total Coulomb        Energy = 723.02164796579075
   10   -1038.1963134118      9.63e-07  Convergence criterion met
 ---------------------------------------
 SCF time:   CPU 25.21s  wall 2.00s 
<S^2> =          2.004220845
 Alpha HF Exchange    Energy =  -7.36667312398907
 Beta HF Exchange     Energy =  -7.17093874458809
 DFT Correlation      Energy =  -2.75914479362243
 DFT Exchange         Energy = -57.66196527868179
 One-Electron (alpha) Energy = -988.36250355170171
 One-Electron (beta)  Energy = -958.25495707662401
 Total Coulomb        Energy = 723.02164796579075
 Nuclear repulsion Energy = 260.35822119165817
 SCF   energy in the final basis set =    -1038.1963134118
 Total energy in the final basis set =    -1038.1963134118
 
 --------------------------------------------------------------
 
                    Orbital Energies (a.u.)
 --------------------------------------------------------------
 
 Alpha MOs
 -- Occupied --
*******-101.540 -10.245 -10.245 -10.214  -9.457  -9.456  -7.221
 -7.220  -7.212  -7.211  -7.211  -7.210  -0.861  -0.850  -0.743
 -0.681  -0.595  -0.463  -0.456  -0.451  -0.440  -0.428  -0.411
 -0.345  -0.310  -0.303  -0.300  -0.231  -0.191
 -- Virtual --
  0.022   0.043   0.108   0.122   0.143   0.147   0.152   0.189
  0.257   0.390   0.403   0.411   0.430   0.446   0.455   0.462
  0.494   0.523   0.538   0.552   0.568   0.581   0.605   0.637
  0.667   0.749   0.816   0.821   0.829   0.843   0.856   0.860
  0.866   0.884   0.900   0.912   0.916   0.941   0.954   0.992
  1.048   1.067   1.116   1.182   1.303   1.404   1.453   1.478
  1.516   1.689   1.808   1.858   1.895   1.967   2.007   2.024
  2.025   2.035   2.045   2.172   2.326   2.343   2.376   2.421
  2.465   2.511   2.574   2.595   2.668   2.794   2.797   2.876
  3.162   3.281   3.329   3.386   3.395   3.456   4.126   4.224
  4.309   4.394   4.419
 
 Beta MOs
 -- Occupied --
*******-101.539 -10.245 -10.231 -10.201  -9.455  -9.455  -7.219
 -7.218  -7.210  -7.210  -7.210  -7.209  -0.852  -0.839  -0.706
 -0.679  -0.565  -0.453  -0.452  -0.438  -0.425  -0.412  -0.404
 -0.324  -0.304  -0.300  -0.295
 -- Virtual --
 -0.080  -0.049   0.024   0.068   0.109   0.138   0.144   0.154
  0.161   0.201   0.275   0.398   0.408   0.419   0.437   0.452
  0.461   0.465   0.502   0.526   0.548   0.571   0.578   0.615
  0.635   0.664   0.689   0.761   0.825   0.828   0.833   0.853
  0.860   0.869   0.873   0.896   0.906   0.914   0.922   0.948
  0.971   1.008   1.051   1.083   1.130   1.198   1.310   1.447
  1.453   1.485   1.557   1.728   1.838   1.893   1.945   1.996
  2.007   2.024   2.035   2.043   2.070   2.188   2.327   2.343
  2.394   2.447   2.486   2.541   2.574   2.624   2.685   2.794
  2.797   2.888   3.163   3.293   3.342   3.386   3.395   3.472
  4.149   4.225   4.327   4.406   4.440
 --------------------------------------------------------------
 
          Ground-State Mulliken Net Atomic Charges

     Atom                 Charge (a.u.)    Spin (a.u.)
  --------------------------------------------------------
      1 Cl                   -0.068764       0.045234
      2 Cl                   -0.073656       0.142589
      3 C                    -0.189531       0.974893
      4 C                    -0.193454       0.859057
      5 C                    -0.401696      -0.001818
      6 H                     0.125388       0.001911
      7 H                     0.136218      -0.012671
      8 H                     0.158097      -0.010797
      9 H                     0.180202       0.001252
     10 H                     0.164361       0.000195
     11 H                     0.162835       0.000155
  --------------------------------------------------------
  Sum of atomic charges =    -0.000000
  Sum of spin   charges =     2.000000

 -----------------------------------------------------------------
                    Cartesian Multipole Moments
 -----------------------------------------------------------------
    Charge (ESU x 10^10)
                 0.0000
    Dipole Moment (Debye)
         X       0.1088      Y      -0.6887      Z      -0.7071
       Tot       0.9931
    Quadrupole Moments (Debye-Ang)
        XX     -43.9605     XY       1.8176     YY     -50.4319
        XZ       1.1152     YZ       1.7793     ZZ     -37.0597
    Octopole Moments (Debye-Ang^2)
       XXX      88.3178    XXY     -12.7515    XYY      32.2177
       YYY     -32.3229    XXZ      -8.9321    XYZ      -0.1664
       YYZ     -10.0713    XZZ      22.7891    YZZ     -12.3193
       ZZZ     -22.6306
    Hexadecapole Moments (Debye-Ang^3)
      XXXX    -196.1467   XXXY      36.6729   XXYY    -147.1840
      XYYY      28.3187   YYYY    -697.4981   XXXZ      16.4915
      XXYZ     -34.3731   XYYZ       9.7748   YYYZ    -115.5428
      XXZZ    -107.0014   XYZZ      13.9221   YYZZ    -186.1966
      XZZZ       8.0944   YZZZ     -83.3022   ZZZZ    -458.9996
 -----------------------------------------------------------------
 Calculating analytic gradient of the SCF energy
 Gradient of SCF Energy
            1           2           3           4           5           6
    1   0.0019759   0.0000701   0.0000187  -0.0020985   0.0000073  -0.0000208
    2   0.0150642  -0.0000185  -0.0000007  -0.0150386   0.0000599   0.0000146
    3   0.0085760  -0.0000082   0.0000255  -0.0085925   0.0000184  -0.0000063
            7           8           9          10          11
    1  -0.0000106   0.0000837  -0.0000386   0.0000061   0.0000067
    2   0.0000037   0.0000014  -0.0000758   0.0000075  -0.0000177
    3  -0.0000059   0.0000402  -0.0000264  -0.0000258   0.0000050
 Max gradient component =       1.506E-02
 RMS gradient           =       4.295E-03
 Gradient time:  CPU 8.81 s  wall 0.79 s
 Geometry Optimization Parameters
   NAtoms,    NIC,     NZ,  NCons,   NDum,   NFix, NCnnct, MaxDiis
       11      82       0       1       0       0       0       0


** CONSTRAINED OPTIMIZATION IN DELOCALIZED INTERNAL COORDINATES **
   Searching for a Minimum

   Optimization Cycle:   1

                       Coordinates (Angstroms)
     ATOM                X               Y               Z
      1  Cl       -0.5106650000   -1.5370820000   -0.2459520000
      2  Cl       -0.8001740000    2.2225590000    0.1882110000
      3  C        -0.8982700000    0.4452070000    2.3062670000
      4  C        -0.2047890000    0.7905490000    1.0876800000
      5  C        -0.8497090000   -0.9205980000   -1.9089250000
      6  H        -0.7347590000    0.9988550000    3.2310590000
      7  H        -1.7027080000   -0.2863340000    2.2988310000
      8  H         0.8706520000    0.7012330000    0.9782710000
      9  H        -0.9208580000    0.1647080000   -1.8542380000
     10  H        -1.7899070000   -1.3535720000   -2.2469030000
     11  H        -0.0309200000   -1.2255190000   -2.5588960000
   Point Group: c1    Number of degrees of freedom:    27


   Energy is  -1038.196313412

              Constraints and their Current Values
                                        Value     Constraint
   Distance(Angs):        1   4             2.700000     2.600000

 Attempting to Generate Delocalized Internal Coordinates

   Using Lagrange Multiplier Algorithm


 28 Hessian modes will be used to form the next step
  Hessian Eigenvalues:
    -0.981287    0.028753    0.045000    0.045030    0.045391    0.048177
     0.057582    0.075862    0.083683    0.086901    0.097543    0.120944
     0.124261    0.138323    0.152901    0.160000    0.160000    0.163869
     0.252812    0.262038    0.314998    0.335239    0.347913    0.349320
     0.349420    0.351208    0.390421    1.019070

 Minimum Search - Taking P-RFO Step
 Searching for Lamda that Maximizes Along the Constraint modes Only
 Value Taken    Lamda =   0.02157776
 Searching for Lamda that Minimizes Along All other modes
 Value Taken    Lamda =  -0.01391683
 Step Taken.  Stepsize is  0.185586

                             Maximum     Tolerance    Cnvgd?
         Gradient            0.188973       0.000300      NO
         Displacement        0.185582       0.001200      NO
         Energy change     *********       0.000001      NO


 New Cartesian Coordinates Obtained by Inverse Iteration

 Displacement from previous Coordinates is:  0.248748
 ----------------------------------------------------------------
             Standard Nuclear Orientation (Angstroms)
    I     Atom           X                Y                Z
 ----------------------------------------------------------------
    1      Cl     -0.5150832341    -1.4704185968    -0.2009084984
    2      Cl     -0.7908993925     2.2208651152     0.1722580597
    3      C      -0.8999459858     0.4204517119     2.2779595138
    4      C      -0.1998619956     0.7794768285     1.0671368538
    5      C      -0.8536098644    -0.9072961498    -1.8857734264
    6      H      -0.7497501434     0.9705625215     3.2071100152
    7      H      -1.6968107186    -0.3191460083     2.2598076928
    8      H       0.8880115285     0.7173588471     0.9761853645
    9      H      -0.9200728381     0.1709007979    -1.8627306034
   10      H      -1.7971127028    -1.3429741554    -2.2108028110
   11      H      -0.0369716534    -1.2397749118    -2.5248371606
 ----------------------------------------------------------------
 Nuclear Repulsion Energy =   262.9570004492 hartrees
 There are       30 alpha and       28 beta electrons

                       Distance Matrix (Angstroms)
             Cl(  1)   Cl(  2)   C (  3)   C (  4)   C (  5)   H (  6)
   Cl(  2)  3.720336
   C (  3)  3.141384  2.772609
   C (  4)  2.601794  1.796589  1.443990
   C (  5)  1.808446  3.744973  4.370553  3.462985
   H (  6)  4.198577  3.282572  1.090184  2.217741  5.429052
   H (  7)  2.962606  3.410307  1.087349  2.206874  4.271153  1.859477
   H (  8)  2.853173  2.392817  2.231493  1.093435  3.723380  2.779101
   H (  9)  2.370569  2.891404  4.148252  3.077855  1.080489  5.135343
   H ( 10)  2.387366  4.403680  4.905463  4.219111  1.088879  5.983577
   H ( 11)  2.383785  4.451826  5.154409  4.123856  1.088964  6.184567
             H (  7)   H (  8)   H (  9)   H ( 10)
   H (  8)  3.066486
   H (  9)  4.223599  3.409872
   H ( 10)  4.587444  4.648845  1.783864
   H ( 11)  5.147373  4.116203  1.791161  1.790912
 
 Applying Cartesian multipole field
    Component          Value
    ---------          -----
     (2,0,0)        1.00000E-11
     (0,2,0)        2.00000E-11
     (0,0,2)       -3.00000E-11
 Nucleus-field energy     =     0.0000000010 hartrees
 Requested basis set is 6-31G(d,p)
 There are 40 shells and 113 basis functions
 A cutoff of  1.0D-14 yielded    745 shell pairs
 There are      6239 function pairs
 Smallest overlap matrix eigenvalue = 8.75E-03
 Guess from superposition of atomic densities
 Warning:  Energy on first SCF cycle will be non-variational
 SAD guess density has 58.000000 electrons

 -----------------------------------------------------------------------
  General SCF calculation program by
  Eric Jon Sundstrom, Paul Horn, Yuezhi Mao, Dmitri Zuev, Alec White,
  David Stuck, Shaama M.S., Shane Yost, Joonho Lee, David Small,
  Daniel Levine, Susi Lehtola, Hugh Burton, Evgeny Epifanovsky
 -----------------------------------------------------------------------
 Exchange:     0.2000 Hartree-Fock + 0.0800 Slater + 0.7200 B88
 Correlation:  0.1900 VWN1RPA + 0.8100 LYP
 Using SG-1 standard quadrature grid
 using 12 threads for integral computing
 -------------------------------------------------------
 OpenMP Integral computing Module                
 Release: version 1.0, May 2013, Q-Chem Inc. Pittsburgh 
 -------------------------------------------------------
 -------------------------------------------------------
 OpenMP BLAS3 based DFT computing Module                
 Release: version 1.0, May 2013, Q-Chem Inc. Pittsburgh 
 -------------------------------------------------------
 A unrestricted SCF calculation will be
 performed using DIIS
 SCF converges when DIIS error is below 1.0e-06
 Alpha HF Exchange    Energy =  -7.26182449388871
 Beta HF Exchange     Energy =  -7.26182449388871
 DFT Correlation      Energy =  -2.75702352954204
 DFT Exchange         Energy = -57.31660424339234
 One-Electron (alpha) Energy = -974.07550860616482
 One-Electron (beta)  Energy = -974.07550860616482
 Total Coulomb        Energy = 721.20767123747748
 ---------------------------------------
  Cycle       Energy         DIIS error
 ---------------------------------------
    1   -1038.5836222854      2.63e-02  
 Alpha HF Exchange    Energy =  -7.38820727543104
 Beta HF Exchange     Energy =  -7.18533306981116
 DFT Correlation      Energy =  -2.77243419412142
 DFT Exchange         Energy = -57.83450171193562
 One-Electron (alpha) Energy = -992.33455100119033
 One-Electron (beta)  Energy = -961.99898307433614
 Total Coulomb        Energy = 728.41269884073370
    2   -1038.1443110359      2.47e-03  
 Alpha HF Exchange    Energy =  -7.34770343788594
 Beta HF Exchange     Energy =  -7.15850347318218
 DFT Correlation      Energy =  -2.75283013393991
 DFT Exchange         Energy = -57.52918022599084
 One-Electron (alpha) Energy = -990.04925827329350
 One-Electron (beta)  Energy = -959.91979014910157
 Total Coulomb        Energy = 723.65182557194805
    3   -1038.1484396713      2.50e-03  
 Alpha HF Exchange    Energy =  -7.36487206047438
 Beta HF Exchange     Energy =  -7.16742589193831
 DFT Correlation      Energy =  -2.76068704980176
 DFT Exchange         Energy = -57.64579097223511
 One-Electron (alpha) Energy = -990.96743236244401
 One-Electron (beta)  Energy = -960.60168237345806
 Total Coulomb        Energy = 725.35992405395552
    4   -1038.1909662062      4.31e-04  
 Alpha HF Exchange    Energy =  -7.36794222341381
 Beta HF Exchange     Energy =  -7.17143778117303
 DFT Correlation      Energy =  -2.76068099528090
 DFT Exchange         Energy = -57.67035692975730
 One-Electron (alpha) Energy = -991.16015733411916
 One-Electron (beta)  Energy = -960.79018060142766
 Total Coulomb        Energy = 725.77153711897950
    5   -1038.1922182960      1.75e-04  
 Alpha HF Exchange    Energy =  -7.36730964236843
 Beta HF Exchange     Energy =  -7.17046755124685
 DFT Correlation      Energy =  -2.76035046790227
 DFT Exchange         Energy = -57.66387578063557
 One-Electron (alpha) Energy = -991.11285518883813
 One-Electron (beta)  Energy = -960.72058088375275
 Total Coulomb        Energy = 725.64600534996998
    6   -1038.1924337146      5.65e-05  
 Alpha HF Exchange    Energy =  -7.36724746403259
 Beta HF Exchange     Energy =  -7.17050335462938
 DFT Correlation      Energy =  -2.76025940099218
 DFT Exchange         Energy = -57.66344752185721
 One-Electron (alpha) Energy = -991.10152767910370
 One-Electron (beta)  Energy = -960.70769475716861
 Total Coulomb        Energy = 725.62122275166416
    7   -1038.1924569759      2.02e-05  
 Alpha HF Exchange    Energy =  -7.36736460890795
 Beta HF Exchange     Energy =  -7.17057478216819
 DFT Correlation      Energy =  -2.76025764420904
 DFT Exchange         Energy = -57.66412374937229
 One-Electron (alpha) Energy = -991.11243520181188
 One-Electron (beta)  Energy = -960.71453280069420
 Total Coulomb        Energy = 725.63982815019483
    8   -1038.1924601868      8.05e-06  
 Alpha HF Exchange    Energy =  -7.36734437553400
 Beta HF Exchange     Energy =  -7.17056898645100
 DFT Correlation      Energy =  -2.76024232162595
 DFT Exchange         Energy = -57.66400631472122
 One-Electron (alpha) Energy = -991.11064771071460
 One-Electron (beta)  Energy = -960.71189580700855
 Total Coulomb        Energy = 725.63524433889324
    9   -1038.1924607270      2.70e-06  
 Alpha HF Exchange    Energy =  -7.36733856215245
 Beta HF Exchange     Energy =  -7.17055780317942
 DFT Correlation      Energy =  -2.76023666214752
 DFT Exchange         Energy = -57.66393404928559
 One-Electron (alpha) Energy = -991.10982975780246
 One-Electron (beta)  Energy = -960.71066577926035
 Total Coulomb        Energy = 725.63310137361043
   10   -1038.1924607900      9.80e-07  Convergence criterion met
 ---------------------------------------
 SCF time:   CPU 24.92s  wall 3.00s 
<S^2> =          2.004262988
 Alpha HF Exchange    Energy =  -7.36733856215245
 Beta HF Exchange     Energy =  -7.17055780317942
 DFT Correlation      Energy =  -2.76023666214752
 DFT Exchange         Energy = -57.66393404928559
 One-Electron (alpha) Energy = -991.10982975780246
 One-Electron (beta)  Energy = -960.71066577926035
 Total Coulomb        Energy = 725.63310137361043
 Nuclear repulsion Energy = 262.95700045018259
 SCF   energy in the final basis set =    -1038.1924607900
 Total energy in the final basis set =    -1038.1924607900
 
 --------------------------------------------------------------
 
                    Orbital Energies (a.u.)
 --------------------------------------------------------------
 
 Alpha MOs
 -- Occupied --
*******-101.539 -10.245 -10.243 -10.213  -9.458  -9.455  -7.222
 -7.219  -7.213  -7.212  -7.210  -7.209  -0.861  -0.849  -0.742
 -0.683  -0.593  -0.464  -0.456  -0.451  -0.440  -0.427  -0.410
 -0.345  -0.311  -0.304  -0.300  -0.230  -0.186
 -- Virtual --
  0.020   0.044   0.107   0.124   0.142   0.145   0.154   0.189
  0.257   0.390   0.406   0.411   0.431   0.447   0.453   0.464
  0.497   0.522   0.540   0.555   0.575   0.586   0.605   0.640
  0.662   0.754   0.811   0.820   0.830   0.843   0.855   0.859
  0.867   0.886   0.907   0.913   0.919   0.943   0.955   0.995
  1.047   1.067   1.123   1.207   1.313   1.407   1.451   1.482
  1.513   1.689   1.812   1.860   1.898   1.967   2.007   2.022
  2.023   2.042   2.043   2.169   2.326   2.346   2.376   2.421
  2.466   2.512   2.576   2.590   2.663   2.798   2.803   2.875
  3.168   3.282   3.315   3.385   3.406   3.457   4.133   4.225
  4.311   4.403   4.415
 
 Beta MOs
 -- Occupied --
*******-101.537 -10.245 -10.229 -10.200  -9.457  -9.453  -7.221
 -7.216  -7.211  -7.211  -7.208  -7.208  -0.854  -0.836  -0.706
 -0.681  -0.563  -0.456  -0.453  -0.437  -0.426  -0.411  -0.402
 -0.324  -0.304  -0.301  -0.295
 -- Virtual --
 -0.080  -0.045   0.023   0.069   0.108   0.139   0.144   0.156
  0.160   0.201   0.276   0.398   0.411   0.419   0.437   0.453
  0.459   0.467   0.505   0.525   0.547   0.576   0.585   0.619
  0.635   0.666   0.686   0.765   0.820   0.827   0.834   0.852
  0.859   0.868   0.873   0.897   0.909   0.921   0.927   0.949
  0.972   1.011   1.050   1.084   1.136   1.221   1.322   1.448
  1.452   1.489   1.554   1.728   1.842   1.895   1.948   1.997
  2.007   2.023   2.039   2.044   2.065   2.185   2.326   2.347
  2.392   2.447   2.488   2.542   2.576   2.620   2.680   2.798
  2.803   2.887   3.169   3.293   3.328   3.385   3.406   3.472
  4.155   4.226   4.328   4.409   4.442
 --------------------------------------------------------------
 
          Ground-State Mulliken Net Atomic Charges

     Atom                 Charge (a.u.)    Spin (a.u.)
  --------------------------------------------------------
      1 Cl                   -0.058935       0.058144
      2 Cl                   -0.078376       0.142389
      3 C                    -0.186620       0.974641
      4 C                    -0.201923       0.847416
      5 C                    -0.400872      -0.002083
      6 H                     0.124445      -0.000248
      7 H                     0.135127      -0.013360
      8 H                     0.156936      -0.009153
      9 H                     0.182014       0.001724
     10 H                     0.164757       0.000322
     11 H                     0.163445       0.000208
  --------------------------------------------------------
  Sum of atomic charges =    -0.000000
  Sum of spin   charges =     2.000000

 -----------------------------------------------------------------
                    Cartesian Multipole Moments
 -----------------------------------------------------------------
    Charge (ESU x 10^10)
                 0.0000
    Dipole Moment (Debye)
         X       0.0983      Y      -0.8534      Z      -0.7782
       Tot       1.1591
    Quadrupole Moments (Debye-Ang)
        XX     -43.9645     XY       1.9070     YY     -50.4131
        XZ       1.1583     YZ       1.8227     ZZ     -37.2128
    Octopole Moments (Debye-Ang^2)
       XXX      88.1796    XXY     -13.5595    XYY      32.1761
       YYY     -35.2639    XXZ      -9.2817    XYZ      -0.1655
       YYZ     -10.6356    XZZ      22.8243    YZZ     -13.1027
       ZZZ     -23.5627
    Hexadecapole Moments (Debye-Ang^3)
      XXXX    -195.9573   XXXY      36.6438   XXYY    -144.2031
      XYYY      28.6083   YYYY    -679.9230   XXXZ      16.7055
      XXYZ     -31.8895   XYYZ       9.6237   YYYZ    -107.5106
      XXZZ    -105.1270   XYZZ      13.6225   YYZZ    -181.4510
      XZZZ       8.3160   YZZZ     -77.2081   ZZZZ    -448.2944
 -----------------------------------------------------------------
 Calculating analytic gradient of the SCF energy
 Gradient of SCF Energy
            1           2           3           4           5           6
    1   0.0030247   0.0007446  -0.0000499  -0.0088563  -0.0003718  -0.0000951
    2   0.0196648  -0.0002912  -0.0011444  -0.0181153   0.0057670   0.0001600
    3   0.0124226  -0.0003030  -0.0007034  -0.0093093  -0.0004582  -0.0000498
            7           8           9          10          11
    1   0.0000919   0.0056490  -0.0001410  -0.0000141   0.0000181
    2  -0.0001627  -0.0001828  -0.0059592   0.0005130  -0.0002494
    3   0.0000658  -0.0011640  -0.0000492  -0.0004420  -0.0000096
 Max gradient component =       1.966E-02
 RMS gradient           =       5.901E-03
 Gradient time:  CPU 8.95 s  wall 0.80 s
 Geometry Optimization Parameters
   NAtoms,    NIC,     NZ,  NCons,   NDum,   NFix, NCnnct, MaxDiis
       11      82       0       1       0       0       0       0

 Cartesian Hessian Update
 Hessian Updated using BFGS Update


** CONSTRAINED OPTIMIZATION IN DELOCALIZED INTERNAL COORDINATES **
   Searching for a Minimum

   Optimization Cycle:   2

                       Coordinates (Angstroms)
     ATOM                X               Y               Z
      1  Cl       -0.5150832341   -1.4704185968   -0.2009084984
      2  Cl       -0.7908993925    2.2208651152    0.1722580597
      3  C        -0.8999459858    0.4204517119    2.2779595138
      4  C        -0.1998619956    0.7794768285    1.0671368538
      5  C        -0.8536098644   -0.9072961498   -1.8857734264
      6  H        -0.7497501434    0.9705625215    3.2071100152
      7  H        -1.6968107186   -0.3191460083    2.2598076928
      8  H         0.8880115285    0.7173588471    0.9761853645
      9  H        -0.9200728381    0.1709007979   -1.8627306034
     10  H        -1.7971127028   -1.3429741554   -2.2108028110
     11  H        -0.0369716534   -1.2397749118   -2.5248371606
   Point Group: c1    Number of degrees of freedom:    27


   Energy is  -1038.192460790

              Constraints and their Current Values
                                        Value     Constraint
   Distance(Angs):        1   4             2.601794     2.600000
 Hessian Updated using BFGS Update

   Using Lagrange Multiplier Algorithm


 28 Hessian modes will be used to form the next step
  Hessian Eigenvalues:
    -0.982248    0.028772    0.045030    0.045042    0.045392    0.048190
     0.057601    0.075890    0.084038    0.087318    0.097543    0.121072
     0.124720    0.139588    0.153398    0.160000    0.160012    0.163980
     0.253230    0.262146    0.321612    0.347913    0.349315    0.349417
     0.351207    0.373703    0.390627    1.020268

 Minimum Search - Taking P-RFO Step
 Searching for Lamda that Maximizes Along the Constraint modes Only
 Value Taken    Lamda =   0.00000856
 Searching for Lamda that Minimizes Along All other modes
 Value Taken    Lamda =  -0.00020599
 Step Taken.  Stepsize is  0.028304

                             Maximum     Tolerance    Cnvgd?
         Gradient            0.003390       0.000300      NO
         Displacement        0.010462       0.001200      NO
         Energy change      0.003853       0.000001      NO


 New Cartesian Coordinates Obtained by Inverse Iteration

 Displacement from previous Coordinates is:  0.030495
 ----------------------------------------------------------------
             Standard Nuclear Orientation (Angstroms)
    I     Atom           X                Y                Z
 ----------------------------------------------------------------
    1      Cl     -0.5155353853    -1.4716002650    -0.2041174233
    2      Cl     -0.7928933184     2.2192164146     0.1745407458
    3      C      -0.8988434232     0.4218387097     2.2789137392
    4      C      -0.1998239060     0.7752811076     1.0654697556
    5      C      -0.8524227285    -0.9080976684    -1.8872996707
    6      H      -0.7451593932     0.9734699820     3.2065537339
    7      H      -1.6985597453    -0.3146621526     2.2637284115
    8      H       0.8813822825     0.7131934912     0.9775521053
    9      H      -0.9201066099     0.1774602559    -1.8634415965
   10      H      -1.7950239078    -1.3475288549    -2.2101458773
   11      H      -0.0351208648    -1.2385650202    -2.5263489235
 ----------------------------------------------------------------
 Nuclear Repulsion Energy =   262.9842023249 hartrees
 There are       30 alpha and       28 beta electrons

                       Distance Matrix (Angstroms)
             Cl(  1)   Cl(  2)   C (  3)   C (  4)   C (  5)   H (  6)
   Cl(  2)  3.720543
   C (  3)  3.146026  2.769509
   C (  4)  2.600000  1.797341  1.444298
   C (  5)  1.806691  3.746308  4.373582  3.460996
   H (  6)  4.202829  3.278302  1.090152  2.218312  5.431312
   H (  7)  2.971248  3.406681  1.087295  2.206810  4.277750  1.859348
   H (  8)  2.849745  2.390843  2.224328  1.086550  3.720489  2.771611
   H (  9)  2.374118  2.887616  4.149612  3.074853  1.087928  5.135084
   H ( 10)  2.382569  4.405981  4.907694  4.216710  1.088957  5.985807
   H ( 11)  2.382827  4.452558  5.156889  4.121148  1.088841  6.185744
             H (  7)   H (  8)   H (  9)   H ( 10)
   H (  8)  3.060529
   H (  9)  4.228677  3.406408
   H ( 10)  4.592567  4.644475  1.792003
   H ( 11)  5.154170  4.114202  1.796601  1.791401
 
 Applying Cartesian multipole field
    Component          Value
    ---------          -----
     (2,0,0)        1.00000E-11
     (0,2,0)        2.00000E-11
     (0,0,2)       -3.00000E-11
 Nucleus-field energy     =     0.0000000010 hartrees
 Requested basis set is 6-31G(d,p)
 There are 40 shells and 113 basis functions
 A cutoff of  1.0D-14 yielded    744 shell pairs
 There are      6235 function pairs
 Smallest overlap matrix eigenvalue = 8.76E-03
 Guess from superposition of atomic densities
 Warning:  Energy on first SCF cycle will be non-variational
 SAD guess density has 58.000000 electrons

 -----------------------------------------------------------------------
  General SCF calculation program by
  Eric Jon Sundstrom, Paul Horn, Yuezhi Mao, Dmitri Zuev, Alec White,
  David Stuck, Shaama M.S., Shane Yost, Joonho Lee, David Small,
  Daniel Levine, Susi Lehtola, Hugh Burton, Evgeny Epifanovsky
 -----------------------------------------------------------------------
 Exchange:     0.2000 Hartree-Fock + 0.0800 Slater + 0.7200 B88
 Correlation:  0.1900 VWN1RPA + 0.8100 LYP
 Using SG-1 standard quadrature grid
 using 12 threads for integral computing
 -------------------------------------------------------
 OpenMP Integral computing Module                
 Release: version 1.0, May 2013, Q-Chem Inc. Pittsburgh 
 -------------------------------------------------------
 -------------------------------------------------------
 OpenMP BLAS3 based DFT computing Module                
 Release: version 1.0, May 2013, Q-Chem Inc. Pittsburgh 
 -------------------------------------------------------
 A unrestricted SCF calculation will be
 performed using DIIS
 SCF converges when DIIS error is below 1.0e-06
 Alpha HF Exchange    Energy =  -7.26188367301003
 Beta HF Exchange     Energy =  -7.26188367301003
 DFT Correlation      Energy =  -2.75705673913025
 DFT Exchange         Energy = -57.31671941170075
 One-Electron (alpha) Energy = -974.10294482380527
 One-Electron (beta)  Energy = -974.10294482380527
 Total Coulomb        Energy = 721.23489796782019
 ---------------------------------------
  Cycle       Energy         DIIS error
 ---------------------------------------
    1   -1038.5843328507      2.63e-02  
 Alpha HF Exchange    Energy =  -7.38828720098090
 Beta HF Exchange     Energy =  -7.18520727994098
 DFT Correlation      Energy =  -2.77246209289304
 DFT Exchange         Energy = -57.83441892346345
 One-Electron (alpha) Energy = -992.36599547001765
 One-Electron (beta)  Energy = -962.01738555186398
 Total Coulomb        Energy = 728.43514653786690
    2   -1038.1444076554      2.47e-03  
 Alpha HF Exchange    Energy =  -7.34782421445401
 Beta HF Exchange     Energy =  -7.15854591585582
 DFT Correlation      Energy =  -2.75287388656598
 DFT Exchange         Energy = -57.52976809128528
 One-Electron (alpha) Energy = -990.08293254565433
 One-Electron (beta)  Energy = -959.94496135788711
 Total Coulomb        Energy = 723.68423376873170
    3   -1038.1484699171      2.50e-03  
 Alpha HF Exchange    Energy =  -7.36495205010741
 Beta HF Exchange     Energy =  -7.16737341941246
 DFT Correlation      Energy =  -2.76071665256641
 DFT Exchange         Energy = -57.64588250506370
 One-Electron (alpha) Energy = -990.99918641275281
 One-Electron (beta)  Energy = -960.62352450671688
 Total Coulomb        Energy = 725.38642997278725
    4   -1038.1910032479      4.32e-04  
 Alpha HF Exchange    Energy =  -7.36803576346632
 Beta HF Exchange     Energy =  -7.17140585557394
 DFT Correlation      Energy =  -2.76071413301317
 DFT Exchange         Energy = -57.67057886373033
 One-Electron (alpha) Energy = -991.19207129331437
 One-Electron (beta)  Energy = -960.81255338910444
 Total Coulomb        Energy = 725.79889522249994
    5   -1038.1922617498      1.75e-04  
 Alpha HF Exchange    Energy =  -7.36739688516353
 Beta HF Exchange     Energy =  -7.17043449968613
 DFT Correlation      Energy =  -2.76038031063920
 DFT Exchange         Energy = -57.66406022250037
 One-Electron (alpha) Energy = -991.14437331294141
 One-Electron (beta)  Energy = -960.74297682495194
 Total Coulomb        Energy = 725.67294193179850
    6   -1038.1924777982      5.65e-05  
 Alpha HF Exchange    Energy =  -7.36733663629670
 Beta HF Exchange     Energy =  -7.17047326683162
 DFT Correlation      Energy =  -2.76029086276560
 DFT Exchange         Energy = -57.66365316532463
 One-Electron (alpha) Energy = -991.13315097673376
 One-Electron (beta)  Energy = -960.73034064610738
 Total Coulomb        Energy = 725.64854215792275
    7   -1038.1925010702      2.03e-05  
 Alpha HF Exchange    Energy =  -7.36745196747076
 Beta HF Exchange     Energy =  -7.17054449927533
 DFT Correlation      Energy =  -2.76028852541799
 DFT Exchange         Energy = -57.66432028072064
 One-Electron (alpha) Energy = -991.14391288964498
 One-Electron (beta)  Energy = -960.73715988743049
 Total Coulomb        Energy = 725.66697144296870
    8   -1038.1925042811      8.01e-06  
 Alpha HF Exchange    Energy =  -7.36743170578331
 Beta HF Exchange     Energy =  -7.17053909748225
 DFT Correlation      Energy =  -2.76027340355986
 DFT Exchange         Energy = -57.66420456292919
 One-Electron (alpha) Energy = -991.14211987919896
 One-Electron (beta)  Energy = -960.73457738044283
 Total Coulomb        Energy = 725.66243888786016
    9   -1038.1925048156      2.69e-06  
 Alpha HF Exchange    Energy =  -7.36742581649228
 Beta HF Exchange     Energy =  -7.17052814386672
 DFT Correlation      Energy =  -2.76026776362815
 DFT Exchange         Energy = -57.66413283043862
 One-Electron (alpha) Energy = -991.14129483252918
 One-Electron (beta)  Energy = -960.73336658830988
 Total Coulomb        Energy = 725.66030877131084
   10   -1038.1925048780      9.75e-07  Convergence criterion met
 ---------------------------------------
 SCF time:   CPU 24.60s  wall 2.00s 
<S^2> =          2.004257585
 Alpha HF Exchange    Energy =  -7.36742581649228
 Beta HF Exchange     Energy =  -7.17052814386672
 DFT Correlation      Energy =  -2.76026776362815
 DFT Exchange         Energy = -57.66413283043862
 One-Electron (alpha) Energy = -991.14129483252918
 One-Electron (beta)  Energy = -960.73336658830988
 Total Coulomb        Energy = 725.66030877131084
 Nuclear repulsion Energy = 262.98420232590684
 SCF   energy in the final basis set =    -1038.1925048780
 Total energy in the final basis set =    -1038.1925048780
 
 --------------------------------------------------------------
 
                    Orbital Energies (a.u.)
 --------------------------------------------------------------
 
 Alpha MOs
 -- Occupied --
*******-101.539 -10.246 -10.243 -10.213  -9.458  -9.455  -7.222
 -7.219  -7.213  -7.212  -7.210  -7.209  -0.861  -0.849  -0.742
 -0.683  -0.594  -0.464  -0.456  -0.452  -0.440  -0.426  -0.410
 -0.345  -0.311  -0.304  -0.300  -0.230  -0.186
 -- Virtual --
  0.020   0.044   0.107   0.124   0.142   0.146   0.152   0.189
  0.257   0.391   0.406   0.411   0.431   0.447   0.453   0.464
  0.497   0.521   0.540   0.555   0.575   0.586   0.604   0.640
  0.662   0.754   0.811   0.821   0.830   0.844   0.855   0.859
  0.867   0.887   0.907   0.913   0.919   0.943   0.955   0.995
  1.046   1.067   1.122   1.207   1.313   1.407   1.452   1.483
  1.512   1.688   1.813   1.863   1.899   1.967   2.006   2.022
  2.024   2.035   2.044   2.171   2.327   2.344   2.377   2.423
  2.469   2.513   2.571   2.592   2.669   2.794   2.798   2.876
  3.163   3.285   3.326   3.385   3.395   3.458   4.133   4.225
  4.311   4.404   4.415
 
 Beta MOs
 -- Occupied --
*******-101.537 -10.246 -10.229 -10.200  -9.457  -9.453  -7.221
 -7.216  -7.211  -7.211  -7.208  -7.207  -0.854  -0.836  -0.706
 -0.680  -0.564  -0.455  -0.453  -0.438  -0.426  -0.411  -0.402
 -0.323  -0.304  -0.301  -0.295
 -- Virtual --
 -0.080  -0.046   0.023   0.069   0.108   0.139   0.143   0.154
  0.161   0.201   0.275   0.398   0.411   0.419   0.437   0.454
  0.459   0.467   0.505   0.525   0.547   0.575   0.584   0.619
  0.635   0.666   0.686   0.766   0.820   0.828   0.834   0.853
  0.859   0.868   0.873   0.898   0.909   0.921   0.927   0.949
  0.972   1.011   1.049   1.084   1.135   1.221   1.323   1.449
  1.453   1.490   1.553   1.726   1.843   1.899   1.949   1.997
  2.006   2.023   2.035   2.042   2.066   2.187   2.327   2.345
  2.393   2.450   2.491   2.543   2.571   2.621   2.686   2.794
  2.798   2.887   3.163   3.296   3.339   3.385   3.395   3.473
  4.156   4.226   4.328   4.410   4.442
 --------------------------------------------------------------
 
          Ground-State Mulliken Net Atomic Charges

     Atom                 Charge (a.u.)    Spin (a.u.)
  --------------------------------------------------------
      1 Cl                   -0.057836       0.058633
      2 Cl                   -0.079173       0.142965
      3 C                    -0.186975       0.975087
      4 C                    -0.201665       0.846553
      5 C                    -0.401088      -0.002165
      6 H                     0.124469      -0.000296
      7 H                     0.134941      -0.013601
      8 H                     0.157523      -0.009526
      9 H                     0.181187       0.001819
     10 H                     0.165053       0.000319
     11 H                     0.163565       0.000212
  --------------------------------------------------------
  Sum of atomic charges =    -0.000000
  Sum of spin   charges =     2.000000

 -----------------------------------------------------------------
                    Cartesian Multipole Moments
 -----------------------------------------------------------------
    Charge (ESU x 10^10)
                -0.0000
    Dipole Moment (Debye)
         X       0.1061      Y      -0.8598      Z      -0.7759
       Tot       1.1630
    Quadrupole Moments (Debye-Ang)
        XX     -43.9771     XY       1.9157     YY     -50.4002
        XZ       1.1583     YZ       1.8316     ZZ     -37.2285
    Octopole Moments (Debye-Ang^2)
       XXX      88.2607    XXY     -13.5307    XYY      32.1795
       YYY     -35.1395    XXZ      -9.2321    XYZ      -0.1672
       YYZ     -10.6166    XZZ      22.9133    YZZ     -13.0542
       ZZZ     -23.4447
    Hexadecapole Moments (Debye-Ang^3)
      XXXX    -196.0512   XXXY      36.7801   XXYY    -144.1016
      XYYY      28.7727   YYYY    -679.4411   XXXZ      16.6450
      XXYZ     -32.0068   XYYZ       9.6859   YYYZ    -107.8160
      XXZZ    -105.2861   XYZZ      13.7109   YYZZ    -181.4436
      XZZZ       8.2998   YZZZ     -77.5135   ZZZZ    -449.0338
 -----------------------------------------------------------------
 Calculating analytic gradient of the SCF energy
 Gradient of SCF Energy
            1           2           3           4           5           6
    1   0.0026971   0.0004926  -0.0000052  -0.0041364   0.0001234  -0.0001301
    2   0.0198182  -0.0002444  -0.0007787  -0.0185874   0.0009691   0.0001346
    3   0.0116680  -0.0001127  -0.0005589  -0.0103374  -0.0004623  -0.0000262
            7           8           9          10          11
    1   0.0001488   0.0010917  -0.0001929  -0.0000568  -0.0000321
    2  -0.0001547  -0.0001022  -0.0008437   0.0000304  -0.0002413
    3   0.0000272  -0.0004151   0.0002253  -0.0000757   0.0000680
 Max gradient component =       1.982E-02
 RMS gradient           =       5.533E-03
 Gradient time:  CPU 8.83 s  wall 0.79 s
 Geometry Optimization Parameters
   NAtoms,    NIC,     NZ,  NCons,   NDum,   NFix, NCnnct, MaxDiis
       11      82       0       1       0       0       0       0

 Cartesian Hessian Update
 Hessian Updated using BFGS Update


** CONSTRAINED OPTIMIZATION IN DELOCALIZED INTERNAL COORDINATES **
   Searching for a Minimum

   Optimization Cycle:   3

                       Coordinates (Angstroms)
     ATOM                X               Y               Z
      1  Cl       -0.5155353853   -1.4716002650   -0.2041174233
      2  Cl       -0.7928933184    2.2192164146    0.1745407458
      3  C        -0.8988434232    0.4218387097    2.2789137392
      4  C        -0.1998239060    0.7752811076    1.0654697556
      5  C        -0.8524227285   -0.9080976684   -1.8872996707
      6  H        -0.7451593932    0.9734699820    3.2065537339
      7  H        -1.6985597453   -0.3146621526    2.2637284115
      8  H         0.8813822825    0.7131934912    0.9775521053
      9  H        -0.9201066099    0.1774602559   -1.8634415965
     10  H        -1.7950239078   -1.3475288549   -2.2101458773
     11  H        -0.0351208648   -1.2385650202   -2.5263489235
   Point Group: c1    Number of degrees of freedom:    27


   Energy is  -1038.192504878

              Constraints and their Current Values
                                        Value     Constraint
   Distance(Angs):        1   4             2.600000     2.600000
 Hessian Updated using BFGS Update

 26 Hessian modes will be used to form the next step
  Hessian Eigenvalues:
     0.028723    0.043900    0.045030    0.045386    0.048000    0.057347
     0.074565    0.078490    0.086254    0.097526    0.119944    0.122126
     0.129997    0.151330    0.159999    0.160039    0.163355    0.251766
     0.262360    0.317447    0.347879    0.349084    0.349322    0.351195
     0.370053    0.393677

 Minimum Search - Taking Simple RFO Step
 Searching for Lamda that Minimizes Along All modes
 Value Taken    Lamda =  -0.00003511
 Step Taken.  Stepsize is  0.020878

                             Maximum     Tolerance    Cnvgd?
         Gradient           0.000767      0.000300      NO
         Displacement       0.010451      0.001200      NO
         Energy change     -0.000044      0.000001      NO


 New Cartesian Coordinates Obtained by Inverse Iteration

 Displacement from previous Coordinates is:  0.036531
 ----------------------------------------------------------------
             Standard Nuclear Orientation (Angstroms)
    I     Atom           X                Y                Z
 ----------------------------------------------------------------
    1      Cl     -0.5149619480    -1.4750848767    -0.2079319562
    2      Cl     -0.7972227548     2.2157476610     0.1762514633
    3      C      -0.8982777014     0.4241689542     2.2819616547
    4      C      -0.2012686606     0.7703725459     1.0646711754
    5      C      -0.8511439019    -0.9084381499    -1.8893917208
    6      H      -0.7392437173     0.9783337095     3.2071218773
    7      H      -1.7019873674    -0.3080722277     2.2716925269
    8      H       0.8776696273     0.7081038355     0.9781450770
    9      H      -0.9201158470     0.1788605986    -1.8646624678
   10      H      -1.7926994765    -1.3490618148    -2.2132613106
   11      H      -0.0328552524    -1.2349242355    -2.5291913192
 ----------------------------------------------------------------
 Nuclear Repulsion Energy =   262.9263308491 hartrees
 There are       30 alpha and       28 beta electrons

                       Distance Matrix (Angstroms)
             Cl(  1)   Cl(  2)   C (  3)   C (  4)   C (  5)   H (  6)
   Cl(  2)  3.721493
   C (  3)  3.154943  2.766583
   C (  4)  2.600000  1.798210  1.444810
   C (  5)  1.805938  3.745708  4.379298  3.459369
   H (  6)  4.210957  3.274253  1.090097  2.218729  5.435704
   H (  7)  2.986551  3.402813  1.087305  2.207283  4.289405  1.859232
   H (  8)  2.848248  2.391921  2.221384  1.084192  3.718168  2.766906
   H (  9)  2.375803  2.886060  4.153931  3.073699  1.089765  5.137594
   H ( 10)  2.381143  4.405521  4.914404  4.215388  1.088838  5.992253
   H ( 11)  2.382929  4.450934  5.162242  4.118911  1.088822  6.188924
             H (  7)   H (  8)   H (  9)   H ( 10)
   H (  8)  3.059495
   H (  9)  4.237671  3.404950
   H ( 10)  4.605073  4.641969  1.793731
   H ( 11)  5.166579  4.111669  1.796557  1.791617
 
 Applying Cartesian multipole field
    Component          Value
    ---------          -----
     (2,0,0)        1.00000E-11
     (0,2,0)        2.00000E-11
     (0,0,2)       -3.00000E-11
 Nucleus-field energy     =     0.0000000010 hartrees
 Requested basis set is 6-31G(d,p)
 There are 40 shells and 113 basis functions
 A cutoff of  1.0D-14 yielded    743 shell pairs
 There are      6234 function pairs
 Smallest overlap matrix eigenvalue = 8.78E-03
 Guess from superposition of atomic densities
 Warning:  Energy on first SCF cycle will be non-variational
 SAD guess density has 58.000000 electrons

 -----------------------------------------------------------------------
  General SCF calculation program by
  Eric Jon Sundstrom, Paul Horn, Yuezhi Mao, Dmitri Zuev, Alec White,
  David Stuck, Shaama M.S., Shane Yost, Joonho Lee, David Small,
  Daniel Levine, Susi Lehtola, Hugh Burton, Evgeny Epifanovsky
 -----------------------------------------------------------------------
 Exchange:     0.2000 Hartree-Fock + 0.0800 Slater + 0.7200 B88
 Correlation:  0.1900 VWN1RPA + 0.8100 LYP
 Using SG-1 standard quadrature grid
 using 12 threads for integral computing
 -------------------------------------------------------
 OpenMP Integral computing Module                
 Release: version 1.0, May 2013, Q-Chem Inc. Pittsburgh 
 -------------------------------------------------------
 -------------------------------------------------------
 OpenMP BLAS3 based DFT computing Module                
 Release: version 1.0, May 2013, Q-Chem Inc. Pittsburgh 
 -------------------------------------------------------
 A unrestricted SCF calculation will be
 performed using DIIS
 SCF converges when DIIS error is below 1.0e-06
 Alpha HF Exchange    Energy =  -7.26184833406534
 Beta HF Exchange     Energy =  -7.26184833406534
 DFT Correlation      Energy =  -2.75702976154082
 DFT Exchange         Energy = -57.31665314070778
 One-Electron (alpha) Energy = -974.04501932604956
 One-Electron (beta)  Energy = -974.04501932604956
 Total Coulomb        Energy = 721.17721901324489
 ---------------------------------------
  Cycle       Energy         DIIS error
 ---------------------------------------
    1   -1038.5838683591      2.63e-02  
 Alpha HF Exchange    Energy =  -7.38833217193277
 Beta HF Exchange     Energy =  -7.18512009518257
 DFT Correlation      Energy =  -2.77244097708415
 DFT Exchange         Energy = -57.83433222233286
 One-Electron (alpha) Energy = -992.30693178752324
 One-Electron (beta)  Energy = -961.95710863231159
 Total Coulomb        Energy = 728.37352799454800
    2   -1038.1444070417      2.47e-03  
 Alpha HF Exchange    Energy =  -7.34790037058570
 Beta HF Exchange     Energy =  -7.15853090670600
 DFT Correlation      Energy =  -2.75285478809824
 DFT Exchange         Energy = -57.53000468564532
 One-Electron (alpha) Energy = -990.02725365466983
 One-Electron (beta)  Energy = -959.88944460540517
 Total Coulomb        Energy = 723.63119753507362
    3   -1038.1484606260      2.50e-03  
 Alpha HF Exchange    Energy =  -7.36499934618254
 Beta HF Exchange     Energy =  -7.16731502986196
 DFT Correlation      Energy =  -2.76069096402529
 DFT Exchange         Energy = -57.64585700750512
 One-Electron (alpha) Energy = -990.94093656265181
 One-Electron (beta)  Energy = -960.56516766840684
 Total Coulomb        Energy = 725.32761317622794
    4   -1038.1910225523      4.32e-04  
 Alpha HF Exchange    Energy =  -7.36809155238817
 Beta HF Exchange     Energy =  -7.17135964329836
 DFT Correlation      Energy =  -2.76068901296478
 DFT Exchange         Energy = -57.67062526631416
 One-Electron (alpha) Energy = -991.13411850805403
 One-Electron (beta)  Energy = -960.75476131996527
 Total Coulomb        Energy = 725.74102964078918
    5   -1038.1922848121      1.75e-04  
 Alpha HF Exchange    Energy =  -7.36744957318001
 Beta HF Exchange     Energy =  -7.17038688820923
 DFT Correlation      Energy =  -2.76035404221028
 DFT Exchange         Energy = -57.66408808340564
 One-Electron (alpha) Energy = -991.08618903571278
 One-Electron (beta)  Energy = -960.68516011575809
 Total Coulomb        Energy = 725.61479541414451
    6   -1038.1925014742      5.67e-05  
 Alpha HF Exchange    Energy =  -7.36738979965406
 Beta HF Exchange     Energy =  -7.17042759509429
 DFT Correlation      Energy =  -2.76026476938538
 DFT Exchange         Energy = -57.66368919798259
 One-Electron (alpha) Energy = -991.07497084243516
 One-Electron (beta)  Energy = -960.67262507626003
 Total Coulomb        Energy = 725.59051153240159
    7   -1038.1925248983      2.03e-05  
 Alpha HF Exchange    Energy =  -7.36750453796718
 Beta HF Exchange     Energy =  -7.17049887492016
 DFT Correlation      Energy =  -2.76026226702721
 DFT Exchange         Energy = -57.66435385368352
 One-Electron (alpha) Energy = -991.08567437200270
 One-Electron (beta)  Energy = -960.67944892314802
 Total Coulomb        Energy = 725.60888385651469
    8   -1038.1925281221      8.00e-06  
 Alpha HF Exchange    Energy =  -7.36748420141832
 Beta HF Exchange     Energy =  -7.17049372063699
 DFT Correlation      Energy =  -2.76024716748958
 DFT Exchange         Energy = -57.66423873846622
 One-Electron (alpha) Energy = -991.08387959837239
 One-Electron (beta)  Energy = -960.67689705521025
 Total Coulomb        Energy = 725.60438097586268
    9   -1038.1925286556      2.69e-06  
 Alpha HF Exchange    Energy =  -7.36747824713175
 Beta HF Exchange     Energy =  -7.17048285027638
 DFT Correlation      Energy =  -2.76024152571805
 DFT Exchange         Energy = -57.66416704810489
 One-Electron (alpha) Energy = -991.08304677040246
 One-Electron (beta)  Energy = -960.67569088009793
 Total Coulomb        Energy = 725.60224775371523
   10   -1038.1925287179      9.75e-07  Convergence criterion met
 ---------------------------------------
 SCF time:   CPU 25.80s  wall 2.00s 
<S^2> =          2.004256190
 Alpha HF Exchange    Energy =  -7.36747824713175
 Beta HF Exchange     Energy =  -7.17048285027638
 DFT Correlation      Energy =  -2.76024152571805
 DFT Exchange         Energy = -57.66416704810489
 One-Electron (alpha) Energy = -991.08304677040246
 One-Electron (beta)  Energy = -960.67569088009793
 Total Coulomb        Energy = 725.60224775371523
 Nuclear repulsion Energy = 262.92633085008674
 SCF   energy in the final basis set =    -1038.1925287179
 Total energy in the final basis set =    -1038.1925287179
 
 --------------------------------------------------------------
 
                    Orbital Energies (a.u.)
 --------------------------------------------------------------
 
 Alpha MOs
 -- Occupied --
*******-101.539 -10.246 -10.243 -10.213  -9.458  -9.455  -7.222
 -7.218  -7.213  -7.212  -7.210  -7.208  -0.862  -0.850  -0.742
 -0.683  -0.594  -0.464  -0.456  -0.452  -0.439  -0.426  -0.410
 -0.345  -0.311  -0.304  -0.300  -0.230  -0.186
 -- Virtual --
  0.020   0.044   0.107   0.124   0.142   0.146   0.152   0.189
  0.256   0.391   0.406   0.410   0.431   0.447   0.454   0.463
  0.497   0.521   0.540   0.555   0.574   0.586   0.604   0.640
  0.662   0.754   0.811   0.821   0.830   0.844   0.855   0.859
  0.867   0.887   0.906   0.912   0.919   0.943   0.956   0.995
  1.046   1.068   1.121   1.207   1.313   1.407   1.452   1.482
  1.511   1.687   1.813   1.865   1.900   1.966   2.006   2.023
  2.023   2.034   2.044   2.171   2.326   2.343   2.376   2.423
  2.471   2.513   2.571   2.592   2.671   2.792   2.797   2.875
  3.161   3.285   3.329   3.385   3.393   3.459   4.133   4.224
  4.311   4.404   4.415
 
 Beta MOs
 -- Occupied --
*******-101.537 -10.246 -10.229 -10.200  -9.457  -9.453  -7.221
 -7.216  -7.211  -7.211  -7.207  -7.207  -0.854  -0.836  -0.706
 -0.680  -0.564  -0.455  -0.453  -0.438  -0.426  -0.411  -0.402
 -0.323  -0.304  -0.301  -0.295
 -- Virtual --
 -0.080  -0.046   0.023   0.069   0.108   0.139   0.143   0.154
  0.161   0.201   0.275   0.398   0.410   0.418   0.437   0.454
  0.460   0.467   0.505   0.525   0.547   0.575   0.584   0.618
  0.635   0.666   0.686   0.766   0.820   0.828   0.834   0.853
  0.859   0.868   0.873   0.898   0.909   0.919   0.926   0.949
  0.972   1.011   1.049   1.085   1.135   1.221   1.323   1.448
  1.453   1.490   1.552   1.725   1.843   1.901   1.949   1.998
  2.006   2.023   2.034   2.042   2.065   2.188   2.327   2.343
  2.393   2.450   2.492   2.543   2.571   2.621   2.688   2.793
  2.797   2.887   3.161   3.297   3.342   3.385   3.393   3.474
  4.156   4.226   4.328   4.410   4.442
 --------------------------------------------------------------
 
          Ground-State Mulliken Net Atomic Charges

     Atom                 Charge (a.u.)    Spin (a.u.)
  --------------------------------------------------------
      1 Cl                   -0.057133       0.058904
      2 Cl                   -0.079824       0.143500
      3 C                    -0.187241       0.975422
      4 C                    -0.201150       0.845875
      5 C                    -0.401262      -0.002227
      6 H                     0.124554      -0.000272
      7 H                     0.134807      -0.013911
      8 H                     0.157662      -0.009687
      9 H                     0.180927       0.001859
     10 H                     0.165142       0.000317
     11 H                     0.163518       0.000219
  --------------------------------------------------------
  Sum of atomic charges =    -0.000000
  Sum of spin   charges =     2.000000

 -----------------------------------------------------------------
                    Cartesian Multipole Moments
 -----------------------------------------------------------------
    Charge (ESU x 10^10)
                 0.0000
    Dipole Moment (Debye)
         X       0.1134      Y      -0.8576      Z      -0.7723
       Tot       1.1596
    Quadrupole Moments (Debye-Ang)
        XX     -43.9842     XY       1.9204     YY     -50.4013
        XZ       1.1586     YZ       1.8313     ZZ     -37.2192
    Octopole Moments (Debye-Ang^2)
       XXX      88.3905    XXY     -13.4462    XYY      32.2280
       YYY     -34.8257    XXZ      -9.1897    XYZ      -0.1620
       YYZ     -10.5547    XZZ      22.9740    YZZ     -12.9389
       ZZZ     -23.3829
    Hexadecapole Moments (Debye-Ang^3)
      XXXX    -196.3863   XXXY      37.0920   XXYY    -144.0619
      XYYY      29.0938   YYYY    -678.8352   XXXZ      16.6577
      XXYZ     -32.1766   XYYZ       9.7498   YYYZ    -108.2687
      XXZZ    -105.4915   XYZZ      13.8684   YYZZ    -181.5470
      XZZZ       8.4134   YZZZ     -77.8840   ZZZZ    -450.0800
 -----------------------------------------------------------------
 Calculating analytic gradient of the SCF energy
 Gradient of SCF Energy
            1           2           3           4           5           6
    1   0.0025923   0.0002090  -0.0000975  -0.0021362   0.0001378  -0.0001368
    2   0.0197354  -0.0001628  -0.0004445  -0.0188216  -0.0003580   0.0000977
    3   0.0113652   0.0000195  -0.0002946  -0.0110321  -0.0002435  -0.0000240
            7           8           9          10          11
    1   0.0001333  -0.0005233  -0.0001289  -0.0000073  -0.0000425
    2  -0.0001482  -0.0001678   0.0003641  -0.0000250  -0.0000694
    3   0.0000368  -0.0000118   0.0001041   0.0000438   0.0000366
 Max gradient component =       1.974E-02
 RMS gradient           =       5.524E-03
 Gradient time:  CPU 8.24 s  wall 1.10 s
 Geometry Optimization Parameters
   NAtoms,    NIC,     NZ,  NCons,   NDum,   NFix, NCnnct, MaxDiis
       11      82       0       1       0       0       0       0

 Cartesian Hessian Update
 Hessian Updated using BFGS Update


** CONSTRAINED OPTIMIZATION IN DELOCALIZED INTERNAL COORDINATES **
   Searching for a Minimum

   Optimization Cycle:   4

                       Coordinates (Angstroms)
     ATOM                X               Y               Z
      1  Cl       -0.5149619480   -1.4750848767   -0.2079319562
      2  Cl       -0.7972227548    2.2157476610    0.1762514633
      3  C        -0.8982777014    0.4241689542    2.2819616547
      4  C        -0.2012686606    0.7703725459    1.0646711754
      5  C        -0.8511439019   -0.9084381499   -1.8893917208
      6  H        -0.7392437173    0.9783337095    3.2071218773
      7  H        -1.7019873674   -0.3080722277    2.2716925269
      8  H         0.8776696273    0.7081038355    0.9781450770
      9  H        -0.9201158470    0.1788605986   -1.8646624678
     10  H        -1.7926994765   -1.3490618148   -2.2132613106
     11  H        -0.0328552524   -1.2349242355   -2.5291913192
   Point Group: c1    Number of degrees of freedom:    27


   Energy is  -1038.192528718

              Constraints and their Current Values
                                        Value     Constraint
   Distance(Angs):        1   4             2.600000     2.600000
 Hessian Updated using BFGS Update

 26 Hessian modes will be used to form the next step
  Hessian Eigenvalues:
     0.027192    0.029907    0.045030    0.045382    0.047791    0.055418
     0.062296    0.078185    0.087134    0.097586    0.115216    0.122232
     0.126531    0.151345    0.160026    0.160044    0.163617    0.251168
     0.261486    0.327326    0.347907    0.349280    0.349574    0.351215
     0.390109    0.476678

 Minimum Search - Taking Simple RFO Step
 Searching for Lamda that Minimizes Along All modes
 Value Taken    Lamda =  -0.00001916
 Step Taken.  Stepsize is  0.024029

                             Maximum     Tolerance    Cnvgd?
         Gradient           0.000551      0.000300      NO
         Displacement       0.012828      0.001200      NO
         Energy change     -0.000024      0.000001      NO


 New Cartesian Coordinates Obtained by Inverse Iteration

 Displacement from previous Coordinates is:  0.043681
 ----------------------------------------------------------------
             Standard Nuclear Orientation (Angstroms)
    I     Atom           X                Y                Z
 ----------------------------------------------------------------
    1      Cl     -0.5143176881    -1.4791459816    -0.2122702838
    2      Cl     -0.8027046701     2.2115586289     0.1777711672
    3      C      -0.8977917684     0.4266448734     2.2860152971
    4      C      -0.2042269517     0.7646976438     1.0640567770
    5      C      -0.8496394223    -0.9084717852    -1.8919317549
    6      H      -0.7314766989     0.9835058722     3.2082209950
    7      H      -1.7065918017    -0.3000286416     2.2817283059
    8      H       0.8744205346     0.7029218009     0.9778160794
    9      H      -0.9197866359     0.1791947677    -1.8658937096
   10      H      -1.7900451470    -1.3497213162    -2.2181340116
   11      H      -0.0299467504    -1.2311498623    -2.5319738616
 ----------------------------------------------------------------
 Nuclear Repulsion Energy =   262.8473152622 hartrees
 There are       30 alpha and       28 beta electrons

                       Distance Matrix (Angstroms)
             Cl(  1)   Cl(  2)   C (  3)   C (  4)   C (  5)   H (  6)
   Cl(  2)  3.722445
   C (  3)  3.165521  2.763992
   C (  4)  2.600000  1.799190  1.445162
   C (  5)  1.805373  3.744391  4.386353  3.457444
   H (  6)  4.220376  3.270598  1.090054  2.218853  5.441057
   H (  7)  3.005306  3.398782  1.087304  2.207593  4.303953  1.859220
   H (  8)  2.847160  2.393492  2.220011  1.083852  3.715431  2.762669
   H (  9)  2.376756  2.884576  4.159335  3.072369  1.090237  5.140916
   H ( 10)  2.380698  4.404307  4.923307  4.214067  1.088794  6.000820
   H ( 11)  2.382675  4.448833  5.168603  4.116457  1.088885  6.192470
             H (  7)   H (  8)   H (  9)   H ( 10)
   H (  8)  3.060673
   H (  9)  4.248704  3.402963
   H ( 10)  4.621426  4.639700  1.794159
   H ( 11)  5.181684  4.108180  1.795703  1.791787
 
 Applying Cartesian multipole field
    Component          Value
    ---------          -----
     (2,0,0)        1.00000E-11
     (0,2,0)        2.00000E-11
     (0,0,2)       -3.00000E-11
 Nucleus-field energy     =     0.0000000009 hartrees
 Requested basis set is 6-31G(d,p)
 There are 40 shells and 113 basis functions
 A cutoff of  1.0D-14 yielded    743 shell pairs
 There are      6240 function pairs
 Smallest overlap matrix eigenvalue = 8.79E-03
 Guess from superposition of atomic densities
 Warning:  Energy on first SCF cycle will be non-variational
 SAD guess density has 58.000000 electrons

 -----------------------------------------------------------------------
  General SCF calculation program by
  Eric Jon Sundstrom, Paul Horn, Yuezhi Mao, Dmitri Zuev, Alec White,
  David Stuck, Shaama M.S., Shane Yost, Joonho Lee, David Small,
  Daniel Levine, Susi Lehtola, Hugh Burton, Evgeny Epifanovsky
 -----------------------------------------------------------------------
 Exchange:     0.2000 Hartree-Fock + 0.0800 Slater + 0.7200 B88
 Correlation:  0.1900 VWN1RPA + 0.8100 LYP
 Using SG-1 standard quadrature grid
 using 12 threads for integral computing
 -------------------------------------------------------
 OpenMP Integral computing Module                
 Release: version 1.0, May 2013, Q-Chem Inc. Pittsburgh 
 -------------------------------------------------------
 -------------------------------------------------------
 OpenMP BLAS3 based DFT computing Module                
 Release: version 1.0, May 2013, Q-Chem Inc. Pittsburgh 
 -------------------------------------------------------
 A unrestricted SCF calculation will be
 performed using DIIS
 SCF converges when DIIS error is below 1.0e-06
 Alpha HF Exchange    Energy =  -7.26175702080356
 Beta HF Exchange     Energy =  -7.26175702080356
 DFT Correlation      Energy =  -2.75698361293593
 DFT Exchange         Energy = -57.31646213665689
 One-Electron (alpha) Energy = -973.96637104384763
 One-Electron (beta)  Energy = -973.96637104384763
 Total Coulomb        Energy = 721.09939403163060
 ---------------------------------------
  Cycle       Energy         DIIS error
 ---------------------------------------
    1   -1038.5829925841      2.63e-02  
 Alpha HF Exchange    Energy =  -7.38834428525755
 Beta HF Exchange     Energy =  -7.18500331806127
 DFT Correlation      Energy =  -2.77240348883029
 DFT Exchange         Energy = -57.83403647207108
 One-Electron (alpha) Energy = -992.22662970314525
 One-Electron (beta)  Energy = -961.87762162057084
 Total Coulomb        Energy = 728.29232955102941
    2   -1038.1443940738      2.47e-03  
 Alpha HF Exchange    Energy =  -7.34793982157584
 Beta HF Exchange     Energy =  -7.15845273176913
 DFT Correlation      Energy =  -2.75281348588601
 DFT Exchange         Energy = -57.52990573878103
 One-Electron (alpha) Energy = -989.94974870270892
 One-Electron (beta)  Energy = -959.81304787135446
 Total Coulomb        Energy = 723.55613707772181
    3   -1038.1484560112      2.50e-03  
 Alpha HF Exchange    Energy =  -7.36501918531377
 Beta HF Exchange     Energy =  -7.16721461272826
 DFT Correlation      Energy =  -2.76064706914023
 DFT Exchange         Energy = -57.64561040496619
 One-Electron (alpha) Energy = -990.86128613921107
 One-Electron (beta)  Energy = -960.48673985249184
 Total Coulomb        Energy = 725.24816973094676
    4   -1038.1910322698      4.33e-04  
 Alpha HF Exchange    Energy =  -7.36811741917216
 Beta HF Exchange     Energy =  -7.17126871293404
 DFT Correlation      Energy =  -2.76064427378999
 DFT Exchange         Energy = -57.67042638144333
 One-Electron (alpha) Energy = -991.05475679195490
 One-Electron (beta)  Energy = -960.67686425578245
 Total Coulomb        Energy = 725.66246527566739
    5   -1038.1922972963      1.76e-04  
 Alpha HF Exchange    Energy =  -7.36747401160012
 Beta HF Exchange     Energy =  -7.17029461938278
 DFT Correlation      Energy =  -2.76030894669377
 DFT Exchange         Energy = -57.66387976906600
 One-Electron (alpha) Energy = -991.00670103262337
 One-Electron (beta)  Energy = -960.60726026008876
 Total Coulomb        Energy = 725.53608853185972
    6   -1038.1925148445      5.70e-05  
 Alpha HF Exchange    Energy =  -7.36741383096710
 Beta HF Exchange     Energy =  -7.17033663765054
 DFT Correlation      Energy =  -2.76021927923529
 DFT Exchange         Energy = -57.66348206444802
 One-Electron (alpha) Energy = -990.99541104257867
 One-Electron (beta)  Energy = -960.59473941999590
 Total Coulomb        Energy = 725.51174852857218
    7   -1038.1925384832      2.04e-05  
 Alpha HF Exchange    Energy =  -7.36752838469654
 Beta HF Exchange     Energy =  -7.17040808752395
 DFT Correlation      Energy =  -2.76021671101242
 DFT Exchange         Energy = -57.66414644729598
 One-Electron (alpha) Energy = -991.00608619949560
 One-Electron (beta)  Energy = -960.60157652104829
 Total Coulomb        Energy = 725.53010535960891
    8   -1038.1925417283      8.00e-06  
 Alpha HF Exchange    Energy =  -7.36750799710933
 Beta HF Exchange     Energy =  -7.17040315617788
 DFT Correlation      Energy =  -2.76020158754599
 DFT Exchange         Energy = -57.66403183454775
 One-Electron (alpha) Energy = -991.00429541380595
 One-Electron (beta)  Energy = -960.59905003983408
 Total Coulomb        Energy = 725.52563250346918
    9   -1038.1925422624      2.68e-06  
 Alpha HF Exchange    Energy =  -7.36750196920793
 Beta HF Exchange     Energy =  -7.17039232016086
 DFT Correlation      Energy =  -2.76019593132174
 DFT Exchange         Energy = -57.66395996073054
 One-Electron (alpha) Energy = -991.00345344830521
 One-Electron (beta)  Energy = -960.59784247606240
 Total Coulomb        Energy = 725.52348851792863
   10   -1038.1925423247      9.78e-07  Convergence criterion met
 ---------------------------------------
 SCF time:   CPU 26.35s  wall 4.00s 
<S^2> =          2.004254190
 Alpha HF Exchange    Energy =  -7.36750196920793
 Beta HF Exchange     Energy =  -7.17039232016086
 DFT Correlation      Energy =  -2.76019593132174
 DFT Exchange         Energy = -57.66395996073054
 One-Electron (alpha) Energy = -991.00345344830521
 One-Electron (beta)  Energy = -960.59784247606240
 Total Coulomb        Energy = 725.52348851792863
 Nuclear repulsion Energy = 262.84731526312208
 SCF   energy in the final basis set =    -1038.1925423247
 Total energy in the final basis set =    -1038.1925423247
 
 --------------------------------------------------------------
 
                    Orbital Energies (a.u.)
 --------------------------------------------------------------
[...]

 26 Hessian modes will be used to form the next step
  Hessian Eigenvalues:
     0.001437    0.009063    0.017575    0.038451    0.045385    0.045811
     0.060749    0.069493    0.080706    0.090098    0.097794    0.122095
     0.123942    0.138034    0.159630    0.160075    0.161571    0.251750
     0.255225    0.325433    0.347880    0.349265    0.349566    0.351213
     0.387416    0.444886

 Minimum Search - Taking Simple RFO Step
 Searching for Lamda that Minimizes Along All modes
 Value Taken    Lamda =  -0.00000136
 Step Taken.  Stepsize is  0.010367

                             Maximum     Tolerance    Cnvgd?
         Gradient           0.000130      0.000300     YES
         Displacement       0.006618      0.001200      NO
         Energy change     -0.000002      0.000001      NO


 New Cartesian Coordinates Obtained by Inverse Iteration

 Displacement from previous Coordinates is:  0.011331
 ----------------------------------------------------------------
             Standard Nuclear Orientation (Angstroms)
    I     Atom           X                Y                Z
 ----------------------------------------------------------------
    1      Cl     -0.5460096687    -1.5127794238    -0.2016748012
    2      Cl     -0.8469251262     2.2218586586     0.1849246530
    3      C      -0.8904901999     0.4236667898     2.2822872795
    4      C      -0.2384840366     0.7533076937     1.0353694213
    5      C      -0.8323857511    -0.9031299474    -1.8768260174
    6      H      -0.6671199203     0.9656761307     3.2012021020
    7      H      -1.7282303555    -0.2688748216     2.3031485432
    8      H       0.8378917555     0.6865615169     0.9154842761
    9      H      -0.8863711528     0.1836555650    -1.8306195085
   10      H      -1.7711874257    -1.3230285913    -2.2343580703
   11      H      -0.0027951187    -1.2269075705    -2.5035328778
 ----------------------------------------------------------------
 Nuclear Repulsion Energy =   262.5262404921 hartrees
 There are       30 alpha and       28 beta electrons

                       Distance Matrix (Angstroms)
             Cl(  1)   Cl(  2)   C (  3)   C (  4)   C (  5)   H (  6)
   Cl(  2)  3.766634
   C (  3)  3.168368  2.763028
   C (  4)  2.600000  1.802803  1.445192
   C (  5)  1.805496  3.743872  4.366004  3.402556
   H (  6)  4.211530  3.272347  1.089988  2.218031  5.413513
   H (  7)  3.036295  3.386344  1.087133  2.207140  4.321690  1.859186
   H (  8)  2.828485  2.393630  2.219137  1.085086  3.621318  2.750904
   H (  9)  2.376383  2.866748  4.119906  2.993018  1.089106  5.096946
   H ( 10)  2.380938  4.390150  4.922058  4.165510  1.088803  6.000204
   H ( 11)  2.382300  4.453577  5.139696  4.062097  1.088951  6.147581
             H (  7)   H (  8)   H (  9)   H ( 10)
   H (  8)  3.069764
   H (  9)  4.242823  3.281323
   H ( 10)  4.658546  4.557110  1.793321
   H ( 11)  5.196070  4.007218  1.795329  1.791342
 
 Applying Cartesian multipole field
    Component          Value
    ---------          -----
     (2,0,0)        1.00000E-11
     (0,2,0)        2.00000E-11
     (0,0,2)       -3.00000E-11
 Nucleus-field energy     =     0.0000000013 hartrees
 Requested basis set is 6-31G(d,p)
 There are 40 shells and 113 basis functions
 A cutoff of  1.0D-14 yielded    743 shell pairs
 There are      6240 function pairs
 Smallest overlap matrix eigenvalue = 8.76E-03
 Guess from superposition of atomic densities
 Warning:  Energy on first SCF cycle will be non-variational
 SAD guess density has 58.000000 electrons

 -----------------------------------------------------------------------
  General SCF calculation program by
  Eric Jon Sundstrom, Paul Horn, Yuezhi Mao, Dmitri Zuev, Alec White,
  David Stuck, Shaama M.S., Shane Yost, Joonho Lee, David Small,
  Daniel Levine, Susi Lehtola, Hugh Burton, Evgeny Epifanovsky
 -----------------------------------------------------------------------
 Exchange:     0.2000 Hartree-Fock + 0.0800 Slater + 0.7200 B88
 Correlation:  0.1900 VWN1RPA + 0.8100 LYP
 Using SG-1 standard quadrature grid
 using 12 threads for integral computing
 -------------------------------------------------------
 OpenMP Integral computing Module                
 Release: version 1.0, May 2013, Q-Chem Inc. Pittsburgh 
 -------------------------------------------------------
 -------------------------------------------------------
 OpenMP BLAS3 based DFT computing Module                
 Release: version 1.0, May 2013, Q-Chem Inc. Pittsburgh 
 -------------------------------------------------------
 A unrestricted SCF calculation will be
 performed using DIIS
 SCF converges when DIIS error is below 1.0e-06
 Alpha HF Exchange    Energy =  -7.26155111935991
 Beta HF Exchange     Energy =  -7.26155111935991
 DFT Correlation      Energy =  -2.75699062393702
 DFT Exchange         Energy = -57.31594638940226
 One-Electron (alpha) Energy = -973.64632948944279
 One-Electron (beta)  Energy = -973.64632948944279
 Total Coulomb        Energy = 720.78202193274751
 ---------------------------------------
  Cycle       Energy         DIIS error
 ---------------------------------------
    1   -1038.5804358048      2.63e-02  
 Alpha HF Exchange    Energy =  -7.38824086527050
 Beta HF Exchange     Energy =  -7.18468390227046
 DFT Correlation      Energy =  -2.77236188769779
 DFT Exchange         Energy = -57.83289965849920
 One-Electron (alpha) Energy = -991.91417650987739
 One-Electron (beta)  Energy = -961.52976864072446
 Total Coulomb        Energy = 727.95143964212332
    2   -1038.1444513289      2.47e-03  
 Alpha HF Exchange    Energy =  -7.34799283890796
 Beta HF Exchange     Energy =  -7.15827812473148
 DFT Correlation      Energy =  -2.75279278664267
 DFT Exchange         Energy = -57.52971610949523
 One-Electron (alpha) Energy = -989.64679557587658
 One-Electron (beta)  Energy = -959.47143253830529
 Total Coulomb        Energy = 723.23235987763610
    3   -1038.1484076030      2.50e-03  
 Alpha HF Exchange    Energy =  -7.36498251183407
 Beta HF Exchange     Energy =  -7.16692042691493
 DFT Correlation      Energy =  -2.76061149356889
 DFT Exchange         Energy = -57.64470468885450
 One-Electron (alpha) Energy = -990.55300683351243
 One-Electron (beta)  Energy = -960.14046034940554
 Total Coulomb        Energy = 724.91341429281067
    4   -1038.1910315179      4.37e-04  
 Alpha HF Exchange    Energy =  -7.36810080126506
 Beta HF Exchange     Energy =  -7.17103133036516
 DFT Correlation      Energy =  -2.76060137077857
 DFT Exchange         Energy = -57.66974083512397
 One-Electron (alpha) Energy = -990.74603220930476
 One-Electron (beta)  Energy = -960.33129828247877
 Total Coulomb        Energy = 725.32824137833313
    5   -1038.1923229576      1.78e-04  
 Alpha HF Exchange    Energy =  -7.36746925243056
 Beta HF Exchange     Energy =  -7.17005782590193
 DFT Correlation      Energy =  -2.76026964709931
 DFT Exchange         Energy = -57.66325488042969
 One-Electron (alpha) Energy = -990.69934686426041
 One-Electron (beta)  Energy = -960.26289841360472
 Total Coulomb        Energy = 725.20450951414477
    6   -1038.1925468762      5.82e-05  
 Alpha HF Exchange    Energy =  -7.36739773904231
 Beta HF Exchange     Energy =  -7.17009502336735
 DFT Correlation      Energy =  -2.76017492600901
 DFT Exchange         Energy = -57.66278161318232
 One-Electron (alpha) Energy = -990.68700227850684
 One-Electron (beta)  Energy = -960.24953123426951
 Total Coulomb        Energy = 725.17817070297394
    7   -1038.1925716180      2.06e-05  
 Alpha HF Exchange    Energy =  -7.36751408333973
 Beta HF Exchange     Energy =  -7.17016915716656
 DFT Correlation      Energy =  -2.76017244463019
 DFT Exchange         Energy = -57.66346124819015
 One-Electron (alpha) Energy = -990.69771069288799
 One-Electron (beta)  Energy = -960.25648349369771
 Total Coulomb        Energy = 725.19669568563006
    8   -1038.1925749409      8.05e-06  
 Alpha HF Exchange    Energy =  -7.36749398196557
 Beta HF Exchange     Energy =  -7.17016537602464
 DFT Correlation      Energy =  -2.76015729156423
 DFT Exchange         Energy = -57.66335176107491
 One-Electron (alpha) Energy = -990.69600275688128
 One-Electron (beta)  Energy = -960.25406426880579
 Total Coulomb        Energy = 725.19241946002467
    9   -1038.1925754829      2.71e-06  
 Alpha HF Exchange    Energy =  -7.36748729103291
 Beta HF Exchange     Energy =  -7.17015425056682
 DFT Correlation      Energy =  -2.76015144012527
 DFT Exchange         Energy = -57.66327588851108
 One-Electron (alpha) Energy = -990.69510185853539
 One-Electron (beta)  Energy = -960.25281544490167
 Total Coulomb        Energy = 725.19017013353152
   10   -1038.1925755468      9.88e-07  Convergence criterion met
 ---------------------------------------
 SCF time:   CPU 24.51s  wall 2.00s 
<S^2> =          2.004259747
 Alpha HF Exchange    Energy =  -7.36748729103291
 Beta HF Exchange     Energy =  -7.17015425056682
 DFT Correlation      Energy =  -2.76015144012527
 DFT Exchange         Energy = -57.66327588851108
 One-Electron (alpha) Energy = -990.69510185853539
 One-Electron (beta)  Energy = -960.25281544490167
 Total Coulomb        Energy = 725.19017013353152
 Nuclear repulsion Energy = 262.52624049336288
 SCF   energy in the final basis set =    -1038.1925755468
 Total energy in the final basis set =    -1038.1925755468
 
 --------------------------------------------------------------
 
                    Orbital Energies (a.u.)
 --------------------------------------------------------------
 
 Alpha MOs
 -- Occupied --
*******-101.538 -10.246 -10.244 -10.213  -9.459  -9.454  -7.222
 -7.218  -7.214  -7.212  -7.210  -7.208  -0.862  -0.849  -0.742
 -0.683  -0.595  -0.464  -0.457  -0.452  -0.438  -0.426  -0.411
 -0.344  -0.312  -0.305  -0.300  -0.230  -0.188
 -- Virtual --
  0.021   0.043   0.107   0.123   0.142   0.144   0.153   0.189
  0.256   0.392   0.403   0.412   0.430   0.447   0.456   0.463
  0.494   0.521   0.537   0.552   0.576   0.584   0.605   0.638
  0.663   0.753   0.812   0.822   0.830   0.844   0.855   0.858
  0.868   0.886   0.904   0.910   0.920   0.942   0.958   0.997
  1.049   1.071   1.120   1.210   1.306   1.406   1.451   1.475
  1.508   1.684   1.815   1.871   1.900   1.964   2.006   2.021
  2.023   2.035   2.044   2.169   2.326   2.343   2.376   2.420
  2.473   2.514   2.572   2.588   2.670   2.793   2.797   2.873
  3.162   3.287   3.325   3.385   3.394   3.460   4.131   4.225
  4.311   4.405   4.411
 
 Beta MOs
 -- Occupied --
*******-101.537 -10.246 -10.230 -10.200  -9.458  -9.453  -7.222
 -7.216  -7.212  -7.211  -7.207  -7.207  -0.855  -0.836  -0.706
 -0.680  -0.565  -0.455  -0.453  -0.439  -0.425  -0.411  -0.401
 -0.323  -0.304  -0.301  -0.294
 -- Virtual --
 -0.081  -0.047   0.024   0.068   0.108   0.138   0.143   0.154
  0.159   0.201   0.275   0.399   0.408   0.420   0.436   0.455
  0.461   0.466   0.502   0.524   0.546   0.572   0.583   0.615
  0.636   0.664   0.687   0.765   0.820   0.829   0.833   0.854
  0.858   0.868   0.874   0.898   0.908   0.916   0.928   0.950
  0.973   1.013   1.053   1.088   1.134   1.224   1.316   1.445
  1.452   1.487   1.546   1.722   1.845   1.907   1.948   1.998
  2.007   2.023   2.036   2.042   2.059   2.186   2.326   2.344
  2.392   2.447   2.495   2.543   2.572   2.617   2.687   2.793
  2.797   2.885   3.162   3.298   3.337   3.385   3.395   3.475
  4.154   4.226   4.328   4.411   4.438
 --------------------------------------------------------------
 
          Ground-State Mulliken Net Atomic Charges

     Atom                 Charge (a.u.)    Spin (a.u.)
  --------------------------------------------------------
      1 Cl                   -0.056666       0.060475
      2 Cl                   -0.082300       0.148777
      3 C                    -0.186833       0.974553
      4 C                    -0.200357       0.841472
      5 C                    -0.401571      -0.002345
      6 H                     0.125103      -0.000225
      7 H                     0.135105      -0.015352
      8 H                     0.158023      -0.009716
      9 H                     0.180855       0.002116
     10 H                     0.165378       0.000123
     11 H                     0.163263       0.000121
  --------------------------------------------------------
  Sum of atomic charges =    -0.000000
  Sum of spin   charges =     2.000000

 -----------------------------------------------------------------
                    Cartesian Multipole Moments
 -----------------------------------------------------------------
    Charge (ESU x 10^10)
                -0.0000
    Dipole Moment (Debye)
         X       0.2088      Y      -0.8338      Z      -0.7520
       Tot       1.1421
    Quadrupole Moments (Debye-Ang)
        XX     -44.1339     XY       1.9275     YY     -50.6178
        XZ       1.0617     YZ       1.7908     ZZ     -37.2300
    Octopole Moments (Debye-Ang^2)
       XXX      91.4602    XXY     -13.0465    XYY      33.7203
       YYY     -33.4117    XXZ      -9.2301    XYZ       0.0209
       YYZ     -10.5520    XZZ      24.0932    YZZ     -12.5911
       ZZZ     -23.2100
    Hexadecapole Moments (Debye-Ang^3)
      XXXX    -203.3319   XXXY      39.6974   XXYY    -147.3551
      XYYY      31.7934   YYYY    -688.2044   XXXZ      17.7276
      XXYZ     -32.3150   XYYZ      10.3294   YYYZ    -108.1873
      XXZZ    -105.8016   XYZZ      15.3607   YYZZ    -182.9513
      XZZZ      10.7249   YZZZ     -77.7489   ZZZZ    -445.5413
 -----------------------------------------------------------------
 Calculating analytic gradient of the SCF energy
 Gradient of SCF Energy
            1           2           3           4           5           6
    1   0.0026784   0.0000301  -0.0000446  -0.0026890  -0.0000913  -0.0000028
    2   0.0195034  -0.0001011  -0.0000090  -0.0193455   0.0000713   0.0000197
    3   0.0106368   0.0000258   0.0000644  -0.0108345   0.0001243  -0.0000135
            7           8           9          10          11
    1  -0.0000207   0.0000783   0.0000224   0.0000181   0.0000210
    2   0.0000301  -0.0001235  -0.0000447  -0.0000089   0.0000083
    3  -0.0000138   0.0000576  -0.0000069  -0.0000348  -0.0000053
 Max gradient component =       1.950E-02
 RMS gradient           =       5.504E-03
 Gradient time:  CPU 8.96 s  wall 0.79 s
 Geometry Optimization Parameters
   NAtoms,    NIC,     NZ,  NCons,   NDum,   NFix, NCnnct, MaxDiis
       11      82       0       1       0       0       0       0

 Cartesian Hessian Update
 Hessian Updated using BFGS Update


** CONSTRAINED OPTIMIZATION IN DELOCALIZED INTERNAL COORDINATES **
   Searching for a Minimum

   Optimization Cycle:  16

                       Coordinates (Angstroms)
     ATOM                X               Y               Z
      1  Cl       -0.5460096687   -1.5127794238   -0.2016748012
      2  Cl       -0.8469251262    2.2218586586    0.1849246530
      3  C        -0.8904901999    0.4236667898    2.2822872795
      4  C        -0.2384840366    0.7533076937    1.0353694213
      5  C        -0.8323857511   -0.9031299474   -1.8768260174
      6  H        -0.6671199203    0.9656761307    3.2012021020
      7  H        -1.7282303555   -0.2688748216    2.3031485432
      8  H         0.8378917555    0.6865615169    0.9154842761
      9  H        -0.8863711528    0.1836555650   -1.8306195085
     10  H        -1.7711874257   -1.3230285913   -2.2343580703
     11  H        -0.0027951187   -1.2269075705   -2.5035328778
   Point Group: c1    Number of degrees of freedom:    27


   Energy is  -1038.192575547

              Constraints and their Current Values
                                        Value     Constraint
   Distance(Angs):        1   4             2.600000     2.600000
 Hessian Updated using BFGS Update

 26 Hessian modes will be used to form the next step
  Hessian Eigenvalues:
     0.001408    0.006965    0.015724    0.040083    0.045397    0.046024
     0.060957    0.067829    0.075450    0.089509    0.098017    0.120322
     0.123744    0.133741    0.159525    0.160022    0.161128    0.251494
     0.252868    0.325773    0.347877    0.349184    0.349585    0.351215
     0.386558    0.454235

 Minimum Search - Taking Simple RFO Step
 Searching for Lamda that Minimizes Along All modes
 Value Taken    Lamda =   0.00000000
 Step Taken.  Stepsize is  0.009064

                             Maximum     Tolerance    Cnvgd?
         Gradient           0.000104      0.000300     YES
         Displacement       0.005603      0.001200      NO
         Energy change     -0.000001      0.000001     YES


                       Distance Matrix (Angstroms)
             Cl(  1)   Cl(  2)   C (  3)   C (  4)   C (  5)   H (  6)
   Cl(  2)  3.766634
   C (  3)  3.168368  2.763028
   C (  4)  2.600000  1.802803  1.445192
   C (  5)  1.805496  3.743872  4.366004  3.402556
   H (  6)  4.211530  3.272347  1.089988  2.218031  5.413513
   H (  7)  3.036295  3.386344  1.087133  2.207140  4.321690  1.859186
   H (  8)  2.828485  2.393630  2.219137  1.085086  3.621318  2.750904
   H (  9)  2.376383  2.866748  4.119906  2.993018  1.089106  5.096946
   H ( 10)  2.380938  4.390150  4.922058  4.165510  1.088803  6.000204
   H ( 11)  2.382300  4.453577  5.139696  4.062097  1.088951  6.147581
             H (  7)   H (  8)   H (  9)   H ( 10)
   H (  8)  3.069764
   H (  9)  4.242823  3.281323
   H ( 10)  4.658546  4.557110  1.793321
   H ( 11)  5.196070  4.007218  1.795329  1.791342
 
 Final energy is   -1038.19257554678     


 ******************************
 **  OPTIMIZATION CONVERGED  **
 ******************************

                       Coordinates (Angstroms)
     ATOM                X               Y               Z
      1  Cl       -0.5460096687   -1.5127794238   -0.2016748012
      2  Cl       -0.8469251262    2.2218586586    0.1849246530
      3  C        -0.8904901999    0.4236667898    2.2822872795
      4  C        -0.2384840366    0.7533076937    1.0353694213
      5  C        -0.8323857511   -0.9031299474   -1.8768260174
      6  H        -0.6671199203    0.9656761307    3.2012021020
      7  H        -1.7282303555   -0.2688748216    2.3031485432
      8  H         0.8378917555    0.6865615169    0.9154842761
      9  H        -0.8863711528    0.1836555650   -1.8306195085
     10  H        -1.7711874257   -1.3230285913   -2.2343580703
     11  H        -0.0027951187   -1.2269075705   -2.5035328778

Z-matrix Print:
$molecule
0 3
Cl
C  1 1.805496
H  2 1.088803 1 108.131973
H  2 1.088951 1 108.224004 3 -119.942123 0
H  2 1.089106 1 107.784802 3 119.898768 0
C  1 2.600000 2 99.549554 3 -125.386935 0
H  6 1.085086 1 90.638874 2 -94.289370 0
C  6 1.445192 1 99.110967 2 143.203238 0
H  8 1.087133 6 120.631836 1 -32.327620 0
H  8 1.089988 6 121.433598 1 157.115780 0
Cl 6 1.802803 1 116.462548 2 17.876971 0
$end

PES scan, value:    2.6000 energy: -1038.1925755468
------- Summary of potential scan: ------ 
    2.6000     -1038.1925755468
----------------------------------------- 
Archival summary:
1\1\hpc0332\JobtypUnspecified\ProcedureUnspecified\6-31G**\l236(3)\knomura\MonMar1122:42:242019MonMar1122:42:242019\0\\#,JobtypUnspecified,ProcedureUnspecified,6-31G**,\\0,3\Cl\C,1,1.8055\H,2,1.0888,1,108.132\H,2,1.08895,1,108.224,3,-119.942,0\H,2,1.08911,1,107.785,3,119.899,0\C,1,2.6,2,99.5496,3,-125.387,0\H,6,1.08509,1,90.6389,2,-94.2894,0\C,6,1.44519,1,99.111,2,143.203,0\H,8,1.08713,6,120.632,1,-32.3276,0\H,8,1.08999,6,121.434,1,157.116,0\Cl,6,1.8028,1,116.463,2,17.877,0\\\@

 Total job time:  55.39s(wall), 616.25s(cpu) 
 Mon Mar 11 22:42:25 2019

        *************************************************************
        *                                                           *
        *  Thank you very much for using Q-Chem.  Have a nice day.  *
        *                                                           *
        *************************************************************


