
Running Job 1 of 1 ruruma/CH3CH2CHCl2_afterGeo_siglet.xyz.data/inputs/bond_singlet_2.4.in
qchem ruruma/CH3CH2CHCl2_afterGeo_siglet.xyz.data/inputs/bond_singlet_2.4.in_16849.0 /staging/scratch/2858534/qchem16849/ 1
/usr/usc/qchem/5.1.1/exe/qcprog.exe_s ruruma/CH3CH2CHCl2_afterGeo_siglet.xyz.data/inputs/bond_singlet_2.4.in_16849.0 /staging/scratch/2858534/qchem16849/
Check license passed

                  Welcome to Q-Chem
     A Quantum Leap Into The Future Of Chemistry


 Q-Chem 5.1, Q-Chem, Inc., Pleasanton, CA (2018)

 Yihan Shao,  Zhengting Gan,  E. Epifanovsky,  A. T. B. Gilbert,  M. Wormit,  
 J. Kussmann,  A. W. Lange,  A. Behn,  Jia Deng,  Xintian Feng,  D. Ghosh,  
 M. Goldey,  P. R. Horn,  L. D. Jacobson,  I. Kaliman,  T. Kus,  A. Landau,  
 Jie Liu,  E. I. Proynov,  R. M. Richard,  R. P. Steele,  E. J. Sundstrom,  
 H. L. Woodcock III,  P. M. Zimmerman,  D. Zuev,  B. Albrecht,  E. Alguire,  
 S. A. Baeppler,  D. Barton,  Z. Benda,  Y. A. Bernard,  E. J. Berquist,  
 K. B. Bravaya,  H. Burton,  D. Casanova,  Chun-Min Chang,  Yunqing Chen,  
 A. Chien,  K. D. Closser,  M. P. Coons,  S. Coriani,  S. Dasgupta,  
 A. L. Dempwolff,  M. Diedenhofen,  Hainam Do,  R. G. Edgar,  Po-Tung Fang,  
 S. Faraji,  S. Fatehi,  Qingguo Feng,  K. D. Fenk,  J. Fosso-Tande,  
 Qinghui Ge,  A. Ghysels,  G. Gidofalvi,  J. Gomes,  J. Gonthier,  A. Gunina,  
 D. Hait,  M. W. D. Hanson-Heine,  P. H. P. Harbach,  A. W. Hauser,  
 J. E. Herr,  E. G. Hohenstein,  Z. C. Holden,  Kerwin Hui,  B. C. Huynh,  
 T.-C. Jagau,  Hyunjun Ji,  B. Kaduk,  K. Khistyaev,  Jaehoon Kim,  
 P. Klunzinger,  K. Koh,  D. Kosenkov,  L. Koulias,  T. Kowalczyk,  
 C. M. Krauter,  A. Kunitsa,  Ka Un Lao,  A. Laurent,  K. V. Lawler,  
 Joonho Lee,  D. Lefrancois,  S. Lehtola,  D. S. Levine,  Yi-Pei Li,  
 You-Sheng Lin,  Fenglai Liu,  E. Livshits,  A. Luenser,  P. Manohar,  
 E. Mansoor,  S. F. Manzer,  Shan-Ping Mao,  Yuezhi Mao,  N. Mardirossian,  
 A. V. Marenich,  T. Markovich,  L. A. Martinez-Martinez,  S. A. Maurer,  
 N. J. Mayhall,  S. C. McKenzie,  J.-M. Mewes,  A. F. Morrison,  
 J. W. Mullinax,  K. Nanda,  T. S. Nguyen-Beck,  R. Olivares-Amaya,  
 J. A. Parkhill,  T. M. Perrine,  F. Plasser,  P. Pokhilko,  S. Prager,  
 A. Prociuk,  E. Ramos,  D. R. Rehn,  F. Rob,  M. Schneider,  N. Sergueev,  
 S. M. Sharada,  S. Sharma,  D. W. Small,  T. Stauch,  T. Stein,  
 Yu-Chuan Su,  A. J. W. Thom,  A. Tkatchenko,  T. Tsuchimochi,  N. M. Tubman,  
 L. Vogt,  M. L. Vidal,  O. Vydrov,  M. A. Watson,  J. Wenzel,  
 M. de Wergifosse,  T. A. Wesolowski,  A. White,  J. Witte,  A. Yamada,  
 Jun Yang,  K. Yao,  S. Yeganeh,  S. R. Yost,  Zhi-Qiang You,  A. Zech,  
 Igor Ying Zhang,  Xing Zhang,  Yan Zhao,  Ying Zhu,  B. R. Brooks,  
 G. K. L. Chan,  C. J. Cramer,  M. S. Gordon,  W. J. Hehre,  A. Klamt,  
 M. W. Schmidt,  C. D. Sherrill,  D. G. Truhlar,  A. Aspuru-Guzik,  R. Baer,  
 A. T. Bell,  N. A. Besley,  Jeng-Da Chai,  A. E. DePrince, III,  
 R. A. DiStasio Jr.,  A. Dreuw,  B. D. Dunietz,  T. R. Furlani,  
 Chao-Ping Hsu,  Yousung Jung,  Jing Kong,  D. S. Lambrecht,  WanZhen Liang,  
 C. Ochsenfeld,  V. A. Rassolov,  L. V. Slipchenko,  J. E. Subotnik,  
 T. Van Voorhis,  J. M. Herbert,  A. I. Krylov,  P. M. W. Gill,  M. Head-Gordon

 Contributors to earlier versions of Q-Chem not listed above: 
 R. D. Adamson,  B. Austin,  J. Baker,  G. J. O. Beran,  K. Brandhorst,  
 S. T. Brown,  E. F. C. Byrd,  A. K. Chakraborty,  C.-L. Cheng,  
 Siu Hung Chien,  D. M. Chipman,  D. L. Crittenden,  H. Dachsel,  
 R. J. Doerksen,  A. D. Dutoi,  L. Fusti-Molnar,  W. A. Goddard III,  
 A. Golubeva-Zadorozhnaya,  S. R. Gwaltney,  G. Hawkins,  A. Heyden,  
 S. Hirata,  G. Kedziora,  F. J. Keil,  C. Kelley,  Jihan Kim,  R. A. King,  
 R. Z. Khaliullin,  P. P. Korambath,  W. Kurlancheek,  A. M. Lee,  M. S. Lee,  
 S. V. Levchenko,  Ching Yeh Lin,  D. Liotard,  R. C. Lochan,  I. Lotan,  
 P. E. Maslen,  N. Nair,  D. P. O'Neill,  D. Neuhauser,  E. Neuscamman,  
 C. M. Oana,  R. Olson,  B. Peters,  R. Peverati,  P. A. Pieniazek,  
 Y. M. Rhee,  J. Ritchie,  M. A. Rohrdanz,  E. Rosta,  N. J. Russ,  
 H. F. Schaefer III,  N. E. Schultz,  N. Shenvi,  A. C. Simmonett,  A. Sodt,  
 D. Stuck,  K. S. Thanthiriwatte,  V. Vanovschi,  Tao Wang,  A. Warshel,  
 C. F. Williams,  Q. Wu,  X. Xu,  W. Zhang

 Please cite Q-Chem as follows:
 Y. Shao et al., Mol. Phys. 113, 184-215 (2015)
 DOI: 10.1080/00268976.2014.952696

 Q-Chem 5.1.1 for Intel X86 EM64T Linux

 Parts of Q-Chem use Armadillo 8.300.2 (Tropical Shenanigans).
 http://arma.sourceforge.net/

 Q-Chem begins on Mon Mar 11 21:40:41 2019  

Host: 
0

     Scratch files written to /staging/scratch/2858534/qchem16849//
 Aug318 |scratch|qcdevops|jenkins|workspace|build_RNUM 6013   
Processing $rem in /usr/usc/qchem/5.1.1/config/preferences.
 MEM_TOTAL  2000 
Input Ideriv = 2
Curr. Ideriv = -1
Max.  Ideriv = 2

Checking the input file for inconsistencies... 	...done.

--------------------------------------------------------------
User input:
--------------------------------------------------------------

$comment
potential surface scanner
$end

$rem
JOBTYPE  PES_SCAN
UNRESTRICTED TRUE
SYM_IGNORE  TRUE
GEOM_OPT_MAX_CYCLES 400
SCF_MAX_CYCLES 400
METHOD   B3LYP
BASIS   6-31G**
PDB_PRINT 2
SCF_CONVERGENCE 6
THRESH 14
SCF_PRINT 1
$end
$molecule
0 1
Cl 1.170676 -1.790979 -0.365408
Cl 1.104978 1.474302 -0.338794
C -1.023063 0.037508 0.703006
C 0.465019 0.169944 0.607643
C -1.793737 0.024524 -0.616631
H -1.349065 0.886806 1.326560
H -1.218759 -0.870910 1.281121
H 1.046492 0.014892 1.509473
H -1.474337 -0.820193 -1.231118
H -2.864206 -0.071608 -0.416798
H -1.636100 0.945713 -1.183661
$end
$scan
stre 1 4 2.400000 2.401000 0.100000
$end
--------------------------------------------------------------
 ----------------------------------------------------------------
             Standard Nuclear Orientation (Angstroms)
    I     Atom           X                Y                Z
 ----------------------------------------------------------------
    1      Cl      1.1706760000    -1.7909790000    -0.3654080000
    2      Cl      1.1049780000     1.4743020000    -0.3387940000
    3      C      -1.0230630000     0.0375080000     0.7030060000
    4      C       0.4650190000     0.1699440000     0.6076430000
    5      C      -1.7937370000     0.0245240000    -0.6166310000
    6      H      -1.3490650000     0.8868060000     1.3265600000
    7      H      -1.2187590000    -0.8709100000     1.2811210000
    8      H       1.0464920000     0.0148920000     1.5094730000
    9      H      -1.4743370000    -0.8201930000    -1.2311180000
   10      H      -2.8642060000    -0.0716080000    -0.4167980000
   11      H      -1.6361000000     0.9457130000    -1.1836610000
 ----------------------------------------------------------------
 Nuclear Repulsion Energy =   272.6555653769 hartrees
 There are       29 alpha and       29 beta electrons
 Requested basis set is 6-31G(d,p)
 There are 40 shells and 113 basis functions

 Total QAlloc Memory Limit   2000 MB
 Mega-Array Size       188 MB
 MEM_STATIC part       192 MB
A total of 1 constraints
  
            1
    1   1.0100000
    2   1.0100000
    3   4.0100000
    4   2.4000000
    5   2.4010000
    6   0.1000000
    7   0.0000000
    8   0.0000000
    9   0.0000000
   10   0.0000000

                       Distance Matrix (Angstroms)
             Cl(  1)   Cl(  2)   C (  3)   C (  4)   C (  5)   H (  6)
   Cl(  2)  3.266050
   C (  3)  3.049158  2.770971
   C (  4)  2.300000  1.733967  1.497004
   C (  5)  3.485242  3.252937  1.528250  2.573319
   H (  6)  4.047516  3.023389  1.102907  2.078854  2.171924
   H (  7)  3.044172  3.677485  1.094412  2.090947  2.175745  1.763125
   H (  8)  2.606103  2.355714  2.221252  1.084181  3.547860  2.555853
   H (  9)  2.947537  3.565644  2.163362  2.850003  1.092317  3.077540
   H ( 10)  4.386246  4.260322  2.157701  3.491642  1.093196  2.500701
   H ( 11)  4.004624  2.916627  2.181780  2.867976  1.093143  2.527265
             H (  7)   H (  8)   H (  9)   H ( 10)
   H (  8)  2.442980
   H (  9)  2.525715  3.816122
   H ( 10)  2.495858  4.360225  1.776297
   H ( 11)  3.090217  3.913528  1.773934  1.769538
 
 A cutoff of  1.0D-14 yielded    783 shell pairs
 There are      6436 function pairs
 
 -------------------------------------------------------
 OpenMP Integral Computing Module                       
 Release: version 1.0, May 2013, Q-Chem Inc. Pittsburgh 
 -------------------------------------------------------
 Integral Job Info:
 Integral job number is                      11
 Integral operator is                         1
 short-range coefficients                     0
 long-range coefficients              100000000
 Omega coefficients                           0
 if combine SR and LR in K                    0
 Integral screening is                        0
 Integral computing path is                   2
 max size of driver memory is            800000
 size of driver memory is                593474
 size of scratch memory is             15267112
 max col of scratch BK array               1296
 max len of scratch array in speh3          155
 max len of scratch index in speh4           18
 max int batch size is                      520
 min int batch size is                       52
 fixed nKL is                                52
 max L of basis functions is                  2
 order of int derivative is                   0
 number of shells is                         40
 number of basis is                         113
 number of cartesian basis is               113
 number of contracted shell pairs           783
 number of primitive shell pairs           3190
 maxK2 (contraction) of shell pair           36
 max number of K2 of shell pair               1
 max number of CS2 of shell pair             60
 max number of PS2 of shell pair            330
 mem total for path MDJ                  520332
 -------------------------------------------------------
 Smallest overlap matrix eigenvalue = 5.76E-03

 Scale SEOQF with 1.000000e-01/1.000000e-01/1.000000e+00

 Standard Electronic Orientation quadrupole field applied
 Nucleus-field energy     =    -0.0000000120 hartrees
 Guess from superposition of atomic densities
 Warning:  Energy on first SCF cycle will be non-variational
 SAD guess density has 58.000000 electrons

 -----------------------------------------------------------------------
  General SCF calculation program by
  Eric Jon Sundstrom, Paul Horn, Yuezhi Mao, Dmitri Zuev, Alec White,
  David Stuck, Shaama M.S., Shane Yost, Joonho Lee, David Small,
  Daniel Levine, Susi Lehtola, Hugh Burton, Evgeny Epifanovsky
 -----------------------------------------------------------------------
 Exchange:     0.2000 Hartree-Fock + 0.0800 Slater + 0.7200 B88
 Correlation:  0.1900 VWN1RPA + 0.8100 LYP
 Using SG-1 standard quadrature grid
 using 12 threads for integral computing
 -------------------------------------------------------
 OpenMP Integral computing Module                
 Release: version 1.0, May 2013, Q-Chem Inc. Pittsburgh 
 -------------------------------------------------------
 -------------------------------------------------------
 OpenMP BLAS3 based DFT computing Module                
 Release: version 1.0, May 2013, Q-Chem Inc. Pittsburgh 
 -------------------------------------------------------
 A unrestricted SCF calculation will be
 performed using DIIS
 SCF converges when DIIS error is below 1.0e-06
 Alpha HF Exchange    Energy =  -7.28279527062497
 Beta HF Exchange     Energy =  -7.28279527062497
 DFT Correlation      Energy =  -2.76533153556423
 DFT Exchange         Energy = -57.34959822881870
 One-Electron (alpha) Energy = -983.76272356285824
 One-Electron (beta)  Energy = -983.76272356285824
 Total Coulomb        Energy = 730.81014159923757
 ---------------------------------------
  Cycle       Energy         DIIS error
 ---------------------------------------
    1   -1038.7402604672      2.74e-02  
 Alpha HF Exchange    Energy =  -7.29190076795813
 Beta HF Exchange     Energy =  -7.29190076795813
 DFT Correlation      Energy =  -2.78768290272155
 DFT Exchange         Energy = -57.86558418995118
 One-Electron (alpha) Energy = -986.86796977608719
 One-Electron (beta)  Energy = -986.86796977608731
 Total Coulomb        Energy = 738.10101323596848
    2   -1038.2164295799      3.50e-03  
 Alpha HF Exchange    Energy =  -7.23836520490694
 Beta HF Exchange     Energy =  -7.23836520490694
 DFT Correlation      Energy =  -2.76987570961514
 DFT Exchange         Energy = -57.45030037740844
 One-Electron (alpha) Energy = -983.94559029250513
 One-Electron (beta)  Energy = -983.94559029250479
 Total Coulomb        Energy = 731.86632351690787
    3   -1038.0661982000      5.72e-03  
 Alpha HF Exchange    Energy =  -7.25983680697077
 Beta HF Exchange     Energy =  -7.25983680697077
 DFT Correlation      Energy =  -2.77506679784497
 DFT Exchange         Energy = -57.60272775227838
 One-Electron (alpha) Energy = -984.97132100992565
 One-Electron (beta)  Energy = -984.97132100992576
 Total Coulomb        Energy = 733.89024621142960
    4   -1038.2942986076      1.39e-03  
 Alpha HF Exchange    Energy =  -7.26280560956377
 Beta HF Exchange     Energy =  -7.26280560956376
 DFT Correlation      Energy =  -2.77824584234240
 DFT Exchange         Energy = -57.63859816478200
 One-Electron (alpha) Energy = -985.38054673476927
 One-Electron (beta)  Energy = -985.38054673476927
 Total Coulomb        Energy = 734.73966906662747
    5   -1038.3083142643      3.08e-04  
 Alpha HF Exchange    Energy =  -7.26375615372676
 Beta HF Exchange     Energy =  -7.26375615372676
 DFT Correlation      Energy =  -2.77810057652482
 DFT Exchange         Energy = -57.64429366668392
 One-Electron (alpha) Energy = -985.39284882604261
 One-Electron (beta)  Energy = -985.39284882604261
 Total Coulomb        Energy = 734.77107206531298
    6   -1038.3089667725      6.63e-05  
 Alpha HF Exchange    Energy =  -7.26339053667509
 Beta HF Exchange     Energy =  -7.26339053667509
 DFT Correlation      Energy =  -2.77801094457288
 DFT Exchange         Energy = -57.64129723433778
 One-Electron (alpha) Energy = -985.36940897944851
 One-Electron (beta)  Energy = -985.36940897944817
 Total Coulomb        Energy = 734.72034468076936
    7   -1038.3089971655      2.11e-05  
 Alpha HF Exchange    Energy =  -7.26339615272341
 Beta HF Exchange     Energy =  -7.26339615272341
 DFT Correlation      Energy =  -2.77800928853065
 DFT Exchange         Energy = -57.64128105931668
 One-Electron (alpha) Energy = -985.36952019332455
 One-Electron (beta)  Energy = -985.36952019332466
 Total Coulomb        Energy = 734.72055744115528
    8   -1038.3090002339      3.86e-06  
 Alpha HF Exchange    Energy =  -7.26342387594659
 Beta HF Exchange     Energy =  -7.26342387594661
 DFT Correlation      Energy =  -2.77801733538433
 DFT Exchange         Energy = -57.64149729124883
 One-Electron (alpha) Energy = -985.37180287311514
 One-Electron (beta)  Energy = -985.37180287311617
 Total Coulomb        Energy = 734.72540240397655
    9   -1038.3090003559      9.84e-07  Convergence criterion met
 ---------------------------------------
 SCF time:   CPU 25.73s  wall 2.00s 
<S^2> =          0.000000000
 Alpha HF Exchange    Energy =  -7.26342387594659
 Beta HF Exchange     Energy =  -7.26342387594661
 DFT Correlation      Energy =  -2.77801733538433
 DFT Exchange         Energy = -57.64149729124883
 One-Electron (alpha) Energy = -985.37180287311514
 One-Electron (beta)  Energy = -985.37180287311617
 Total Coulomb        Energy = 734.72540240397655
 Nuclear repulsion Energy = 272.65556536489106
 SCF   energy in the final basis set =    -1038.3090003559
 Total energy in the final basis set =    -1038.3090003559
 
 --------------------------------------------------------------
 
                    Orbital Energies (a.u.)
 --------------------------------------------------------------
 
 Alpha MOs
 -- Occupied --
*******-101.509 -10.337 -10.231 -10.195  -9.500  -9.422  -7.264
 -7.255  -7.253  -7.185  -7.176  -7.176  -0.913  -0.806  -0.756
 -0.697  -0.605  -0.511  -0.486  -0.458  -0.406  -0.394  -0.382
 -0.365  -0.336  -0.307  -0.279  -0.278
 -- Virtual --
 -0.097   0.015   0.077   0.114   0.135   0.142   0.160   0.178
  0.193   0.226   0.340   0.389   0.402   0.425   0.436   0.459
  0.478   0.489   0.519   0.553   0.564   0.601   0.626   0.638
  0.665   0.705   0.736   0.788   0.813   0.832   0.842   0.853
  0.880   0.889   0.893   0.913   0.924   0.928   0.943   0.966
  0.973   1.042   1.052   1.177   1.299   1.386   1.398   1.507
  1.586   1.641   1.797   1.808   1.835   1.889   1.987   2.036
  2.055   2.076   2.085   2.115   2.226   2.262   2.334   2.376
  2.477   2.498   2.553   2.678   2.689   2.770   2.793   2.866
  2.882   3.186   3.265   3.296   3.376   3.449   3.501   4.125
  4.268   4.305   4.408   4.589
 
 Beta MOs
 -- Occupied --
*******-101.509 -10.337 -10.231 -10.195  -9.500  -9.422  -7.264
 -7.255  -7.253  -7.185  -7.176  -7.176  -0.913  -0.806  -0.756
 -0.697  -0.605  -0.511  -0.486  -0.458  -0.406  -0.394  -0.382
 -0.365  -0.336  -0.307  -0.279  -0.278
 -- Virtual --
 -0.097   0.015   0.077   0.114   0.135   0.142   0.160   0.178
  0.193   0.226   0.340   0.389   0.402   0.425   0.436   0.459
  0.478   0.489   0.519   0.553   0.564   0.601   0.626   0.638
  0.665   0.705   0.736   0.788   0.813   0.832   0.842   0.853
  0.880   0.889   0.893   0.913   0.924   0.928   0.943   0.966
  0.973   1.042   1.052   1.177   1.299   1.386   1.398   1.507
  1.586   1.641   1.797   1.808   1.835   1.889   1.987   2.036
  2.055   2.076   2.085   2.115   2.226   2.262   2.334   2.376
  2.477   2.498   2.553   2.678   2.689   2.770   2.793   2.866
  2.882   3.186   3.265   3.296   3.376   3.449   3.501   4.125
  4.268   4.305   4.408   4.589
 --------------------------------------------------------------
 
          Ground-State Mulliken Net Atomic Charges

     Atom                 Charge (a.u.)    Spin (a.u.)
  --------------------------------------------------------
      1 Cl                   -0.298915      -0.000000
      2 Cl                    0.071578      -0.000000
      3 C                    -0.184229       0.000000
      4 C                    -0.165954      -0.000000
      5 C                    -0.324138      -0.000000
      6 H                     0.138219      -0.000000
      7 H                     0.154102       0.000000
      8 H                     0.211525      -0.000000
      9 H                     0.154873       0.000000
     10 H                     0.116172       0.000000
     11 H                     0.126766      -0.000000
  --------------------------------------------------------
  Sum of atomic charges =    -0.000000
  Sum of spin   charges =    -0.000000

 -----------------------------------------------------------------
                    Cartesian Multipole Moments
 -----------------------------------------------------------------
    Charge (ESU x 10^10)
                 0.0000
    Dipole Moment (Debye)
         X      -2.3409      Y       2.4860      Z       2.0666
       Tot       3.9914
    Quadrupole Moments (Debye-Ang)
        XX     -45.2973     XY       3.0569     YY     -49.2633
        XZ       1.0676     YZ      -0.8144     ZZ     -42.7167
    Octopole Moments (Debye-Ang^2)
       XXX     -41.5103    XXY       7.6388    XYY     -15.6250
       YYY      19.9527    XXZ       6.4502    XYZ      -1.1834
       YYZ       3.2208    XZZ     -10.8375    YZZ       4.9607
       ZZZ      17.5360
    Hexadecapole Moments (Debye-Ang^3)
      XXXX    -456.5605   XXXY      29.1800   XXYY    -157.6908
      XYYY      30.8542   YYYY    -474.8706   XXXZ      13.3751
      XXYZ      -4.5798   XYYZ      -0.8370   YYYZ     -10.7909
      XXZZ     -96.9399   XYZZ       9.0431   YYZZ     -99.0061
      XZZZ      15.4716   YZZZ      -9.8358   ZZZZ    -137.5492
 -----------------------------------------------------------------
 Calculating analytic gradient of the SCF energy
 Gradient of SCF Energy
            1           2           3           4           5           6
    1   0.0125391   0.0000188   0.0000398  -0.0125878  -0.0000163  -0.0000145
    2  -0.0348573  -0.0000307  -0.0000191   0.0349040   0.0000265  -0.0000280
    3  -0.0173328  -0.0000300  -0.0000257   0.0173344   0.0000100   0.0000356
            7           8           9          10          11
    1   0.0000189   0.0000016  -0.0000264   0.0000001   0.0000268
    2  -0.0000115  -0.0000305   0.0000017   0.0000372   0.0000077
    3  -0.0000091  -0.0000037  -0.0000008   0.0000206   0.0000013
 Max gradient component =       3.490E-02
 RMS gradient           =       1.008E-02
 Gradient time:  CPU 11.69 s  wall 1.20 s
 Geometry Optimization Parameters
   NAtoms,    NIC,     NZ,  NCons,   NDum,   NFix, NCnnct, MaxDiis
       11      68       0       1       0       0       0       0


** CONSTRAINED OPTIMIZATION IN DELOCALIZED INTERNAL COORDINATES **
   Searching for a Minimum

   Optimization Cycle:   1

                       Coordinates (Angstroms)
     ATOM                X               Y               Z
      1  Cl        1.1706760000   -1.7909790000   -0.3654080000
      2  Cl        1.1049780000    1.4743020000   -0.3387940000
      3  C        -1.0230630000    0.0375080000    0.7030060000
      4  C         0.4650190000    0.1699440000    0.6076430000
      5  C        -1.7937370000    0.0245240000   -0.6166310000
      6  H        -1.3490650000    0.8868060000    1.3265600000
      7  H        -1.2187590000   -0.8709100000    1.2811210000
      8  H         1.0464920000    0.0148920000    1.5094730000
      9  H        -1.4743370000   -0.8201930000   -1.2311180000
     10  H        -2.8642060000   -0.0716080000   -0.4167980000
     11  H        -1.6361000000    0.9457130000   -1.1836610000
   Point Group: c1    Number of degrees of freedom:    27


   Energy is  -1038.309000356

              Constraints and their Current Values
                                        Value     Constraint
   Distance(Angs):        1   4             2.300000     2.400000

 Attempting to Generate Delocalized Internal Coordinates

   Using Lagrange Multiplier Algorithm


 28 Hessian modes will be used to form the next step
  Hessian Eigenvalues:
    -0.962258    0.045000    0.045000    0.065893    0.076395    0.077369
     0.082959    0.084290    0.100124    0.108419    0.135257    0.160000
     0.160000    0.160000    0.160000    0.220201    0.226606    0.240108
     0.295856    0.320940    0.326937    0.333627    0.343077    0.344458
     0.344519    0.345462    0.354938    1.039222

 Minimum Search - Taking P-RFO Step
 Searching for Lamda that Maximizes Along the Constraint modes Only
 Value Taken    Lamda =   0.02735061
 Searching for Lamda that Minimizes Along All other modes
 Value Taken    Lamda =  -0.00983378
 Step Taken.  Stepsize is  0.185040

                             Maximum     Tolerance    Cnvgd?
         Gradient            0.188973       0.000300      NO
         Displacement        0.185036       0.001200      NO
         Energy change     *********       0.000001      NO


 New Cartesian Coordinates Obtained by Inverse Iteration

 Displacement from previous Coordinates is:  0.171361
 ----------------------------------------------------------------
             Standard Nuclear Orientation (Angstroms)
    I     Atom           X                Y                Z
 ----------------------------------------------------------------
    1      Cl      1.2053766554    -1.8610308828    -0.3972892787
    2      Cl      1.0980494000     1.4877604926    -0.3326302193
    3      C      -1.0271516779     0.0445804683     0.7060231212
    4      C       0.4607139319     0.1819342649     0.6135401363
    5      C      -1.7950932464     0.0275441013    -0.6151710610
    6      H      -1.3572367415     0.8934580759     1.3279858474
    7      H      -1.2209696643    -0.8639072751     1.2846655752
    8      H       1.0408848348     0.0298110288     1.5167018521
    9      H      -1.4713664416    -0.8166157604    -1.2281431158
   10      H      -2.8656300325    -0.0722735858    -0.4174925004
   11      H      -1.6396790179     0.9487380724    -1.1827973570
 ----------------------------------------------------------------
 Nuclear Repulsion Energy =   269.3845824311 hartrees
 There are       29 alpha and       29 beta electrons

                       Distance Matrix (Angstroms)
             Cl(  1)   Cl(  2)   C (  3)   C (  4)   C (  5)   H (  6)
   Cl(  2)  3.351135
   C (  3)  3.135735  2.770929
   C (  4)  2.397917  1.733960  1.497052
   C (  5)  3.552043  3.253050  1.528260  2.573370
   H (  6)  4.138934  3.023123  1.102899  2.078856  2.171954
   H (  7)  3.116149  3.677477  1.094414  2.090993  2.175703  1.763173
   H (  8)  2.695497  2.355613  2.221304  1.084177  3.547909  2.555873
   H (  9)  2.990999  3.565668  2.163327  2.849883  1.092309  3.077527
   H ( 10)  4.446702  4.260477  2.157764  3.491735  1.093201  2.500916
   H ( 11)  4.075066  2.916931  2.181819  2.868182  1.093138  2.527224
             H (  7)   H (  8)   H (  9)   H ( 10)
   H (  8)  2.443063
   H (  9)  2.525696  3.816021
   H ( 10)  2.495783  4.360320  1.776280
   H ( 11)  3.090206  3.913712  1.773939  1.769495
 
 Applying Cartesian multipole field
    Component          Value
    ---------          -----
     (2,0,0)        1.00000E-11
     (0,2,0)        2.00000E-11
     (0,0,2)       -3.00000E-10
 Nucleus-field energy     =    -0.0000000120 hartrees
 Requested basis set is 6-31G(d,p)
 There are 40 shells and 113 basis functions
 A cutoff of  1.0D-14 yielded    782 shell pairs
 There are      6430 function pairs
 Smallest overlap matrix eigenvalue = 5.80E-03
 Guess from superposition of atomic densities
 Warning:  Energy on first SCF cycle will be non-variational
 SAD guess density has 58.000000 electrons

 -----------------------------------------------------------------------
  General SCF calculation program by
  Eric Jon Sundstrom, Paul Horn, Yuezhi Mao, Dmitri Zuev, Alec White,
  David Stuck, Shaama M.S., Shane Yost, Joonho Lee, David Small,
  Daniel Levine, Susi Lehtola, Hugh Burton, Evgeny Epifanovsky
 -----------------------------------------------------------------------
 Exchange:     0.2000 Hartree-Fock + 0.0800 Slater + 0.7200 B88
 Correlation:  0.1900 VWN1RPA + 0.8100 LYP
 Using SG-1 standard quadrature grid
 using 12 threads for integral computing
 -------------------------------------------------------
 OpenMP Integral computing Module                
 Release: version 1.0, May 2013, Q-Chem Inc. Pittsburgh 
 -------------------------------------------------------
 -------------------------------------------------------
 OpenMP BLAS3 based DFT computing Module                
 Release: version 1.0, May 2013, Q-Chem Inc. Pittsburgh 
 -------------------------------------------------------
 A unrestricted SCF calculation will be
 performed using DIIS
 SCF converges when DIIS error is below 1.0e-06
 Alpha HF Exchange    Energy =  -7.27973714233250
 Beta HF Exchange     Energy =  -7.27973714233250
 DFT Correlation      Energy =  -2.76366981435926
 DFT Exchange         Energy = -57.34389313151061
 One-Electron (alpha) Energy = -980.49396335848382
 One-Electron (beta)  Energy = -980.49396335848382
 Total Coulomb        Energy = 727.55542187446588
 ---------------------------------------
  Cycle       Energy         DIIS error
 ---------------------------------------
    1   -1038.7149596540      2.72e-02  
 Alpha HF Exchange    Energy =  -7.29123857567403
 Beta HF Exchange     Energy =  -7.29123857567404
 DFT Correlation      Energy =  -2.78612790746496
 DFT Exchange         Energy = -57.86083071650958
 One-Electron (alpha) Energy = -983.59806623637405
 One-Electron (beta)  Energy = -983.59806623637439
 Total Coulomb        Energy = 734.84201265192735
    2   -1038.1989731771      3.60e-03  
 Alpha HF Exchange    Energy =  -7.23710559788816
 Beta HF Exchange     Energy =  -7.23710559788816
 DFT Correlation      Energy =  -2.76854479859504
 DFT Exchange         Energy = -57.44210405962242
 One-Electron (alpha) Energy = -980.63395736223401
 One-Electron (beta)  Energy = -980.63395736223424
 Total Coulomb        Energy = 728.61588066144907
    3   -1037.9523116980      6.66e-03  
 Alpha HF Exchange    Energy =  -7.25724876384543
 Beta HF Exchange     Energy =  -7.25724876384543
 DFT Correlation      Energy =  -2.77273723550697
 DFT Exchange         Energy = -57.58364369696500
 One-Electron (alpha) Energy = -981.59999854423552
 One-Electron (beta)  Energy = -981.59999854423540
 Total Coulomb        Energy = 730.40642975900528
    4   -1038.2798633706      1.65e-03  
 Alpha HF Exchange    Energy =  -7.26075021203928
 Beta HF Exchange     Energy =  -7.26075021203928
 DFT Correlation      Energy =  -2.77660897428293
 DFT Exchange         Energy = -57.62727738455699
 One-Electron (alpha) Energy = -982.08528361588480
 One-Electron (beta)  Energy = -982.08528361588549
 Total Coulomb        Energy = 731.41102937193216
    5   -1038.3003422237      3.54e-04  
 Alpha HF Exchange    Energy =  -7.26203583873214
 Beta HF Exchange     Energy =  -7.26203583873214
 DFT Correlation      Energy =  -2.77651205040900
 DFT Exchange         Energy = -57.63534194008422
 One-Electron (alpha) Energy = -982.11493887047789
 One-Electron (beta)  Energy = -982.11493887047789
 Total Coulomb        Energy = 731.48002141115501
    6   -1038.3011995787      8.78e-05  
 Alpha HF Exchange    Energy =  -7.26160309151854
 Beta HF Exchange     Energy =  -7.26160309151855
 DFT Correlation      Energy =  -2.77640139174142
 DFT Exchange         Energy = -57.63175129784253
 One-Electron (alpha) Energy = -982.08620056535165
 One-Electron (beta)  Energy = -982.08620056535256
 Total Coulomb        Energy = 731.41792075988974
    7   -1038.3012568244      2.75e-05  
 Alpha HF Exchange    Energy =  -7.26159461503452
 Beta HF Exchange     Energy =  -7.26159461503452
 DFT Correlation      Energy =  -2.77639183613762
 DFT Exchange         Energy = -57.63157888190763
 One-Electron (alpha) Energy = -982.08484458274359
 One-Electron (beta)  Energy = -982.08484458274336
 Total Coulomb        Energy = 731.41500500487018
    8   -1038.3012616897      6.16e-06  
 Alpha HF Exchange    Energy =  -7.26163378068842
 Beta HF Exchange     Energy =  -7.26163378068842
 DFT Correlation      Energy =  -2.77640158631982
 DFT Exchange         Energy = -57.63186887719024
 One-Electron (alpha) Energy = -982.08775711159387
 One-Electron (beta)  Energy = -982.08775711159433
 Total Coulomb        Energy = 731.42120779003903
    9   -1038.3012620390      1.40e-06  
 Alpha HF Exchange    Energy =  -7.26162610392386
 Beta HF Exchange     Energy =  -7.26162610392385
 DFT Correlation      Energy =  -2.77639859189440
 DFT Exchange         Energy = -57.63180088254266
 One-Electron (alpha) Energy = -982.08688728517416
 One-Electron (beta)  Energy = -982.08688728517359
 Total Coulomb        Energy = 731.41938178159580
   10   -1038.3012620520      3.44e-07  Convergence criterion met
 ---------------------------------------
 SCF time:   CPU 26.46s  wall 2.00s 
<S^2> =         -0.000000000
 Alpha HF Exchange    Energy =  -7.26162610392386
 Beta HF Exchange     Energy =  -7.26162610392385
 DFT Correlation      Energy =  -2.77639859189440
 DFT Exchange         Energy = -57.63180088254266
 One-Electron (alpha) Energy = -982.08688728517416
 One-Electron (beta)  Energy = -982.08688728517359
 Total Coulomb        Energy = 731.41938178159580
 Nuclear repulsion Energy = 269.38458241902549
 SCF   energy in the final basis set =    -1038.3012620520
 Total energy in the final basis set =    -1038.3012620520
 
 --------------------------------------------------------------
 
                    Orbital Energies (a.u.)
 --------------------------------------------------------------
 
 Alpha MOs
 -- Occupied --
*******-101.503 -10.341 -10.234 -10.197  -9.505  -9.416  -7.269
 -7.260  -7.258  -7.180  -7.171  -7.171  -0.916  -0.808  -0.748
 -0.700  -0.607  -0.513  -0.488  -0.461  -0.406  -0.395  -0.384
 -0.367  -0.340  -0.301  -0.274  -0.273
 -- Virtual --
 -0.111   0.012   0.076   0.112   0.133   0.141   0.159   0.177
  0.191   0.224   0.338   0.387   0.400   0.423   0.435   0.457
  0.477   0.489   0.518   0.554   0.567   0.603   0.619   0.636
  0.665   0.707   0.740   0.783   0.806   0.829   0.839   0.852
  0.874   0.892   0.893   0.915   0.925   0.927   0.939   0.960
  0.969   1.036   1.047   1.163   1.295   1.363   1.381   1.500
  1.583   1.638   1.792   1.804   1.832   1.884   1.985   2.034
  2.053   2.072   2.083   2.112   2.224   2.259   2.331   2.372
  2.473   2.495   2.550   2.676   2.686   2.767   2.790   2.864
  2.880   3.184   3.262   3.292   3.373   3.447   3.499   4.116
  4.275   4.300   4.398   4.585
 
 Beta MOs
 -- Occupied --
*******-101.503 -10.341 -10.234 -10.197  -9.505  -9.416  -7.269
 -7.260  -7.258  -7.180  -7.171  -7.171  -0.916  -0.808  -0.748
 -0.700  -0.607  -0.513  -0.488  -0.461  -0.406  -0.395  -0.384
 -0.367  -0.340  -0.301  -0.274  -0.273
 -- Virtual --
 -0.111   0.012   0.076   0.112   0.133   0.141   0.159   0.177
  0.191   0.224   0.338   0.387   0.400   0.423   0.435   0.457
  0.477   0.489   0.518   0.554   0.567   0.603   0.619   0.636
  0.665   0.707   0.740   0.783   0.806   0.829   0.839   0.852
  0.874   0.892   0.893   0.915   0.925   0.927   0.939   0.960
  0.969   1.036   1.047   1.163   1.295   1.363   1.381   1.500
  1.583   1.638   1.792   1.804   1.832   1.884   1.985   2.034
  2.053   2.072   2.083   2.112   2.224   2.259   2.331   2.372
  2.473   2.495   2.550   2.676   2.686   2.767   2.790   2.864
  2.880   3.184   3.262   3.292   3.373   3.447   3.499   4.116
  4.275   4.300   4.398   4.585
 --------------------------------------------------------------
 
          Ground-State Mulliken Net Atomic Charges

     Atom                 Charge (a.u.)    Spin (a.u.)
  --------------------------------------------------------
      1 Cl                   -0.333195      -0.000000
      2 Cl                    0.080413       0.000000
      3 C                    -0.190155       0.000000
      4 C                    -0.143578      -0.000000
      5 C                    -0.325039      -0.000000
      6 H                     0.141396      -0.000000
      7 H                     0.157290      -0.000000
      8 H                     0.211049      -0.000000
      9 H                     0.158126       0.000000
     10 H                     0.117007       0.000000
     11 H                     0.126687       0.000000
  --------------------------------------------------------
  Sum of atomic charges =     0.000000
  Sum of spin   charges =    -0.000000

 -----------------------------------------------------------------
                    Cartesian Multipole Moments
 -----------------------------------------------------------------
    Charge (ESU x 10^10)
                 0.0000
    Dipole Moment (Debye)
         X      -2.5075      Y       2.8935      Z       2.1882
       Tot       4.4100
    Quadrupole Moments (Debye-Ang)
        XX     -45.4215     XY       3.5982     YY     -49.8075
        XZ       1.1435     YZ      -0.9787     ZZ     -42.6569
    Octopole Moments (Debye-Ang^2)
       XXX     -43.2155    XXY       9.1627    XYY     -16.7906
       YYY      24.2439    XXZ       6.9130    XYZ      -1.4284
       YYZ       3.8729    XZZ     -11.3364    YZZ       5.9335
       ZZZ      18.6638
    Hexadecapole Moments (Debye-Ang^3)
      XXXX    -462.7674   XXXY      36.6055   XXYY    -163.6801
      XYYY      39.3439   YYYY    -501.4319   XXXZ      15.4252
      XXYZ      -6.0604   XYYZ       0.0459   YYYZ     -15.3007
      XXZZ     -98.1375   XYZZ      11.3321   YYZZ    -103.4774
      XZZZ      17.4667   YZZZ     -13.7545   ZZZZ    -139.1543
 -----------------------------------------------------------------
 Calculating analytic gradient of the SCF energy
 Gradient of SCF Energy
            1           2           3           4           5           6
    1   0.0134301   0.0004701  -0.0018003  -0.0104332   0.0002726  -0.0004531
    2  -0.0360749   0.0034886   0.0026533   0.0279584  -0.0000971  -0.0003542
    3  -0.0180428  -0.0008372   0.0018442   0.0161059   0.0002026  -0.0002101
            7           8           9          10          11
    1   0.0000174  -0.0012447  -0.0002910  -0.0000172   0.0000492
    2   0.0000175   0.0022903   0.0001259  -0.0000034  -0.0000043
    3  -0.0000972   0.0011582  -0.0001397   0.0000010   0.0000150
 Max gradient component =       3.607E-02
 RMS gradient           =       9.523E-03
 Gradient time:  CPU 9.53 s  wall 0.99 s
 Geometry Optimization Parameters
   NAtoms,    NIC,     NZ,  NCons,   NDum,   NFix, NCnnct, MaxDiis
       11      68       0       1       0       0       0       0

 Cartesian Hessian Update
 Hessian Updated using BFGS Update


** CONSTRAINED OPTIMIZATION IN DELOCALIZED INTERNAL COORDINATES **
   Searching for a Minimum

   Optimization Cycle:   2

                       Coordinates (Angstroms)
     ATOM                X               Y               Z
      1  Cl        1.2053766554   -1.8610308828   -0.3972892787
      2  Cl        1.0980494000    1.4877604926   -0.3326302193
      3  C        -1.0271516779    0.0445804683    0.7060231212
      4  C         0.4607139319    0.1819342649    0.6135401363
      5  C        -1.7950932464    0.0275441013   -0.6151710610
      6  H        -1.3572367415    0.8934580759    1.3279858474
      7  H        -1.2209696643   -0.8639072751    1.2846655752
      8  H         1.0408848348    0.0298110288    1.5167018521
      9  H        -1.4713664416   -0.8166157604   -1.2281431158
     10  H        -2.8656300325   -0.0722735858   -0.4174925004
     11  H        -1.6396790179    0.9487380724   -1.1827973570
   Point Group: c1    Number of degrees of freedom:    27


   Energy is  -1038.301262052

              Constraints and their Current Values
                                        Value     Constraint
   Distance(Angs):        1   4             2.397917     2.400000
 Hessian Updated using BFGS Update

   Using Lagrange Multiplier Algorithm


 26 Hessian modes will be used to form the next step
  Hessian Eigenvalues:
    -0.996105    0.045000    0.045005    0.065904    0.077368    0.082954
     0.084289    0.097832    0.104805    0.111147    0.135930    0.160000
     0.171744    0.220217    0.237210    0.245039    0.295860    0.325066
     0.333578    0.343068    0.344458    0.344519    0.345445    0.354936
     0.396867    1.005200

 Minimum Search - Taking P-RFO Step
 Searching for Lamda that Maximizes Along the Constraint modes Only
 Value Taken    Lamda =   0.00002029
 Searching for Lamda that Minimizes Along All other modes
 Value Taken    Lamda =  -0.00025031
 Step Taken.  Stepsize is  0.027955

                             Maximum     Tolerance    Cnvgd?
         Gradient            0.010164       0.000300      NO
         Displacement        0.014260       0.001200      NO
         Energy change      0.007738       0.000001      NO


 New Cartesian Coordinates Obtained by Inverse Iteration

 Displacement from previous Coordinates is:  0.030528
 ----------------------------------------------------------------
             Standard Nuclear Orientation (Angstroms)
    I     Atom           X                Y                Z
 ----------------------------------------------------------------
    1      Cl      1.1954278707    -1.8593784011    -0.3967173895
    2      Cl      1.0984123041     1.4849137530    -0.3342085873
    3      C      -1.0274090262     0.0452496000     0.7066910546
    4      C       0.4583663338     0.1875611265     0.6165812420
    5      C      -1.7936881566     0.0273446369    -0.6155236056
    6      H      -1.3590276920     0.8928726168     1.3299136315
    7      H      -1.2191288429    -0.8645311620     1.2841165973
    8      H       1.0450253247     0.0282567089     1.5143157646
    9      H      -1.4653193884    -0.8154955557    -1.2279599541
   10      H      -2.8641720798    -0.0762856639    -0.4195693212
   11      H      -1.6405886474     0.9494913405    -1.1822464323
 ----------------------------------------------------------------
 Nuclear Repulsion Energy =   269.6510184192 hartrees
 There are       29 alpha and       29 beta electrons

                       Distance Matrix (Angstroms)
             Cl(  1)   Cl(  2)   C (  3)   C (  4)   C (  5)   H (  6)
   Cl(  2)  3.346283
   C (  3)  3.128278  2.770419
   C (  4)  2.399999  1.731122  1.495293
   C (  5)  3.541527  3.250829  1.528318  2.572062
   H (  6)  4.132963  3.026355  1.103106  2.075868  2.173199
   H (  7)  3.105641  3.675577  1.094476  2.089615  2.175820  1.763558
   H (  8)  2.690322  2.354091  2.224305  1.084193  3.548875  2.561452
   H (  9)  2.976614  3.558566  2.162296  2.847634  1.092375  3.077749
   H ( 10)  4.433993  4.259895  2.157993  3.490342  1.093194  2.503082
   H ( 11)  4.068144  2.916843  2.182138  2.867391  1.093146  2.528523
             H (  7)   H (  8)   H (  9)   H ( 10)
   H (  8)  2.444679
   H (  9)  2.524588  3.812325
   H ( 10)  2.496006  4.362644  1.776715
   H ( 11)  3.090510  3.915692  1.774257  1.769478
 
 Applying Cartesian multipole field
    Component          Value
    ---------          -----
     (2,0,0)        1.00000E-11
     (0,2,0)        2.00000E-11
     (0,0,2)       -3.00000E-10
 Nucleus-field energy     =    -0.0000000121 hartrees
 Requested basis set is 6-31G(d,p)
 There are 40 shells and 113 basis functions
 A cutoff of  1.0D-14 yielded    782 shell pairs
 There are      6430 function pairs
 Smallest overlap matrix eigenvalue = 5.78E-03
 Guess from superposition of atomic densities
 Warning:  Energy on first SCF cycle will be non-variational
 SAD guess density has 58.000000 electrons

 -----------------------------------------------------------------------
  General SCF calculation program by
  Eric Jon Sundstrom, Paul Horn, Yuezhi Mao, Dmitri Zuev, Alec White,
  David Stuck, Shaama M.S., Shane Yost, Joonho Lee, David Small,
  Daniel Levine, Susi Lehtola, Hugh Burton, Evgeny Epifanovsky
 -----------------------------------------------------------------------
 Exchange:     0.2000 Hartree-Fock + 0.0800 Slater + 0.7200 B88
 Correlation:  0.1900 VWN1RPA + 0.8100 LYP
 Using SG-1 standard quadrature grid
 using 12 threads for integral computing
 -------------------------------------------------------
 OpenMP Integral computing Module                
 Release: version 1.0, May 2013, Q-Chem Inc. Pittsburgh 
 -------------------------------------------------------
 -------------------------------------------------------
 OpenMP BLAS3 based DFT computing Module                
 Release: version 1.0, May 2013, Q-Chem Inc. Pittsburgh 
 -------------------------------------------------------
 A unrestricted SCF calculation will be
 performed using DIIS
 SCF converges when DIIS error is below 1.0e-06
 Alpha HF Exchange    Energy =  -7.28018302998349
 Beta HF Exchange     Energy =  -7.28018302998349
 DFT Correlation      Energy =  -2.76381495102557
 DFT Exchange         Energy = -57.34479094550319
 One-Electron (alpha) Energy = -980.75874644048679
 One-Electron (beta)  Energy = -980.75874644048679
 Total Coulomb        Energy = 727.81594795837236
 ---------------------------------------
  Cycle       Energy         DIIS error
 ---------------------------------------
    1   -1038.7194984720      2.73e-02  
 Alpha HF Exchange    Energy =  -7.29149499981445
 Beta HF Exchange     Energy =  -7.29149499981444
 DFT Correlation      Energy =  -2.78628877105935
 DFT Exchange         Energy = -57.86252000158130
 One-Electron (alpha) Energy = -983.87062987485513
 One-Electron (beta)  Energy = -983.87062987485467
 Total Coulomb        Energy = 735.12349737529939
    2   -1038.1985427396      3.60e-03  
 Alpha HF Exchange    Energy =  -7.23723812010622
 Beta HF Exchange     Energy =  -7.23723812010622
 DFT Correlation      Energy =  -2.76869241547699
 DFT Exchange         Energy = -57.44298159176257
 One-Electron (alpha) Energy = -980.89096100444385
 One-Electron (beta)  Energy = -980.89096100444374
 Total Coulomb        Energy = 728.86915843554391
    3   -1037.9478954137      6.69e-03  
 Alpha HF Exchange    Energy =  -7.25740477782141
 Beta HF Exchange     Energy =  -7.25740477782141
 DFT Correlation      Energy =  -2.77286471125894
 DFT Exchange         Energy = -57.58458089944209
 One-Electron (alpha) Energy = -981.86437848370463
 One-Electron (beta)  Energy = -981.86437848370429
 Total Coulomb        Energy = 730.67038499142950
    4   -1038.2796087352      1.66e-03  
 Alpha HF Exchange    Energy =  -7.26092308210962
 Beta HF Exchange     Energy =  -7.26092308210962
 DFT Correlation      Energy =  -2.77676100870155
 DFT Exchange         Energy = -57.62849935122114
 One-Electron (alpha) Energy = -982.35215656337152
 One-Electron (beta)  Energy = -982.35215656337186
 Total Coulomb        Energy = 731.68010242601690
    5   -1038.3002988178      3.54e-04  
 Alpha HF Exchange    Energy =  -7.26221310513854
 Beta HF Exchange     Energy =  -7.26221310513854
 DFT Correlation      Energy =  -2.77666322226972
 DFT Exchange         Energy = -57.63658900273643
 One-Electron (alpha) Energy = -982.38174180638862
 One-Electron (beta)  Energy = -982.38174180638862
 Total Coulomb        Energy = 731.74898604867633
    6   -1038.3011575923      8.88e-05  
 Alpha HF Exchange    Energy =  -7.26178147423631
 Beta HF Exchange     Energy =  -7.26178147423632
 DFT Correlation      Energy =  -2.77655286512513
 DFT Exchange         Energy = -57.63300360595139
 One-Electron (alpha) Energy = -982.35321838481741
 One-Electron (beta)  Energy = -982.35321838481764
 Total Coulomb        Energy = 731.68732137718962
    7   -1038.3012164049      2.78e-05  
 Alpha HF Exchange    Energy =  -7.26177186205457
 Beta HF Exchange     Energy =  -7.26177186205457
 DFT Correlation      Energy =  -2.77654291439100
 DFT Exchange         Energy = -57.63282063156394
 One-Electron (alpha) Energy = -982.35173977249599
 One-Electron (beta)  Energy = -982.35173977249633
 Total Coulomb        Energy = 731.68414704272243
    8   -1038.3012213652      6.27e-06  
 Alpha HF Exchange    Energy =  -7.26181154544365
 Beta HF Exchange     Energy =  -7.26181154544366
 DFT Correlation      Energy =  -2.77655267611934
 DFT Exchange         Energy = -57.63311334925380
 One-Electron (alpha) Energy = -982.35467650060730
 One-Electron (beta)  Energy = -982.35467650060764
 Total Coulomb        Energy = 731.69040198146990
    9   -1038.3012217289      1.42e-06  
 Alpha HF Exchange    Energy =  -7.26180379417393
 Beta HF Exchange     Energy =  -7.26180379417394
 DFT Correlation      Energy =  -2.77654964064538
 DFT Exchange         Energy = -57.63304459078204
 One-Electron (alpha) Energy = -982.35379556951693
 One-Electron (beta)  Energy = -982.35379556951852
 Total Coulomb        Energy = 731.68855280961600
   10   -1038.3012217421      3.45e-07  Convergence criterion met
 ---------------------------------------
 SCF time:   CPU 26.44s  wall 2.00s 
<S^2> =          0.000000000
 Alpha HF Exchange    Energy =  -7.26180379417393
 Beta HF Exchange     Energy =  -7.26180379417394
 DFT Correlation      Energy =  -2.77654964064538
 DFT Exchange         Energy = -57.63304459078204
 One-Electron (alpha) Energy = -982.35379556951693
 One-Electron (beta)  Energy = -982.35379556951852
 Total Coulomb        Energy = 731.68855280961600
 Nuclear repulsion Energy = 269.65101840711333
 SCF   energy in the final basis set =    -1038.3012217421
 Total energy in the final basis set =    -1038.3012217421
 
 --------------------------------------------------------------
 
                    Orbital Energies (a.u.)
 --------------------------------------------------------------
 
 Alpha MOs
 -- Occupied --
*******-101.502 -10.341 -10.234 -10.197  -9.505  -9.415  -7.269
 -7.260  -7.259  -7.179  -7.170  -7.170  -0.917  -0.808  -0.748
 -0.700  -0.607  -0.514  -0.488  -0.461  -0.407  -0.395  -0.384
 -0.367  -0.340  -0.300  -0.273  -0.272
 -- Virtual --
 -0.110   0.012   0.076   0.112   0.133   0.141   0.159   0.177
  0.191   0.224   0.338   0.387   0.400   0.423   0.435   0.457
  0.476   0.490   0.518   0.554   0.567   0.603   0.619   0.637
  0.666   0.707   0.741   0.783   0.806   0.828   0.839   0.852
  0.874   0.892   0.893   0.915   0.924   0.927   0.939   0.960
  0.971   1.036   1.048   1.165   1.294   1.363   1.382   1.499
  1.584   1.638   1.791   1.804   1.835   1.884   1.987   2.034
  2.053   2.073   2.083   2.114   2.224   2.257   2.333   2.372
  2.472   2.496   2.550   2.676   2.687   2.768   2.790   2.864
  2.880   3.184   3.262   3.292   3.374   3.447   3.498   4.117
  4.276   4.300   4.398   4.585
 
 Beta MOs
 -- Occupied --
*******-101.502 -10.341 -10.234 -10.197  -9.505  -9.415  -7.269
 -7.260  -7.259  -7.179  -7.170  -7.170  -0.917  -0.808  -0.748
 -0.700  -0.607  -0.514  -0.488  -0.461  -0.407  -0.395  -0.384
 -0.367  -0.340  -0.300  -0.273  -0.272
 -- Virtual --
 -0.110   0.012   0.076   0.112   0.133   0.141   0.159   0.177
  0.191   0.224   0.338   0.387   0.400   0.423   0.435   0.457
  0.476   0.490   0.518   0.554   0.567   0.603   0.619   0.637
  0.666   0.707   0.741   0.783   0.806   0.828   0.839   0.852
  0.874   0.892   0.893   0.915   0.924   0.927   0.939   0.960
  0.971   1.036   1.048   1.165   1.294   1.363   1.382   1.499
  1.584   1.638   1.791   1.804   1.835   1.884   1.987   2.034
  2.053   2.073   2.083   2.114   2.224   2.257   2.333   2.372
  2.472   2.496   2.550   2.676   2.687   2.768   2.790   2.864
  2.880   3.184   3.262   3.292   3.374   3.447   3.498   4.117
  4.276   4.300   4.398   4.585
 --------------------------------------------------------------
 
          Ground-State Mulliken Net Atomic Charges

     Atom                 Charge (a.u.)    Spin (a.u.)
  --------------------------------------------------------
      1 Cl                   -0.336808       0.000000
      2 Cl                    0.082749       0.000000
      3 C                    -0.189846      -0.000000
      4 C                    -0.143956       0.000000
      5 C                    -0.325131       0.000000
      6 H                     0.141144       0.000000
      7 H                     0.157829       0.000000
      8 H                     0.211715      -0.000000
      9 H                     0.158677       0.000000
     10 H                     0.117095      -0.000000
     11 H                     0.126531      -0.000000
  --------------------------------------------------------
  Sum of atomic charges =    -0.000000
  Sum of spin   charges =     0.000000

 -----------------------------------------------------------------
                    Cartesian Multipole Moments
 -----------------------------------------------------------------
    Charge (ESU x 10^10)
                 0.0000
    Dipole Moment (Debye)
         X      -2.4982      Y       2.9302      Z       2.1938
       Tot       4.4316
    Quadrupole Moments (Debye-Ang)
        XX     -45.3800     XY       3.6284     YY     -49.8458
        XZ       1.1498     YZ      -0.9976     ZZ     -42.6458
    Octopole Moments (Debye-Ang^2)
       XXX     -42.7687    XXY       9.1760    XYY     -16.6972
       YYY      24.3601    XXZ       6.9118    XYZ      -1.4535
       YYZ       3.8991    XZZ     -11.1917    YZZ       5.9523
       ZZZ      18.6431
    Hexadecapole Moments (Debye-Ang^3)
      XXXX    -460.4809   XXXY      36.0133   XXYY    -163.2093
      XYYY      38.7989   YYYY    -500.8848   XXXZ      15.3943
      XXYZ      -6.1273   XYYZ       0.0515   YYYZ     -15.3271
      XXZZ     -97.7717   XYZZ      11.1350   YYZZ    -103.3362
      XZZZ      17.3622   YZZZ     -13.7668   ZZZZ    -139.3438
 -----------------------------------------------------------------
 Calculating analytic gradient of the SCF energy
 Gradient of SCF Energy
            1           2           3           4           5           6
    1   0.0129532   0.0003821  -0.0012723  -0.0112990   0.0002165  -0.0001112
    2  -0.0355152   0.0024590   0.0021248   0.0294215  -0.0001047  -0.0002954
    3  -0.0178432  -0.0005637   0.0011553   0.0165684   0.0001953  -0.0001400
            7           8           9          10          11
    1   0.0000251  -0.0006779  -0.0002163  -0.0000408   0.0000404
    2  -0.0000956   0.0019436   0.0000492   0.0000081   0.0000046
    3  -0.0000901   0.0008768  -0.0001388  -0.0000300   0.0000100
 Max gradient component =       3.552E-02
 RMS gradient           =       9.589E-03
 Gradient time:  CPU 9.35 s  wall 0.97 s
 Geometry Optimization Parameters
   NAtoms,    NIC,     NZ,  NCons,   NDum,   NFix, NCnnct, MaxDiis
       11      68       0       1       0       0       0       0

 Cartesian Hessian Update
 Hessian Updated using BFGS Update


** CONSTRAINED OPTIMIZATION IN DELOCALIZED INTERNAL COORDINATES **
   Searching for a Minimum

   Optimization Cycle:   3

                       Coordinates (Angstroms)
     ATOM                X               Y               Z
      1  Cl        1.1954278707   -1.8593784011   -0.3967173895
      2  Cl        1.0984123041    1.4849137530   -0.3342085873
      3  C        -1.0274090262    0.0452496000    0.7066910546
      4  C         0.4583663338    0.1875611265    0.6165812420
      5  C        -1.7936881566    0.0273446369   -0.6155236056
      6  H        -1.3590276920    0.8928726168    1.3299136315
      7  H        -1.2191288429   -0.8645311620    1.2841165973
      8  H         1.0450253247    0.0282567089    1.5143157646
      9  H        -1.4653193884   -0.8154955557   -1.2279599541
     10  H        -2.8641720798   -0.0762856639   -0.4195693212
     11  H        -1.6405886474    0.9494913405   -1.1822464323
   Point Group: c1    Number of degrees of freedom:    27


   Energy is  -1038.301221742

              Constraints and their Current Values
                                        Value     Constraint
   Distance(Angs):        1   4             2.399999     2.400000
 Hessian Updated using BFGS Update

   Using Lagrange Multiplier Algorithm


 27 Hessian modes will be used to form the next step
  Hessian Eigenvalues:
    -0.992030    0.042101    0.045002    0.046380    0.065914    0.077525
     0.082963    0.084290    0.102788    0.109838    0.136775    0.159282
     0.160002    0.167945    0.220161    0.222579    0.240473    0.295880
     0.307304    0.329599    0.334497    0.343458    0.344482    0.344524
     0.345752    0.355462    1.009506

 Minimum Search - Taking P-RFO Step
 Searching for Lamda that Maximizes Along the Constraint modes Only
 Value Taken    Lamda =   0.00000000
 Searching for Lamda that Minimizes Along All other modes
 Value Taken    Lamda =  -0.00026792
 Step Taken.  Stepsize is  0.074511

                             Maximum     Tolerance    Cnvgd?
         Gradient            0.002595       0.000300      NO
         Displacement        0.041240       0.001200      NO
         Energy change      0.000040       0.000001      NO


 New Cartesian Coordinates Obtained by Inverse Iteration

 Displacement from previous Coordinates is:  0.077136
 ----------------------------------------------------------------
             Standard Nuclear Orientation (Angstroms)
    I     Atom           X                Y                Z
 ----------------------------------------------------------------
    1      Cl      1.1737312776    -1.8533172784    -0.3886533983
    2      Cl      1.1013742622     1.4774538423    -0.3408521714
    3      C      -1.0273069423     0.0465859252     0.7076135305
    4      C       0.4543512697     0.2015012666     0.6214020548
    5      C      -1.7907602617     0.0278576331    -0.6161909375
    6      H      -1.3668229739     0.8903375433     1.3336036339
    7      H      -1.2128746624    -0.8660205139     1.2821315810
    8      H       1.0524788105     0.0193301359     1.5066295744
    9      H      -1.4505939350    -0.8102751371    -1.2284329791
   10      H      -2.8603758744    -0.0867331847    -0.4222932577
   11      H      -1.6453029700     0.9532787677    -1.1795646305
 ----------------------------------------------------------------
 Nuclear Repulsion Energy =   270.3639100473 hartrees
 There are       29 alpha and       29 beta electrons

                       Distance Matrix (Angstroms)
             Cl(  1)   Cl(  2)   C (  3)   C (  4)   C (  5)   H (  6)
   Cl(  2)  3.331900
   C (  3)  3.107411  2.770911
   C (  4)  2.400000  1.724131  1.492227
   C (  5)  3.518352  3.246780  1.528290  2.569497
   H (  6)  4.116822  3.039820  1.104107  2.073259  2.173774
   H (  7)  3.076063  3.671743  1.094238  2.087057  2.176373  1.763843
   H (  8)  2.667135  2.354082  2.228156  1.083776  3.548302  2.577133
   H (  9)  2.946226  3.540345  2.159088  2.841548  1.092255  3.076221
   H ( 10)  4.404086  4.260138  2.157453  3.487090  1.093071  2.503706
   H ( 11)  4.055795  2.919321  2.182992  2.866566  1.093139  2.529333
             H (  7)   H (  8)   H (  9)   H ( 10)
   H (  8)  2.442554
   H (  9)  2.522410  3.799235
   H ( 10)  2.495318  4.363763  1.777881
   H ( 11)  3.091406  3.919940  1.774943  1.769601
 
 Applying Cartesian multipole field
    Component          Value
    ---------          -----
     (2,0,0)        1.00000E-11
     (0,2,0)        2.00000E-11
     (0,0,2)       -3.00000E-10
 Nucleus-field energy     =    -0.0000000122 hartrees
 Requested basis set is 6-31G(d,p)
 There are 40 shells and 113 basis functions
 A cutoff of  1.0D-14 yielded    782 shell pairs
 There are      6430 function pairs
 Smallest overlap matrix eigenvalue = 5.74E-03
 Guess from superposition of atomic densities
 Warning:  Energy on first SCF cycle will be non-variational
 SAD guess density has 58.000000 electrons

 -----------------------------------------------------------------------
  General SCF calculation program by
  Eric Jon Sundstrom, Paul Horn, Yuezhi Mao, Dmitri Zuev, Alec White,
  David Stuck, Shaama M.S., Shane Yost, Joonho Lee, David Small,
  Daniel Levine, Susi Lehtola, Hugh Burton, Evgeny Epifanovsky
 -----------------------------------------------------------------------
 Exchange:     0.2000 Hartree-Fock + 0.0800 Slater + 0.7200 B88
 Correlation:  0.1900 VWN1RPA + 0.8100 LYP
 Using SG-1 standard quadrature grid
 using 12 threads for integral computing
 -------------------------------------------------------
 OpenMP Integral computing Module                
 Release: version 1.0, May 2013, Q-Chem Inc. Pittsburgh 
 -------------------------------------------------------
 -------------------------------------------------------
 OpenMP BLAS3 based DFT computing Module                
 Release: version 1.0, May 2013, Q-Chem Inc. Pittsburgh 
 -------------------------------------------------------
 A unrestricted SCF calculation will be
 performed using DIIS
 SCF converges when DIIS error is below 1.0e-06
 Alpha HF Exchange    Energy =  -7.28133787089248
 Beta HF Exchange     Energy =  -7.28133787089248
 DFT Correlation      Energy =  -2.76421786538347
 DFT Exchange         Energy = -57.34711883622974
 One-Electron (alpha) Energy = -981.46750634346085
 One-Electron (beta)  Energy = -981.46750634346085
 Total Coulomb        Energy = 728.51417280545479
 ---------------------------------------
  Cycle       Energy         DIIS error
 ---------------------------------------
    1   -1038.7309422898      2.74e-02  
 Alpha HF Exchange    Energy =  -7.29211573388311
 Beta HF Exchange     Energy =  -7.29211573388311
 DFT Correlation      Energy =  -2.78672416300388
 DFT Exchange         Energy = -57.86665042622808
 One-Electron (alpha) Energy = -984.59507002269606
 One-Electron (beta)  Energy = -984.59507002269606
 Total Coulomb        Energy = 735.86571106644965
    2   -1038.1981250008      3.61e-03  
 Alpha HF Exchange    Energy =  -7.23757338652100
 Beta HF Exchange     Energy =  -7.23757338652099
 DFT Correlation      Energy =  -2.76907742925115
 DFT Exchange         Energy = -57.44528333128263
 One-Electron (alpha) Energy = -981.58272422059053
 One-Electron (beta)  Energy = -981.58272422059019
 Total Coulomb        Energy = 729.54805869846234
    3   -1037.9429872412      6.72e-03  
 Alpha HF Exchange    Energy =  -7.25789864604660
 Beta HF Exchange     Energy =  -7.25789864604660
 DFT Correlation      Energy =  -2.77325554188354
 DFT Exchange         Energy = -57.58772172276578
 One-Electron (alpha) Energy = -982.57632939395398
 One-Electron (beta)  Energy = -982.57632939395410
 Total Coulomb        Energy = 731.38602829694537
    4   -1038.2794950126      1.67e-03  
 Alpha HF Exchange    Energy =  -7.26141682390437
 Beta HF Exchange     Energy =  -7.26141682390438
 DFT Correlation      Energy =  -2.77717644647645
 DFT Exchange         Energy = -57.63185221173938
 One-Electron (alpha) Energy = -983.06566862154330
 One-Electron (beta)  Energy = -983.06566862154398
 Total Coulomb        Energy = 732.39884310079970
    5   -1038.3004464132      3.54e-04  
 Alpha HF Exchange    Energy =  -7.26270423604330
 Beta HF Exchange     Energy =  -7.26270423604330
 DFT Correlation      Energy =  -2.77707598604854
 DFT Exchange         Energy = -57.63991334275670
 One-Electron (alpha) Energy = -983.09441231259007
 One-Electron (beta)  Energy = -983.09441231259041
 Total Coulomb        Energy = 732.46601628568726
    6   -1038.3012961053      9.04e-05  
 Alpha HF Exchange    Energy =  -7.26227923282260
 Beta HF Exchange     Energy =  -7.26227923282260
 DFT Correlation      Energy =  -2.77696751491714
 DFT Exchange         Energy = -57.63637540003369
 One-Electron (alpha) Energy = -983.06676376336782
 One-Electron (beta)  Energy = -983.06676376336759
 Total Coulomb        Energy = 732.40616164705352
    7   -1038.3013572252      2.83e-05  
 Alpha HF Exchange    Energy =  -7.26226708843046
 Beta HF Exchange     Energy =  -7.26226708843047
 DFT Correlation      Energy =  -2.77695689169532
 DFT Exchange         Energy = -57.63617084351358
 One-Electron (alpha) Energy = -983.06502007552774
 One-Electron (beta)  Energy = -983.06502007552808
 Total Coulomb        Energy = 732.40242970342251
    8   -1038.3013623246      6.39e-06  
 Alpha HF Exchange    Energy =  -7.26230737110781
 Beta HF Exchange     Energy =  -7.26230737110782
 DFT Correlation      Energy =  -2.77696660616042
 DFT Exchange         Energy = -57.63646610949199
 One-Electron (alpha) Energy = -983.06798260011124
 One-Electron (beta)  Energy = -983.06798260011237
 Total Coulomb        Energy = 732.40873991977560
    9   -1038.3013627032      1.42e-06  
 Alpha HF Exchange    Energy =  -7.26229950848143
 Beta HF Exchange     Energy =  -7.26229950848141
 DFT Correlation      Energy =  -2.77696352122800
 DFT Exchange         Energy = -57.63639628446212
 One-Electron (alpha) Energy = -983.06708795316854
 One-Electron (beta)  Energy = -983.06708795316752
 Total Coulomb        Energy = 732.40686197741809
   10   -1038.3013627165      3.46e-07  Convergence criterion met
 ---------------------------------------
 SCF time:   CPU 26.19s  wall 3.00s 
<S^2> =         -0.000000000
 Alpha HF Exchange    Energy =  -7.26229950848143
 Beta HF Exchange     Energy =  -7.26229950848141
 DFT Correlation      Energy =  -2.77696352122800
 DFT Exchange         Energy = -57.63639628446212
 One-Electron (alpha) Energy = -983.06708795316854
 One-Electron (beta)  Energy = -983.06708795316752
 Total Coulomb        Energy = 732.40686197741809
 Nuclear repulsion Energy = 270.36391003510244
 SCF   energy in the final basis set =    -1038.3013627165
 Total energy in the final basis set =    -1038.3013627165
 
 --------------------------------------------------------------
 
                    Orbital Energies (a.u.)
 --------------------------------------------------------------
 
 Alpha MOs
 -- Occupied --
*******-101.500 -10.341 -10.234 -10.197  -9.507  -9.413  -7.270
 -7.261  -7.260  -7.177  -7.168  -7.168  -0.919  -0.809  -0.746
 -0.700  -0.608  -0.515  -0.488  -0.462  -0.407  -0.396  -0.385
 -0.368  -0.341  -0.298  -0.272  -0.271
 -- Virtual --
 -0.109   0.013   0.076   0.111   0.133   0.141   0.159   0.178
  0.193   0.225   0.336   0.387   0.400   0.423   0.436   0.458
  0.476   0.491   0.516   0.555   0.568   0.604   0.620   0.638
  0.667   0.707   0.744   0.785   0.806   0.828   0.838   0.852
  0.873   0.892   0.893   0.914   0.922   0.927   0.940   0.961
  0.975   1.037   1.050   1.171   1.291   1.363   1.387   1.498
  1.589   1.638   1.787   1.805   1.840   1.885   1.992   2.034
  2.052   2.073   2.083   2.117   2.224   2.256   2.337   2.371
  2.471   2.497   2.551   2.676   2.688   2.770   2.790   2.865
  2.881   3.185   3.261   3.292   3.374   3.448   3.499   4.117
  4.278   4.302   4.398   4.586
 
 Beta MOs
 -- Occupied --
*******-101.500 -10.341 -10.234 -10.197  -9.507  -9.413  -7.270
 -7.261  -7.260  -7.177  -7.168  -7.168  -0.919  -0.809  -0.746
 -0.700  -0.608  -0.515  -0.488  -0.462  -0.407  -0.396  -0.385
 -0.368  -0.341  -0.298  -0.272  -0.271
 -- Virtual --
 -0.109   0.013   0.076   0.111   0.133   0.141   0.159   0.178
  0.193   0.225   0.336   0.387   0.400   0.423   0.436   0.458
  0.476   0.491   0.516   0.555   0.568   0.604   0.620   0.638
  0.667   0.707   0.744   0.785   0.806   0.828   0.838   0.852
  0.873   0.892   0.893   0.914   0.922   0.927   0.940   0.961
  0.975   1.037   1.050   1.171   1.291   1.363   1.387   1.498
  1.589   1.638   1.787   1.805   1.840   1.885   1.992   2.034
  2.052   2.073   2.083   2.117   2.224   2.256   2.337   2.371
  2.471   2.497   2.551   2.676   2.688   2.770   2.790   2.865
  2.881   3.185   3.261   3.292   3.374   3.448   3.499   4.117
  4.278   4.302   4.398   4.586
 --------------------------------------------------------------
 
          Ground-State Mulliken Net Atomic Charges

     Atom                 Charge (a.u.)    Spin (a.u.)
  --------------------------------------------------------
      1 Cl                   -0.343866       0.000000
      2 Cl                    0.088685      -0.000000
      3 C                    -0.188979       0.000000
      4 C                    -0.146251       0.000000
      5 C                    -0.325256      -0.000000
      6 H                     0.140288      -0.000000
      7 H                     0.158925      -0.000000
      8 H                     0.213565      -0.000000
      9 H                     0.159630      -0.000000
     10 H                     0.117227      -0.000000
     11 H                     0.126031       0.000000
  --------------------------------------------------------
  Sum of atomic charges =     0.000000
  Sum of spin   charges =     0.000000

 -----------------------------------------------------------------
                    Cartesian Multipole Moments
 -----------------------------------------------------------------
    Charge (ESU x 10^10)
                 0.0000
    Dipole Moment (Debye)
         X      -2.4683      Y       3.0030      Z       2.1887
       Tot       4.4611
    Quadrupole Moments (Debye-Ang)
        XX     -45.2871     XY       3.6799     YY     -49.9048
        XZ       1.1359     YZ      -1.0385     ZZ     -42.6285
    Octopole Moments (Debye-Ang^2)
       XXX     -41.8575    XXY       9.1720    XYY     -16.4811
       YYY      24.4717    XXZ       6.8577    XYZ      -1.5035
       YYZ       3.8859    XZZ     -10.8955    YZZ       5.9510
       ZZZ      18.4466
    Hexadecapole Moments (Debye-Ang^3)
      XXXX    -455.9269   XXXY      34.5546   XXYY    -162.0175
      XYYY      37.3852   YYYY    -498.5603   XXXZ      15.0637
      XXYZ      -6.0463   XYYZ      -0.0114   YYYZ     -14.6626
      XXZZ     -96.9954   XYZZ      10.6577   YYZZ    -102.8071
      XZZZ      16.9343   YZZZ     -13.1360   ZZZZ    -139.3909
 -----------------------------------------------------------------
 Calculating analytic gradient of the SCF energy
 Gradient of SCF Energy
            1           2           3           4           5           6
    1   0.0118838   0.0001419   0.0000421  -0.0123655   0.0000423   0.0001305
    2  -0.0341244   0.0000143   0.0000110   0.0336054   0.0000329   0.0000204
    3  -0.0170392  -0.0001012  -0.0002662   0.0172026   0.0000744   0.0000933
            7           8           9          10          11
    1   0.0000258   0.0000595   0.0000301   0.0000002   0.0000094
    2  -0.0001016   0.0004747   0.0000095   0.0000569   0.0000008
    3  -0.0000653   0.0000218   0.0000687   0.0000303  -0.0000192
 Max gradient component =       3.412E-02
 RMS gradient           =       9.808E-03
 Gradient time:  CPU 9.64 s  wall 0.97 s
 Geometry Optimization Parameters
   NAtoms,    NIC,     NZ,  NCons,   NDum,   NFix, NCnnct, MaxDiis
       11      68       0       1       0       0       0       0

 Cartesian Hessian Update
 Hessian Updated using BFGS Update


** CONSTRAINED OPTIMIZATION IN DELOCALIZED INTERNAL COORDINATES **
   Searching for a Minimum

   Optimization Cycle:   4

                       Coordinates (Angstroms)
     ATOM                X               Y               Z
      1  Cl        1.1737312776   -1.8533172784   -0.3886533983
      2  Cl        1.1013742622    1.4774538423   -0.3408521714
      3  C        -1.0273069423    0.0465859252    0.7076135305
      4  C         0.4543512697    0.2015012666    0.6214020548
      5  C        -1.7907602617    0.0278576331   -0.6161909375
      6  H        -1.3668229739    0.8903375433    1.3336036339
      7  H        -1.2128746624   -0.8660205139    1.2821315810
      8  H         1.0524788105    0.0193301359    1.5066295744
      9  H        -1.4505939350   -0.8102751371   -1.2284329791
     10  H        -2.8603758744   -0.0867331847   -0.4222932577
     11  H        -1.6453029700    0.9532787677   -1.1795646305
   Point Group: c1    Number of degrees of freedom:    27


   Energy is  -1038.301362716

              Constraints and their Current Values
                                        Value     Constraint
   Distance(Angs):        1   4             2.400000     2.400000
 Hessian Updated using BFGS Update

 26 Hessian modes will be used to form the next step
  Hessian Eigenvalues:
     0.037961    0.045002    0.045985    0.065913    0.077553    0.082973
     0.084293    0.103850    0.110267    0.136868    0.159944    0.160000
     0.160078    0.169900    0.220345    0.226337    0.240865    0.295922
     0.307191    0.332217    0.335212    0.343649    0.344485    0.344530
     0.345803    0.355475

 Minimum Search - Taking Simple RFO Step
 Searching for Lamda that Minimizes Along All modes
 Value Taken    Lamda =  -0.00000604
 Step Taken.  Stepsize is  0.009820

                             Maximum     Tolerance    Cnvgd?
         Gradient           0.000299      0.000300     YES
         Displacement       0.005045      0.001200      NO
         Energy change     -0.000141      0.000001      NO


 New Cartesian Coordinates Obtained by Inverse Iteration

 Displacement from previous Coordinates is:  0.011282
 ----------------------------------------------------------------
             Standard Nuclear Orientation (Angstroms)
    I     Atom           X                Y                Z
 ----------------------------------------------------------------
    1      Cl      1.1750299479    -1.8538769152    -0.3851877600
    2      Cl      1.1020683494     1.4776078923    -0.3412388775
    3      C      -1.0270743914     0.0468049518     0.7073247536
    4      C       0.4547680707     0.2025702125     0.6209170588
    5      C      -1.7913231805     0.0281531215    -0.6163663904
    6      H      -1.3677679960     0.8900598965     1.3333288430
    7      H      -1.2119045873    -0.8658460594     1.2818765696
    8      H       1.0529325363     0.0168807172     1.5054295448
    9      H      -1.4510799903    -0.8090766908    -1.2298560389
   10      H      -2.8607360291    -0.0875665370    -0.4219883035
   11      H      -1.6470147296     0.9542884106    -1.1788463996
 ----------------------------------------------------------------
 Nuclear Repulsion Energy =   270.3345717046 hartrees
 There are       29 alpha and       29 beta electrons

                       Distance Matrix (Angstroms)
             Cl(  1)   Cl(  2)   C (  3)   C (  4)   C (  5)   H (  6)
   Cl(  2)  3.332573
   C (  3)  3.107320  2.771269
   C (  4)  2.400000  1.723503  1.492510
   C (  5)  3.520615  3.247819  1.528588  2.570256
   H (  6)  4.116833  3.041296  1.104098  2.074081  2.173383
   H (  7)  3.074535  3.671614  1.094168  2.087146  2.176761  1.763561
   H (  8)  2.662532  2.355063  2.228070  1.083810  3.548512  2.579118
   H (  9)  2.949835  3.540781  2.159857  2.842718  1.092286  3.076349
   H ( 10)  4.405521  4.261468  2.157711  3.487750  1.093077  2.503167
   H ( 11)  4.059510  2.921114  2.183001  2.867354  1.093131  2.528464
             H (  7)   H (  8)   H (  9)   H ( 10)
   H (  8)  2.441039
   H (  9)  2.523733  3.799220
   H ( 10)  2.495500  4.363789  1.777739
   H ( 11)  3.091499  3.920942  1.774950  1.769581
 
 Applying Cartesian multipole field
    Component          Value
    ---------          -----
     (2,0,0)        1.00000E-11
     (0,2,0)        2.00000E-11
     (0,0,2)       -3.00000E-10
 Nucleus-field energy     =    -0.0000000121 hartrees
 Requested basis set is 6-31G(d,p)
 There are 40 shells and 113 basis functions
 A cutoff of  1.0D-14 yielded    782 shell pairs
 There are      6430 function pairs
 Smallest overlap matrix eigenvalue = 5.74E-03
 Guess from superposition of atomic densities
 Warning:  Energy on first SCF cycle will be non-variational
 SAD guess density has 58.000000 electrons

 -----------------------------------------------------------------------
  General SCF calculation program by
  Eric Jon Sundstrom, Paul Horn, Yuezhi Mao, Dmitri Zuev, Alec White,
  David Stuck, Shaama M.S., Shane Yost, Joonho Lee, David Small,
  Daniel Levine, Susi Lehtola, Hugh Burton, Evgeny Epifanovsky
 -----------------------------------------------------------------------
 Exchange:     0.2000 Hartree-Fock + 0.0800 Slater + 0.7200 B88
 Correlation:  0.1900 VWN1RPA + 0.8100 LYP
 Using SG-1 standard quadrature grid
 using 12 threads for integral computing
 -------------------------------------------------------
 OpenMP Integral computing Module                
 Release: version 1.0, May 2013, Q-Chem Inc. Pittsburgh 
 -------------------------------------------------------
 -------------------------------------------------------
 OpenMP BLAS3 based DFT computing Module                
 Release: version 1.0, May 2013, Q-Chem Inc. Pittsburgh 
 -------------------------------------------------------
 A unrestricted SCF calculation will be
 performed using DIIS
 SCF converges when DIIS error is below 1.0e-06
 Alpha HF Exchange    Energy =  -7.28132331354161
 Beta HF Exchange     Energy =  -7.28132331354161
 DFT Correlation      Energy =  -2.76420828361353
 DFT Exchange         Energy = -57.34710897266126
 One-Electron (alpha) Energy = -981.43816198575041
 One-Electron (beta)  Energy = -981.43816198575041
 Total Coulomb        Energy = 728.48479935088437
 ---------------------------------------
  Cycle       Energy         DIIS error
 ---------------------------------------
    1   -1038.7309168115      2.74e-02  
 Alpha HF Exchange    Energy =  -7.29211591959572
 Beta HF Exchange     Energy =  -7.29211591959571
 DFT Correlation      Energy =  -2.78671480421151
 DFT Exchange         Energy = -57.86662978356364
 One-Electron (alpha) Energy = -984.56462194045059
 One-Electron (beta)  Energy = -984.56462194045037
 Total Coulomb        Energy = 735.83417185973451
    2   -1038.1980767557      3.61e-03  
 Alpha HF Exchange    Energy =  -7.23757408347012
 Beta HF Exchange     Energy =  -7.23757408347013
 DFT Correlation      Energy =  -2.76907038800639
 DFT Exchange         Energy = -57.44528707792094
 One-Electron (alpha) Energy = -981.55377207476306
 One-Electron (beta)  Energy = -981.55377207476317
 Total Coulomb        Energy = 729.52021387744583
    3   -1037.9422642125      6.73e-03  
 Alpha HF Exchange    Energy =  -7.25789324684929
 Beta HF Exchange     Energy =  -7.25789324684928
 DFT Correlation      Energy =  -2.77324325657017
 DFT Exchange         Energy = -57.58765706085191
 One-Electron (alpha) Energy = -982.54616008639584
 One-Electron (beta)  Energy = -982.54616008639562
 Total Coulomb        Energy = 731.35496283319674
    4   -1038.2794724582      1.67e-03  
 Alpha HF Exchange    Energy =  -7.26141337694023
 Beta HF Exchange     Energy =  -7.26141337694024
 DFT Correlation      Energy =  -2.77716760271366
 DFT Exchange         Energy = -57.63182498263483
 One-Electron (alpha) Energy = -983.03588404666255
 One-Electron (beta)  Energy = -983.03588404666289
 Total Coulomb        Energy = 732.36856549080881
    5   -1038.3004502493      3.54e-04  
 Alpha HF Exchange    Energy =  -7.26270205583892
 Beta HF Exchange     Energy =  -7.26270205583892
 DFT Correlation      Energy =  -2.77706737159616
 DFT Exchange         Energy = -57.63989445374987
 One-Electron (alpha) Energy = -983.06464515831055
 One-Electron (beta)  Energy = -983.06464515831101
 Total Coulomb        Energy = 732.43578448838377
    6   -1038.3013000728      9.06e-05  
 Alpha HF Exchange    Energy =  -7.26227702334037
 Beta HF Exchange     Energy =  -7.26227702334037
 DFT Correlation      Energy =  -2.77695879651401
 DFT Exchange         Energy = -57.63635543496196
 One-Electron (alpha) Energy = -983.03700788437300
 One-Electron (beta)  Energy = -983.03700788437311
 Total Coulomb        Energy = 732.37595093074515
    7   -1038.3013614237      2.83e-05  
 Alpha HF Exchange    Energy =  -7.26226477450611
 Beta HF Exchange     Energy =  -7.26226477450611
 DFT Correlation      Energy =  -2.77694814431097
 DFT Exchange         Energy = -57.63614984026835
 One-Electron (alpha) Energy = -983.03524729457808
 One-Electron (beta)  Energy = -983.03524729457786
 Total Coulomb        Energy = 732.37218389749910
    8   -1038.3013665328      6.41e-06  
 Alpha HF Exchange    Energy =  -7.26230514774235
 Beta HF Exchange     Energy =  -7.26230514774236
 DFT Correlation      Energy =  -2.77695786054245
 DFT Exchange         Energy = -57.63644557706626
 One-Electron (alpha) Energy = -983.03821252188675
 One-Electron (beta)  Energy = -983.03821252188698
 Total Coulomb        Energy = 732.37850017076710
    9   -1038.3013669136      1.42e-06  
 Alpha HF Exchange    Energy =  -7.26229727086012
 Beta HF Exchange     Energy =  -7.26229727086013
 DFT Correlation      Energy =  -2.77695476844669
 DFT Exchange         Energy = -57.63637561737084
 One-Electron (alpha) Energy = -983.03731630166669
 One-Electron (beta)  Energy = -983.03731630166692
 Total Coulomb        Energy = 732.37661891147798
   10   -1038.3013669269      3.46e-07  Convergence criterion met
 ---------------------------------------
 SCF time:   CPU 27.00s  wall 3.00s 
<S^2> =         -0.000000000
 Alpha HF Exchange    Energy =  -7.26229727086012
 Beta HF Exchange     Energy =  -7.26229727086013
 DFT Correlation      Energy =  -2.77695476844669
 DFT Exchange         Energy = -57.63637561737084
 One-Electron (alpha) Energy = -983.03731630166669
 One-Electron (beta)  Energy = -983.03731630166692
 Total Coulomb        Energy = 732.37661891147798
 Nuclear repulsion Energy = 270.33457169247720
 SCF   energy in the final basis set =    -1038.3013669269
 Total energy in the final basis set =    -1038.3013669269
 
 --------------------------------------------------------------
 
                    Orbital Energies (a.u.)
 --------------------------------------------------------------
 
 Alpha MOs
 -- Occupied --
*******-101.500 -10.341 -10.234 -10.197  -9.507  -9.413  -7.271
 -7.262  -7.260  -7.176  -7.168  -7.168  -0.919  -0.809  -0.746
 -0.700  -0.608  -0.515  -0.488  -0.463  -0.407  -0.396  -0.385
[...]

 26 Hessian modes will be used to form the next step
  Hessian Eigenvalues:
     0.026416    0.044999    0.049939    0.065866    0.075174    0.078566
     0.083220    0.084330    0.109010    0.136716    0.159531    0.160017
     0.160467    0.169800    0.213332    0.223357    0.243120    0.299511
     0.307349    0.329667    0.335528    0.343543    0.344504    0.344686
     0.345753    0.355754

 Minimum Search - Taking Simple RFO Step
 Searching for Lamda that Minimizes Along All modes
 Value Taken    Lamda =   0.00000000
 Step Taken.  Stepsize is  0.002408

                             Maximum     Tolerance    Cnvgd?
         Gradient           0.000058      0.000300     YES
         Displacement       0.001713      0.001200      NO
         Energy change     -0.000001      0.000001      NO


 New Cartesian Coordinates Obtained by Inverse Iteration

 Displacement from previous Coordinates is:  0.002364
 ----------------------------------------------------------------
             Standard Nuclear Orientation (Angstroms)
    I     Atom           X                Y                Z
 ----------------------------------------------------------------
    1      Cl      1.1762586673    -1.8550293734    -0.3827723009
    2      Cl      1.1014230049     1.4789661156    -0.3406090950
    3      C      -1.0269536861     0.0471896653     0.7072052835
    4      C       0.4550790206     0.2027383704     0.6199692893
    5      C      -1.7914742893     0.0282996505    -0.6163963249
    6      H      -1.3680293345     0.8905615312     1.3326887609
    7      H      -1.2116665551    -0.8652092608     1.2821276551
    8      H       1.0531957810     0.0142323754     1.5038687505
    9      H      -1.4510679937    -0.8083686735    -1.2305819325
   10      H      -2.8607546050    -0.0882962152    -0.4217389437
   11      H      -1.6481120099     0.9549148146    -1.1783681424
 ----------------------------------------------------------------
 Nuclear Repulsion Energy =   270.2904556535 hartrees
 There are       29 alpha and       29 beta electrons

                       Distance Matrix (Angstroms)
             Cl(  1)   Cl(  2)   C (  3)   C (  4)   C (  5)   H (  6)
   Cl(  2)  3.335102
   C (  3)  3.108156  2.770900
   C (  4)  2.400000  1.723145  1.492725
   C (  5)  3.522634  3.247976  1.528650  2.570220
   H (  6)  4.117582  3.040451  1.104010  2.074800  2.172955
   H (  7)  3.074707  3.671351  1.094133  2.087344  2.176908  1.763445
   H (  8)  2.658702  2.355816  2.227730  1.083770  3.547939  2.580617
   H (  9)  2.952478  3.541068  2.160294  2.842582  1.092298  3.076299
   H ( 10)  4.406852  4.261660  2.157706  3.487780  1.093090  2.502880
   H ( 11)  4.062737  2.921714  2.182931  2.867612  1.093152  2.527448
             H (  7)   H (  8)   H (  9)   H ( 10)
   H (  8)  2.439711
   H (  9)  2.524728  3.798056
   H ( 10)  2.495245  4.363197  1.777624
   H ( 11)  3.091501  3.921268  1.775027  1.769542
 
 Applying Cartesian multipole field
    Component          Value
    ---------          -----
     (2,0,0)        1.00000E-11
     (0,2,0)        2.00000E-11
     (0,0,2)       -3.00000E-10
 Nucleus-field energy     =    -0.0000000121 hartrees
 Requested basis set is 6-31G(d,p)
 There are 40 shells and 113 basis functions
 A cutoff of  1.0D-14 yielded    782 shell pairs
 There are      6430 function pairs
 Smallest overlap matrix eigenvalue = 5.74E-03
 Guess from superposition of atomic densities
 Warning:  Energy on first SCF cycle will be non-variational
 SAD guess density has 58.000000 electrons

 -----------------------------------------------------------------------
  General SCF calculation program by
  Eric Jon Sundstrom, Paul Horn, Yuezhi Mao, Dmitri Zuev, Alec White,
  David Stuck, Shaama M.S., Shane Yost, Joonho Lee, David Small,
  Daniel Levine, Susi Lehtola, Hugh Burton, Evgeny Epifanovsky
 -----------------------------------------------------------------------
 Exchange:     0.2000 Hartree-Fock + 0.0800 Slater + 0.7200 B88
 Correlation:  0.1900 VWN1RPA + 0.8100 LYP
 Using SG-1 standard quadrature grid
 using 12 threads for integral computing
 -------------------------------------------------------
 OpenMP Integral computing Module                
 Release: version 1.0, May 2013, Q-Chem Inc. Pittsburgh 
 -------------------------------------------------------
 -------------------------------------------------------
 OpenMP BLAS3 based DFT computing Module                
 Release: version 1.0, May 2013, Q-Chem Inc. Pittsburgh 
 -------------------------------------------------------
 A unrestricted SCF calculation will be
 performed using DIIS
 SCF converges when DIIS error is below 1.0e-06
 Alpha HF Exchange    Energy =  -7.28133020713148
 Beta HF Exchange     Energy =  -7.28133020713148
 DFT Correlation      Energy =  -2.76420314472394
 DFT Exchange         Energy = -57.34713234995649
 One-Electron (alpha) Energy = -981.39396815742498
 One-Electron (beta)  Energy = -981.39396815742498
 Total Coulomb        Energy = 728.44046007541431
 ---------------------------------------
  Cycle       Energy         DIIS error
 ---------------------------------------
    1   -1038.7310165070      2.74e-02  
 Alpha HF Exchange    Energy =  -7.29211460280943
 Beta HF Exchange     Energy =  -7.29211460280942
 DFT Correlation      Energy =  -2.78670894225695
 DFT Exchange         Energy = -57.86662832750892
 One-Electron (alpha) Energy = -984.51848475844861
 One-Electron (beta)  Energy = -984.51848475844849
 Total Coulomb        Energy = 735.78600480834120
    2   -1038.1980755425      3.61e-03  
 Alpha HF Exchange    Energy =  -7.23758155145929
 Beta HF Exchange     Energy =  -7.23758155145928
 DFT Correlation      Energy =  -2.76906484716089
 DFT Exchange         Energy = -57.44534778698712
 One-Electron (alpha) Energy = -981.51076762866683
 One-Electron (beta)  Energy = -981.51076762866649
 Total Coulomb        Energy = 729.47845147114390
    3   -1037.9422038818      6.73e-03  
 Alpha HF Exchange    Energy =  -7.25789953155110
 Beta HF Exchange     Energy =  -7.25789953155110
 DFT Correlation      Energy =  -2.77323723132785
 DFT Exchange         Energy = -57.58769844228164
 One-Electron (alpha) Energy = -982.50097737255567
 One-Electron (beta)  Energy = -982.50097737255521
 Total Coulomb        Energy = 731.30878171571987
    4   -1038.2794521247      1.67e-03  
 Alpha HF Exchange    Energy =  -7.26141528998252
 Beta HF Exchange     Energy =  -7.26141528998252
 DFT Correlation      Energy =  -2.77716159815631
 DFT Exchange         Energy = -57.63184255897166
 One-Electron (alpha) Energy = -982.99084791880546
 One-Electron (beta)  Energy = -982.99084791880512
 Total Coulomb        Energy = 732.32262308926045
    5   -1038.3004518440      3.54e-04  
 Alpha HF Exchange    Energy =  -7.26270555131235
 Beta HF Exchange     Energy =  -7.26270555131236
 DFT Correlation      Energy =  -2.77706197603307
 DFT Exchange         Energy = -57.63992421300658
 One-Electron (alpha) Energy = -983.01965701357346
 One-Electron (beta)  Energy = -983.01965701357403
 Total Coulomb        Energy = 732.38995413968576
    6   -1038.3013015377      9.06e-05  
 Alpha HF Exchange    Energy =  -7.26228043343772
 Beta HF Exchange     Energy =  -7.26228043343772
 DFT Correlation      Energy =  -2.77695329345013
 DFT Exchange         Energy = -57.63638423464143
 One-Electron (alpha) Energy = -982.99201095333410
 One-Electron (beta)  Energy = -982.99201095333422
 Total Coulomb        Energy = 732.33010166508018
    7   -1038.3013629951      2.83e-05  
 Alpha HF Exchange    Energy =  -7.26226812875218
 Beta HF Exchange     Energy =  -7.26226812875218
 DFT Correlation      Energy =  -2.77694262304704
 DFT Exchange         Energy = -57.63617803780821
 One-Electron (alpha) Energy = -982.99024005963952
 One-Electron (beta)  Energy = -982.99024005963975
 Total Coulomb        Energy = 732.32631328539537
    8   -1038.3013681108      6.41e-06  
 Alpha HF Exchange    Energy =  -7.26230855445836
 Beta HF Exchange     Energy =  -7.26230855445835
 DFT Correlation      Energy =  -2.77695234480802
 DFT Exchange         Energy = -57.63647409624477
 One-Electron (alpha) Energy = -982.99320630791408
 One-Electron (beta)  Energy = -982.99320630791408
 Total Coulomb        Energy = 732.33263203193439
    9   -1038.3013684925      1.42e-06  
 Alpha HF Exchange    Energy =  -7.26230067071394
 Beta HF Exchange     Energy =  -7.26230067071393
 DFT Correlation      Energy =  -2.77694924995350
 DFT Exchange         Energy = -57.63640407813703
 One-Electron (alpha) Energy = -982.99230966144137
 One-Electron (beta)  Energy = -982.99230966144114
 Total Coulomb        Energy = 732.33074984523705
   10   -1038.3013685058      3.46e-07  Convergence criterion met
 ---------------------------------------
 SCF time:   CPU 26.11s  wall 2.00s 
<S^2> =         -0.000000000
 Alpha HF Exchange    Energy =  -7.26230067071394
 Beta HF Exchange     Energy =  -7.26230067071393
 DFT Correlation      Energy =  -2.77694924995350
 DFT Exchange         Energy = -57.63640407813703
 One-Electron (alpha) Energy = -982.99230966144137
 One-Electron (beta)  Energy = -982.99230966144114
 Total Coulomb        Energy = 732.33074984523705
 Nuclear repulsion Energy = 270.29045564140665
 SCF   energy in the final basis set =    -1038.3013685058
 Total energy in the final basis set =    -1038.3013685058
 
 --------------------------------------------------------------
 
                    Orbital Energies (a.u.)
 --------------------------------------------------------------
 
 Alpha MOs
 -- Occupied --
*******-101.500 -10.341 -10.234 -10.197  -9.507  -9.413  -7.271
 -7.262  -7.260  -7.176  -7.168  -7.168  -0.919  -0.809  -0.746
 -0.700  -0.608  -0.516  -0.488  -0.463  -0.407  -0.396  -0.385
 -0.368  -0.341  -0.298  -0.272  -0.271
 -- Virtual --
 -0.109   0.014   0.076   0.111   0.133   0.142   0.159   0.178
  0.192   0.225   0.336   0.387   0.399   0.423   0.436   0.458
  0.477   0.491   0.516   0.555   0.568   0.604   0.620   0.638
  0.667   0.707   0.744   0.785   0.806   0.828   0.838   0.852
  0.873   0.892   0.893   0.914   0.921   0.926   0.940   0.961
  0.975   1.037   1.050   1.171   1.291   1.363   1.387   1.498
  1.589   1.638   1.786   1.805   1.840   1.884   1.992   2.034
  2.052   2.073   2.083   2.117   2.224   2.256   2.337   2.372
  2.471   2.498   2.551   2.676   2.687   2.770   2.791   2.865
  2.881   3.185   3.261   3.292   3.374   3.447   3.499   4.116
  4.278   4.302   4.398   4.585
 
 Beta MOs
 -- Occupied --
*******-101.500 -10.341 -10.234 -10.197  -9.507  -9.413  -7.271
 -7.262  -7.260  -7.176  -7.168  -7.168  -0.919  -0.809  -0.746
 -0.700  -0.608  -0.516  -0.488  -0.463  -0.407  -0.396  -0.385
 -0.368  -0.341  -0.298  -0.272  -0.271
 -- Virtual --
 -0.109   0.014   0.076   0.111   0.133   0.142   0.159   0.178
  0.192   0.225   0.336   0.387   0.399   0.423   0.436   0.458
  0.477   0.491   0.516   0.555   0.568   0.604   0.620   0.638
  0.667   0.707   0.744   0.785   0.806   0.828   0.838   0.852
  0.873   0.892   0.893   0.914   0.921   0.926   0.940   0.961
  0.975   1.037   1.050   1.171   1.291   1.363   1.387   1.498
  1.589   1.638   1.786   1.805   1.840   1.884   1.992   2.034
  2.052   2.073   2.083   2.117   2.224   2.256   2.337   2.372
  2.471   2.498   2.551   2.676   2.687   2.770   2.791   2.865
  2.881   3.185   3.261   3.292   3.374   3.447   3.499   4.116
  4.278   4.302   4.398   4.585
 --------------------------------------------------------------
 
          Ground-State Mulliken Net Atomic Charges

     Atom                 Charge (a.u.)    Spin (a.u.)
  --------------------------------------------------------
      1 Cl                   -0.344472       0.000000
      2 Cl                    0.089523      -0.000000
      3 C                    -0.189013      -0.000000
      4 C                    -0.146680       0.000000
      5 C                    -0.325284       0.000000
      6 H                     0.140309      -0.000000
      7 H                     0.158866      -0.000000
      8 H                     0.214016      -0.000000
      9 H                     0.159528       0.000000
     10 H                     0.117291      -0.000000
     11 H                     0.125918      -0.000000
  --------------------------------------------------------
  Sum of atomic charges =    -0.000000
  Sum of spin   charges =    -0.000000

 -----------------------------------------------------------------
                    Cartesian Multipole Moments
 -----------------------------------------------------------------
    Charge (ESU x 10^10)
                 0.0000
    Dipole Moment (Debye)
         X      -2.4701      Y       3.0147      Z       2.1763
       Tot       4.4638
    Quadrupole Moments (Debye-Ang)
        XX     -45.2903     XY       3.6962     YY     -49.9096
        XZ       1.1266     YZ      -1.0387     ZZ     -42.6341
    Octopole Moments (Debye-Ang^2)
       XXX     -41.9778    XXY       9.1979    XYY     -16.5219
       YYY      24.5309    XXZ       6.7837    XYZ      -1.5118
       YYZ       3.8084    XZZ     -10.9378    YZZ       5.9397
       ZZZ      18.2241
    Hexadecapole Moments (Debye-Ang^3)
      XXXX    -456.5621   XXXY      34.8564   XXYY    -162.2670
      XYYY      37.6920   YYYY    -499.3374   XXXZ      14.7765
      XXYZ      -5.9104   XYYZ      -0.1000   YYYZ     -14.2764
      XXZZ     -97.0297   XYZZ      10.7476   YYZZ    -102.9102
      XZZZ      16.6493   YZZZ     -12.7574   ZZZZ    -138.9586
 -----------------------------------------------------------------
 Calculating analytic gradient of the SCF energy
 Gradient of SCF Energy
            1           2           3           4           5           6
    1   0.0119479   0.0000022   0.0000144  -0.0119289  -0.0000142  -0.0000104
    2  -0.0341202  -0.0000321   0.0000041   0.0341464   0.0000365  -0.0000446
    3  -0.0166430  -0.0000106  -0.0000075   0.0165974   0.0000161   0.0000491
            7           8           9          10          11
    1   0.0000176  -0.0000008  -0.0000330  -0.0000070   0.0000123
    2  -0.0000231  -0.0000233   0.0000090   0.0000353   0.0000120
    3  -0.0000237  -0.0000012  -0.0000026   0.0000151   0.0000111
 Max gradient component =       3.415E-02
 RMS gradient           =       9.797E-03
 Gradient time:  CPU 9.60 s  wall 0.97 s
 Geometry Optimization Parameters
   NAtoms,    NIC,     NZ,  NCons,   NDum,   NFix, NCnnct, MaxDiis
       11      68       0       1       0       0       0       0

 Cartesian Hessian Update
 Hessian Updated using BFGS Update


** CONSTRAINED OPTIMIZATION IN DELOCALIZED INTERNAL COORDINATES **
   Searching for a Minimum

   Optimization Cycle:   7

                       Coordinates (Angstroms)
     ATOM                X               Y               Z
      1  Cl        1.1762586673   -1.8550293734   -0.3827723009
      2  Cl        1.1014230049    1.4789661156   -0.3406090950
      3  C        -1.0269536861    0.0471896653    0.7072052835
      4  C         0.4550790206    0.2027383704    0.6199692893
      5  C        -1.7914742893    0.0282996505   -0.6163963249
      6  H        -1.3680293345    0.8905615312    1.3326887609
      7  H        -1.2116665551   -0.8652092608    1.2821276551
      8  H         1.0531957810    0.0142323754    1.5038687505
      9  H        -1.4510679937   -0.8083686735   -1.2305819325
     10  H        -2.8607546050   -0.0882962152   -0.4217389437
     11  H        -1.6481120099    0.9549148146   -1.1783681424
   Point Group: c1    Number of degrees of freedom:    27


   Energy is  -1038.301368506

              Constraints and their Current Values
                                        Value     Constraint
   Distance(Angs):        1   4             2.400000     2.400000
 Hessian Updated using BFGS Update

 26 Hessian modes will be used to form the next step
  Hessian Eigenvalues:
     0.011774    0.037573    0.045119    0.065972    0.076878    0.082901
     0.084278    0.101262    0.109152    0.135615    0.158084    0.160004
     0.162324    0.166469    0.217931    0.225230    0.238468    0.299967
     0.306993    0.333011    0.338982    0.343495    0.344521    0.345107
     0.346483    0.355739

 Minimum Search - Taking Simple RFO Step
 Searching for Lamda that Minimizes Along All modes
 Value Taken    Lamda =   0.00000000
 Step Taken.  Stepsize is  0.005108

                             Maximum     Tolerance    Cnvgd?
         Gradient           0.000046      0.000300     YES
         Displacement       0.003891      0.001200      NO
         Energy change     -0.000000      0.000001     YES


                       Distance Matrix (Angstroms)
             Cl(  1)   Cl(  2)   C (  3)   C (  4)   C (  5)   H (  6)
   Cl(  2)  3.335102
   C (  3)  3.108156  2.770900
   C (  4)  2.400000  1.723145  1.492725
   C (  5)  3.522634  3.247976  1.528650  2.570220
   H (  6)  4.117582  3.040451  1.104010  2.074800  2.172955
   H (  7)  3.074707  3.671351  1.094133  2.087344  2.176908  1.763445
   H (  8)  2.658702  2.355816  2.227730  1.083770  3.547939  2.580617
   H (  9)  2.952478  3.541068  2.160294  2.842582  1.092298  3.076299
   H ( 10)  4.406852  4.261660  2.157706  3.487780  1.093090  2.502880
   H ( 11)  4.062737  2.921714  2.182931  2.867612  1.093152  2.527448
             H (  7)   H (  8)   H (  9)   H ( 10)
   H (  8)  2.439711
   H (  9)  2.524728  3.798056
   H ( 10)  2.495245  4.363197  1.777624
   H ( 11)  3.091501  3.921268  1.775027  1.769542
 
 Final energy is   -1038.30136850576     


 ******************************
 **  OPTIMIZATION CONVERGED  **
 ******************************

                       Coordinates (Angstroms)
     ATOM                X               Y               Z
      1  Cl        1.1762586673   -1.8550293734   -0.3827723009
      2  Cl        1.1014230049    1.4789661156   -0.3406090950
      3  C        -1.0269536861    0.0471896653    0.7072052835
      4  C         0.4550790206    0.2027383704    0.6199692893
      5  C        -1.7914742893    0.0282996505   -0.6163963249
      6  H        -1.3680293345    0.8905615312    1.3326887609
      7  H        -1.2116665551   -0.8652092608    1.2821276551
      8  H         1.0531957810    0.0142323754    1.5038687505
      9  H        -1.4510679937   -0.8083686735   -1.2305819325
     10  H        -2.8607546050   -0.0882962152   -0.4217389437
     11  H        -1.6481120099    0.9549148146   -1.1783681424

Z-matrix Print:
$molecule
0 1
Cl
C  1 1.723145
H  2 1.083770 1 112.114779
C  2 1.492725 1 118.826897 3 144.854405 0
H  4 1.094133 2 106.571801 1 174.882089 0
H  4 1.104010 2 105.084068 1 -72.131438 0
C  4 1.528650 2 116.566218 1 50.200574 0
H  7 1.092298 4 109.905422 2 60.452853 0
H  7 1.093090 4 109.655225 2 -179.915012 0
H  7 1.093152 4 111.657781 2 -60.159249 0
Cl 2 2.400000 1 106.822195 3 -98.739198 0
$end

PES scan, value:    2.4000 energy: -1038.3013685058
------- Summary of potential scan: ------ 
    2.4000     -1038.3013685058
----------------------------------------- 
Archival summary:
1\1\hpc0332\JobtypUnspecified\ProcedureUnspecified\6-31G**\l236\knomura\MonMar1121:41:092019MonMar1121:41:092019\0\\#,JobtypUnspecified,ProcedureUnspecified,6-31G**,\\0,1\Cl\C,1,1.72314\H,2,1.08377,1,112.115\C,2,1.49272,1,118.827,3,144.854,0\H,4,1.09413,2,106.572,1,174.882,0\H,4,1.10401,2,105.084,1,-72.1314,0\C,4,1.52865,2,116.566,1,50.2006,0\H,7,1.0923,4,109.905,2,60.4529,0\H,7,1.09309,4,109.655,2,-179.915,0\H,7,1.09315,4,111.658,2,-60.1592,0\Cl,2,2.4,1,106.822,3,-98.7392,0\\\@

 Total job time:  27.51s(wall), 291.40s(cpu) 
 Mon Mar 11 21:41:09 2019

        *************************************************************
        *                                                           *
        *  Thank you very much for using Q-Chem.  Have a nice day.  *
        *                                                           *
        *************************************************************


