
Running Job 1 of 1 ruruma/CH3CH2CHCl2_afterGeo_siglet.xyz.data/inputs/bond_triplet_5.4.in
qchem ruruma/CH3CH2CHCl2_afterGeo_siglet.xyz.data/inputs/bond_triplet_5.4.in_18390.0 /staging/scratch/2858534/qchem18390/ 1
/usr/usc/qchem/5.1.1/exe/qcprog.exe_s ruruma/CH3CH2CHCl2_afterGeo_siglet.xyz.data/inputs/bond_triplet_5.4.in_18390.0 /staging/scratch/2858534/qchem18390/
Check license passed

                  Welcome to Q-Chem
     A Quantum Leap Into The Future Of Chemistry


 Q-Chem 5.1, Q-Chem, Inc., Pleasanton, CA (2018)

 Yihan Shao,  Zhengting Gan,  E. Epifanovsky,  A. T. B. Gilbert,  M. Wormit,  
 J. Kussmann,  A. W. Lange,  A. Behn,  Jia Deng,  Xintian Feng,  D. Ghosh,  
 M. Goldey,  P. R. Horn,  L. D. Jacobson,  I. Kaliman,  T. Kus,  A. Landau,  
 Jie Liu,  E. I. Proynov,  R. M. Richard,  R. P. Steele,  E. J. Sundstrom,  
 H. L. Woodcock III,  P. M. Zimmerman,  D. Zuev,  B. Albrecht,  E. Alguire,  
 S. A. Baeppler,  D. Barton,  Z. Benda,  Y. A. Bernard,  E. J. Berquist,  
 K. B. Bravaya,  H. Burton,  D. Casanova,  Chun-Min Chang,  Yunqing Chen,  
 A. Chien,  K. D. Closser,  M. P. Coons,  S. Coriani,  S. Dasgupta,  
 A. L. Dempwolff,  M. Diedenhofen,  Hainam Do,  R. G. Edgar,  Po-Tung Fang,  
 S. Faraji,  S. Fatehi,  Qingguo Feng,  K. D. Fenk,  J. Fosso-Tande,  
 Qinghui Ge,  A. Ghysels,  G. Gidofalvi,  J. Gomes,  J. Gonthier,  A. Gunina,  
 D. Hait,  M. W. D. Hanson-Heine,  P. H. P. Harbach,  A. W. Hauser,  
 J. E. Herr,  E. G. Hohenstein,  Z. C. Holden,  Kerwin Hui,  B. C. Huynh,  
 T.-C. Jagau,  Hyunjun Ji,  B. Kaduk,  K. Khistyaev,  Jaehoon Kim,  
 P. Klunzinger,  K. Koh,  D. Kosenkov,  L. Koulias,  T. Kowalczyk,  
 C. M. Krauter,  A. Kunitsa,  Ka Un Lao,  A. Laurent,  K. V. Lawler,  
 Joonho Lee,  D. Lefrancois,  S. Lehtola,  D. S. Levine,  Yi-Pei Li,  
 You-Sheng Lin,  Fenglai Liu,  E. Livshits,  A. Luenser,  P. Manohar,  
 E. Mansoor,  S. F. Manzer,  Shan-Ping Mao,  Yuezhi Mao,  N. Mardirossian,  
 A. V. Marenich,  T. Markovich,  L. A. Martinez-Martinez,  S. A. Maurer,  
 N. J. Mayhall,  S. C. McKenzie,  J.-M. Mewes,  A. F. Morrison,  
 J. W. Mullinax,  K. Nanda,  T. S. Nguyen-Beck,  R. Olivares-Amaya,  
 J. A. Parkhill,  T. M. Perrine,  F. Plasser,  P. Pokhilko,  S. Prager,  
 A. Prociuk,  E. Ramos,  D. R. Rehn,  F. Rob,  M. Schneider,  N. Sergueev,  
 S. M. Sharada,  S. Sharma,  D. W. Small,  T. Stauch,  T. Stein,  
 Yu-Chuan Su,  A. J. W. Thom,  A. Tkatchenko,  T. Tsuchimochi,  N. M. Tubman,  
 L. Vogt,  M. L. Vidal,  O. Vydrov,  M. A. Watson,  J. Wenzel,  
 M. de Wergifosse,  T. A. Wesolowski,  A. White,  J. Witte,  A. Yamada,  
 Jun Yang,  K. Yao,  S. Yeganeh,  S. R. Yost,  Zhi-Qiang You,  A. Zech,  
 Igor Ying Zhang,  Xing Zhang,  Yan Zhao,  Ying Zhu,  B. R. Brooks,  
 G. K. L. Chan,  C. J. Cramer,  M. S. Gordon,  W. J. Hehre,  A. Klamt,  
 M. W. Schmidt,  C. D. Sherrill,  D. G. Truhlar,  A. Aspuru-Guzik,  R. Baer,  
 A. T. Bell,  N. A. Besley,  Jeng-Da Chai,  A. E. DePrince, III,  
 R. A. DiStasio Jr.,  A. Dreuw,  B. D. Dunietz,  T. R. Furlani,  
 Chao-Ping Hsu,  Yousung Jung,  Jing Kong,  D. S. Lambrecht,  WanZhen Liang,  
 C. Ochsenfeld,  V. A. Rassolov,  L. V. Slipchenko,  J. E. Subotnik,  
 T. Van Voorhis,  J. M. Herbert,  A. I. Krylov,  P. M. W. Gill,  M. Head-Gordon

 Contributors to earlier versions of Q-Chem not listed above: 
 R. D. Adamson,  B. Austin,  J. Baker,  G. J. O. Beran,  K. Brandhorst,  
 S. T. Brown,  E. F. C. Byrd,  A. K. Chakraborty,  C.-L. Cheng,  
 Siu Hung Chien,  D. M. Chipman,  D. L. Crittenden,  H. Dachsel,  
 R. J. Doerksen,  A. D. Dutoi,  L. Fusti-Molnar,  W. A. Goddard III,  
 A. Golubeva-Zadorozhnaya,  S. R. Gwaltney,  G. Hawkins,  A. Heyden,  
 S. Hirata,  G. Kedziora,  F. J. Keil,  C. Kelley,  Jihan Kim,  R. A. King,  
 R. Z. Khaliullin,  P. P. Korambath,  W. Kurlancheek,  A. M. Lee,  M. S. Lee,  
 S. V. Levchenko,  Ching Yeh Lin,  D. Liotard,  R. C. Lochan,  I. Lotan,  
 P. E. Maslen,  N. Nair,  D. P. O'Neill,  D. Neuhauser,  E. Neuscamman,  
 C. M. Oana,  R. Olson,  B. Peters,  R. Peverati,  P. A. Pieniazek,  
 Y. M. Rhee,  J. Ritchie,  M. A. Rohrdanz,  E. Rosta,  N. J. Russ,  
 H. F. Schaefer III,  N. E. Schultz,  N. Shenvi,  A. C. Simmonett,  A. Sodt,  
 D. Stuck,  K. S. Thanthiriwatte,  V. Vanovschi,  Tao Wang,  A. Warshel,  
 C. F. Williams,  Q. Wu,  X. Xu,  W. Zhang

 Please cite Q-Chem as follows:
 Y. Shao et al., Mol. Phys. 113, 184-215 (2015)
 DOI: 10.1080/00268976.2014.952696

 Q-Chem 5.1.1 for Intel X86 EM64T Linux

 Parts of Q-Chem use Armadillo 8.300.2 (Tropical Shenanigans).
 http://arma.sourceforge.net/

 Q-Chem begins on Mon Mar 11 22:17:46 2019  

Host: 
0

     Scratch files written to /staging/scratch/2858534/qchem18390//
 Aug318 |scratch|qcdevops|jenkins|workspace|build_RNUM 6013   
Processing $rem in /usr/usc/qchem/5.1.1/config/preferences.
 MEM_TOTAL  2000 
Input Ideriv = 2
Curr. Ideriv = -1
Max.  Ideriv = 2

Checking the input file for inconsistencies... 	...done.

--------------------------------------------------------------
User input:
--------------------------------------------------------------

$comment
potential surface scanner
$end

$rem
JOBTYPE  PES_SCAN
UNRESTRICTED TRUE
SYM_IGNORE  TRUE
GEOM_OPT_MAX_CYCLES 400
SCF_MAX_CYCLES 400
METHOD   B3LYP
BASIS   6-31G**
PDB_PRINT 2
SCF_CONVERGENCE 6
THRESH 14
SCF_PRINT 1
$end
$molecule
0 3
Cl -1.367698 -2.774065 -0.983160
Cl 0.085430 2.432489 0.135569
C -0.559546 0.444194 1.958874
C 0.205471 1.639164 1.701716
C -1.237698 -1.207890 -1.875599
H -1.604072 0.492228 2.267428
H -0.150320 -0.545084 1.759369
H 0.695315 2.251402 2.449870
H -1.013043 -0.418317 -1.159517
H -2.188752 -1.016664 -2.370606
H -0.437185 -1.297455 -2.608538
$end
$scan
stre 1 4 5.400000 5.401000 0.100000
$end
--------------------------------------------------------------
 ----------------------------------------------------------------
             Standard Nuclear Orientation (Angstroms)
    I     Atom           X                Y                Z
 ----------------------------------------------------------------
    1      Cl     -1.3676980000    -2.7740650000    -0.9831600000
    2      Cl      0.0854300000     2.4324890000     0.1355690000
    3      C      -0.5595460000     0.4441940000     1.9588740000
    4      C       0.2054710000     1.6391640000     1.7017160000
    5      C      -1.2376980000    -1.2078900000    -1.8755990000
    6      H      -1.6040720000     0.4922280000     2.2674280000
    7      H      -0.1503200000    -0.5450840000     1.7593690000
    8      H       0.6953150000     2.2514020000     2.4498700000
    9      H      -1.0130430000    -0.4183170000    -1.1595170000
   10      H      -2.1887520000    -1.0166640000    -2.3706060000
   11      H      -0.4371850000    -1.2974550000    -2.6085380000
 ----------------------------------------------------------------
 Nuclear Repulsion Energy =   227.3181531137 hartrees
 There are       30 alpha and       28 beta electrons
 Requested basis set is 6-31G(d,p)
 There are 40 shells and 113 basis functions

 Total QAlloc Memory Limit   2000 MB
 Mega-Array Size       188 MB
 MEM_STATIC part       192 MB
A total of 1 constraints
  
            1
    1   1.0100000
    2   1.0100000
    3   4.0100000
    4   5.4000000
    5   5.4010000
    6   0.1000000
    7   0.0000000
    8   0.0000000
    9   0.0000000
   10   0.0000000

                       Distance Matrix (Angstroms)
             Cl(  1)   Cl(  2)   C (  3)   C (  4)   C (  5)   H (  6)
   Cl(  2)  5.520085
   C (  3)  4.434621  2.773761
   C (  4)  5.400001  1.759713  1.441990
   C (  5)  1.807277  4.364381  4.229947  4.794334
   H (  6)  4.614203  3.341235  1.090205  2.215838  4.493251
   H (  7)  3.737891  3.399742  1.089008  2.213786  3.851583  1.856754
   H (  8)  6.426277  2.400154  2.254275  1.083751  5.866253  2.900889
   H (  9)  2.388814  3.318281  3.267101  3.728895  1.089343  3.594768
   H ( 10)  2.384868  4.832129  4.851063  5.419366  1.089084  4.912226
   H ( 11)  2.384971  4.660014  4.889741  5.255000  1.089056  5.323498
             H (  7)   H (  8)   H (  9)   H ( 10)
   H (  8)  3.002037
   H (  9)  3.046351  4.803495
   H ( 10)  4.629718  6.498853  1.790823
   H ( 11)  4.441505  6.282072  1.790016  1.789816
 
 A cutoff of  1.0D-14 yielded    697 shell pairs
 There are      5660 function pairs
 
 -------------------------------------------------------
 OpenMP Integral Computing Module                       
 Release: version 1.0, May 2013, Q-Chem Inc. Pittsburgh 
 -------------------------------------------------------
 Integral Job Info:
 Integral job number is                      11
 Integral operator is                         1
 short-range coefficients                     0
 long-range coefficients              100000000
 Omega coefficients                           0
 if combine SR and LR in K                    0
 Integral screening is                        0
 Integral computing path is                   2
 max size of driver memory is            800000
 size of driver memory is                593474
 size of scratch memory is             15267112
 max col of scratch BK array               1296
 max len of scratch array in speh3          155
 max len of scratch index in speh4           18
 max int batch size is                      520
 min int batch size is                       52
 fixed nKL is                                52
 max L of basis functions is                  2
 order of int derivative is                   0
 number of shells is                         40
 number of basis is                         113
 number of cartesian basis is               113
 number of contracted shell pairs           697
 number of primitive shell pairs           2693
 maxK2 (contraction) of shell pair           36
 max number of K2 of shell pair               1
 max number of CS2 of shell pair             60
 max number of PS2 of shell pair            270
 mem total for path MDJ                  514038
 -------------------------------------------------------
 Smallest overlap matrix eigenvalue = 8.77E-03

 Scale SEOQF with 1.000000e-01/1.000000e-01/1.000000e-01

 Standard Electronic Orientation quadrupole field applied
 Nucleus-field energy     =     0.0000000095 hartrees
 Guess from superposition of atomic densities
 Warning:  Energy on first SCF cycle will be non-variational
 SAD guess density has 58.000000 electrons

 -----------------------------------------------------------------------
  General SCF calculation program by
  Eric Jon Sundstrom, Paul Horn, Yuezhi Mao, Dmitri Zuev, Alec White,
  David Stuck, Shaama M.S., Shane Yost, Joonho Lee, David Small,
  Daniel Levine, Susi Lehtola, Hugh Burton, Evgeny Epifanovsky
 -----------------------------------------------------------------------
 Exchange:     0.2000 Hartree-Fock + 0.0800 Slater + 0.7200 B88
 Correlation:  0.1900 VWN1RPA + 0.8100 LYP
 Using SG-1 standard quadrature grid
 using 12 threads for integral computing
 -------------------------------------------------------
 OpenMP Integral computing Module                
 Release: version 1.0, May 2013, Q-Chem Inc. Pittsburgh 
 -------------------------------------------------------
 -------------------------------------------------------
 OpenMP BLAS3 based DFT computing Module                
 Release: version 1.0, May 2013, Q-Chem Inc. Pittsburgh 
 -------------------------------------------------------
 A unrestricted SCF calculation will be
 performed using DIIS
 SCF converges when DIIS error is below 1.0e-06
 Alpha HF Exchange    Energy =  -7.25890943171522
 Beta HF Exchange     Energy =  -7.25890943171522
 DFT Correlation      Energy =  -2.74971860850685
 DFT Exchange         Energy = -57.31411650917282
 One-Electron (alpha) Energy = -938.42554820590112
 One-Electron (beta)  Energy = -938.42554820590112
 Total Coulomb        Energy = 685.54240166014279
 ---------------------------------------
  Cycle       Energy         DIIS error
 ---------------------------------------
    1   -1038.5721956095      2.64e-02  
 Alpha HF Exchange    Energy =  -7.38409926306645
 Beta HF Exchange     Energy =  -7.19004095012249
 DFT Correlation      Energy =  -2.76500246852107
 DFT Exchange         Energy = -57.82974281868423
 One-Electron (alpha) Energy = -954.83869507249381
 One-Electron (beta)  Energy = -927.72951681360496
 Total Coulomb        Energy = 692.25633729007063
    2   -1038.1626069732      2.42e-03  
 Alpha HF Exchange    Energy =  -7.34249789738023
 Beta HF Exchange     Energy =  -7.16052740596756
 DFT Correlation      Energy =  -2.74559647338419
 DFT Exchange         Energy = -57.51544327455301
 One-Electron (alpha) Energy = -952.64270374356011
 One-Electron (beta)  Energy = -925.81542485897876
 Total Coulomb        Energy = 687.73724532761776
    3   -1038.1667952030      2.40e-03  
 Alpha HF Exchange    Energy =  -7.36028791066654
 Beta HF Exchange     Energy =  -7.17071664486960
 DFT Correlation      Energy =  -2.75356516546396
 DFT Exchange         Energy = -57.63816222523459
 One-Electron (alpha) Energy = -953.51526803318200
 One-Electron (beta)  Energy = -926.44095557711910
 Total Coulomb        Energy = 689.35490530887512
    4   -1038.2058971244      4.26e-04  
 Alpha HF Exchange    Energy =  -7.36312554039835
 Beta HF Exchange     Energy =  -7.17437934778518
 DFT Correlation      Energy =  -2.75360343812468
 DFT Exchange         Energy = -57.66095196052200
 One-Electron (alpha) Energy = -953.70324282669117
 One-Electron (beta)  Energy = -926.64468921031789
 Total Coulomb        Energy = 689.77471615579918
    5   -1038.2071230448      1.58e-04  
 Alpha HF Exchange    Energy =  -7.36241408230376
 Beta HF Exchange     Energy =  -7.17333320939385
 DFT Correlation      Energy =  -2.75328004741085
 DFT Exchange         Energy = -57.65395652680719
 One-Electron (alpha) Energy = -953.64111702907076
 One-Electron (beta)  Energy = -926.56289958482841
 Total Coulomb        Energy = 689.62154623191884
    6   -1038.2073011247      4.87e-05  
 Alpha HF Exchange    Energy =  -7.36243032749454
 Beta HF Exchange     Energy =  -7.17340050815844
 DFT Correlation      Energy =  -2.75321327690664
 DFT Exchange         Energy = -57.65401276269613
 One-Electron (alpha) Energy = -953.64091111358641
 One-Electron (beta)  Energy = -926.56265574095596
 Total Coulomb        Energy = 689.62115179567149
    7   -1038.2073188109      1.69e-05  
 Alpha HF Exchange    Energy =  -7.36254237191227
 Beta HF Exchange     Energy =  -7.17345758979290
 DFT Correlation      Energy =  -2.75321476821580
 DFT Exchange         Energy = -57.65463826359311
 One-Electron (alpha) Energy = -953.64862812771355
 One-Electron (beta)  Energy = -926.56685539292323
 Total Coulomb        Energy = 689.63386224795704
    8   -1038.2073211430      7.41e-06  
 Alpha HF Exchange    Energy =  -7.36251561940347
 Beta HF Exchange     Energy =  -7.17344031053941
 DFT Correlation      Energy =  -2.75319750910778
 DFT Exchange         Energy = -57.65444808405113
 One-Electron (alpha) Energy = -953.64629664454333
 One-Electron (beta)  Energy = -926.56427329009523
 Total Coulomb        Energy = 689.62869674125523
    9   -1038.2073215933      2.52e-06  
 Alpha HF Exchange    Energy =  -7.36251338498432
 Beta HF Exchange     Energy =  -7.17342970649436
 DFT Correlation      Energy =  -2.75319315716629
 DFT Exchange         Energy = -57.65439387380262
 One-Electron (alpha) Energy = -953.64576874105489
 One-Electron (beta)  Energy = -926.56334515913557
 Total Coulomb        Energy = 689.62716925493248
   10   -1038.2073216445      9.06e-07  Convergence criterion met
 ---------------------------------------
 SCF time:   CPU 23.98s  wall 2.00s 
<S^2> =          2.004377788
 Alpha HF Exchange    Energy =  -7.36251338498432
 Beta HF Exchange     Energy =  -7.17342970649436
 DFT Correlation      Energy =  -2.75319315716629
 DFT Exchange         Energy = -57.65439387380262
 One-Electron (alpha) Energy = -953.64576874105489
 One-Electron (beta)  Energy = -926.56334515913557
 Total Coulomb        Energy = 689.62716925493248
 Nuclear repulsion Energy = 227.31815312322829
 SCF   energy in the final basis set =    -1038.2073216445
 Total energy in the final basis set =    -1038.2073216445
 
 --------------------------------------------------------------
 
                    Orbital Energies (a.u.)
 --------------------------------------------------------------
 
 Alpha MOs
 -- Occupied --
*******-101.535 -10.259 -10.243 -10.226  -9.473  -9.451  -7.237
 -7.229  -7.227  -7.215  -7.205  -7.205  -0.877  -0.846  -0.754
 -0.678  -0.608  -0.470  -0.459  -0.449  -0.448  -0.443  -0.410
 -0.359  -0.320  -0.296  -0.296  -0.243  -0.211
 -- Virtual --
  0.026   0.032   0.099   0.119   0.142   0.146   0.149   0.177
  0.253   0.378   0.403   0.420   0.433   0.443   0.451   0.461
  0.470   0.499   0.525   0.532   0.540   0.547   0.564   0.599
  0.643   0.665   0.786   0.825   0.831   0.833   0.851   0.853
  0.866   0.882   0.890   0.894   0.914   0.915   0.928   0.941
  1.005   1.046   1.072   1.135   1.259   1.391   1.453   1.453
  1.570   1.698   1.722   1.804   1.890   1.979   2.010   2.028
  2.030   2.039   2.046   2.169   2.325   2.333   2.367   2.375
  2.450   2.497   2.582   2.599   2.647   2.795   2.798   2.879
  3.164   3.240   3.344   3.387   3.403   3.432   4.082   4.215
  4.288   4.364   4.405
 
 Beta MOs
 -- Occupied --
*******-101.535 -10.245 -10.243 -10.213  -9.472  -9.451  -7.235
 -7.226  -7.226  -7.215  -7.205  -7.205  -0.859  -0.846  -0.715
 -0.677  -0.575  -0.451  -0.449  -0.448  -0.434  -0.426  -0.410
 -0.336  -0.315  -0.296  -0.296
 -- Virtual --
 -0.090  -0.067   0.026   0.057   0.105   0.129   0.146   0.149
  0.164   0.189   0.270   0.383   0.404   0.430   0.435   0.450
  0.455   0.462   0.473   0.507   0.526   0.536   0.561   0.599
  0.601   0.622   0.666   0.681   0.801   0.826   0.841   0.842
  0.855   0.863   0.873   0.888   0.894   0.902   0.915   0.916
  0.940   0.955   1.021   1.058   1.084   1.148   1.260   1.438
  1.453   1.454   1.613   1.740   1.763   1.832   1.939   1.990
  2.010   2.028   2.030   2.039   2.109   2.184   2.325   2.334
  2.388   2.394   2.476   2.526   2.582   2.629   2.663   2.795
  2.798   2.891   3.164   3.251   3.358   3.387   3.403   3.448
  4.108   4.215   4.304   4.385   4.416
 --------------------------------------------------------------
 
          Ground-State Mulliken Net Atomic Charges

     Atom                 Charge (a.u.)    Spin (a.u.)
  --------------------------------------------------------
      1 Cl                   -0.102889       0.000189
      2 Cl                   -0.026633       0.138094
      3 C                    -0.202686       0.969966
      4 C                    -0.209401       0.904338
      5 C                    -0.403901       0.002205
      6 H                     0.136080       0.006176
      7 H                     0.147939      -0.004296
      8 H                     0.161754      -0.018069
      9 H                     0.172495       0.001276
     10 H                     0.163101       0.000037
     11 H                     0.164141       0.000084
  --------------------------------------------------------
  Sum of atomic charges =    -0.000000
  Sum of spin   charges =     2.000000

 -----------------------------------------------------------------
                    Cartesian Multipole Moments
 -----------------------------------------------------------------
    Charge (ESU x 10^10)
                -0.0000
    Dipole Moment (Debye)
         X      -0.0399      Y       1.0971      Z       0.4510
       Tot       1.1869
    Quadrupole Moments (Debye-Ang)
        XX     -44.9965     XY      -2.3546     YY     -53.2664
        XZ       0.7864     YZ       0.7692     ZZ     -38.2091
    Octopole Moments (Debye-Ang^2)
       XXX      81.4869    XXY       4.7253    XYY      38.6969
       YYY      13.9949    XXZ       0.6834    XYZ       3.7088
       YYZ      12.7354    XZZ      23.9502    YZZ       6.1869
       ZZZ      -0.9236
    Hexadecapole Moments (Debye-Ang^3)
      XXXX    -283.9372   XXXY    -194.6217   XXYY    -272.9814
      XYYY    -203.6115   YYYY   -1303.4536   XXXZ     -84.2376
      XXYZ     -77.9546   XYYZ     -34.7884   YYYZ    -259.9753
      XXZZ    -126.4756   XYZZ     -56.9877   YYZZ    -289.7793
      XZZZ     -76.0366   YZZZ    -210.7928   ZZZZ    -529.9519
 -----------------------------------------------------------------
 Calculating analytic gradient of the SCF energy
 Gradient of SCF Energy
            1           2           3           4           5           6
    1  -0.0001250  -0.0000133  -0.0000229   0.0001584  -0.0000149   0.0000072
    2  -0.0004116   0.0000069  -0.0000143   0.0004411  -0.0000896  -0.0000372
    3  -0.0002702   0.0000246  -0.0000113   0.0002104   0.0000311   0.0000567
            7           8           9          10          11
    1  -0.0000134  -0.0000045   0.0000136   0.0000122   0.0000026
    2  -0.0000185  -0.0000062   0.0000766   0.0000365   0.0000165
    3  -0.0000084   0.0000110  -0.0000124  -0.0000203  -0.0000110
 Max gradient component =       4.411E-04
 RMS gradient           =       1.287E-04
 Gradient time:  CPU 8.19 s  wall 0.75 s
 Geometry Optimization Parameters
   NAtoms,    NIC,     NZ,  NCons,   NDum,   NFix, NCnnct, MaxDiis
       11      89       0       1       0       0       0       0


** CONSTRAINED OPTIMIZATION IN DELOCALIZED INTERNAL COORDINATES **
   Searching for a Minimum

   Optimization Cycle:   1

                       Coordinates (Angstroms)
     ATOM                X               Y               Z
      1  Cl       -1.3676980000   -2.7740650000   -0.9831600000
      2  Cl        0.0854300000    2.4324890000    0.1355690000
      3  C        -0.5595460000    0.4441940000    1.9588740000
      4  C         0.2054710000    1.6391640000    1.7017160000
      5  C        -1.2376980000   -1.2078900000   -1.8755990000
      6  H        -1.6040720000    0.4922280000    2.2674280000
      7  H        -0.1503200000   -0.5450840000    1.7593690000
      8  H         0.6953150000    2.2514020000    2.4498700000
      9  H        -1.0130430000   -0.4183170000   -1.1595170000
     10  H        -2.1887520000   -1.0166640000   -2.3706060000
     11  H        -0.4371850000   -1.2974550000   -2.6085380000
   Point Group: c1    Number of degrees of freedom:    27


   Energy is  -1038.207321644

              Constraints and their Current Values
                                        Value     Constraint
   Distance(Angs):        1   4             5.400001     5.400000

 Attempting to Generate Delocalized Internal Coordinates

   Using Lagrange Multiplier Algorithm


 28 Hessian modes will be used to form the next step
  Hessian Eigenvalues:
    -0.998676    0.015423    0.023517    0.045075    0.045425    0.045569
     0.046474    0.062440    0.066928    0.080449    0.085425    0.086911
     0.099247    0.136569    0.157090    0.159273    0.160000    0.160000
     0.252432    0.282662    0.323184    0.329113    0.347889    0.349188
     0.349220    0.355449    0.369191    1.001325

 Minimum Search - Taking P-RFO Step
 Searching for Lamda that Maximizes Along the Constraint modes Only
 Value Taken    Lamda =   0.00000013
 Searching for Lamda that Minimizes Along All other modes
 Value Taken    Lamda =  -0.00000023
 Step Taken.  Stepsize is  0.001065

                             Maximum     Tolerance    Cnvgd?
         Gradient            0.000510       0.000300      NO
         Displacement        0.000527       0.001200     YES
         Energy change     *********       0.000001      NO


 New Cartesian Coordinates Obtained by Inverse Iteration

 Displacement from previous Coordinates is:  0.001179
 ----------------------------------------------------------------
             Standard Nuclear Orientation (Angstroms)
    I     Atom           X                Y                Z
 ----------------------------------------------------------------
    1      Cl     -1.3676392828    -2.7740184842    -0.9831437822
    2      Cl      0.0855522380     2.4324168896     0.1356320781
    3      C      -0.5594825345     0.4441962945     1.9588357617
    4      C       0.2055065471     1.6391506709     1.7018422898
    5      C      -1.2377213280    -1.2078455060    -1.8756166846
    6      H      -1.6041030347     0.4923196447     2.2670060423
    7      H      -0.1502029364    -0.5450708695     1.7593994708
    8      H       0.6952007496     2.2514474454     2.4500420511
    9      H      -1.0130583105    -0.4183928654    -1.1594930189
   10      H      -2.1888847513    -1.0168306300    -2.3704833322
   11      H      -0.4372653566    -1.2973705899    -2.6086148757
 ----------------------------------------------------------------
 Nuclear Repulsion Energy =   227.3204888116 hartrees
 There are       30 alpha and       28 beta electrons

                       Distance Matrix (Angstroms)
             Cl(  1)   Cl(  2)   C (  3)   C (  4)   C (  5)   H (  6)
   Cl(  2)  5.519999
   C (  3)  4.434554  2.773655
   C (  4)  5.400000  1.759737  1.441933
   C (  5)  1.807286  4.364365  4.229926  4.794425
   H (  6)  4.613930  3.340908  1.090191  2.215698  4.492897
   H (  7)  3.737901  3.399652  1.089006  2.213745  3.851663  1.856790
   H (  8)  6.426304  2.400191  2.254256  1.083748  5.866363  2.900833
   H (  9)  2.388681  3.318345  3.267073  3.729025  1.089285  3.594388
   H ( 10)  2.384715  4.832286  4.851036  5.419519  1.089078  4.911803
   H ( 11)  2.385003  4.659994  4.889744  5.255126  1.089050  5.323174
             H (  7)   H (  8)   H (  9)   H ( 10)
   H (  8)  3.002034
   H (  9)  3.046391  4.803638
   H ( 10)  4.629764  6.499004  1.790864
   H ( 11)  4.441611  6.282245  1.789998  1.789855
 
 Applying Cartesian multipole field
    Component          Value
    ---------          -----
     (2,0,0)        1.00000E-11
     (0,2,0)        2.00000E-11
     (0,0,2)       -3.00000E-11
 Nucleus-field energy     =     0.0000000095 hartrees
 Requested basis set is 6-31G(d,p)
 There are 40 shells and 113 basis functions
 A cutoff of  1.0D-14 yielded    697 shell pairs
 There are      5660 function pairs
 Smallest overlap matrix eigenvalue = 8.77E-03
 Guess from superposition of atomic densities
 Warning:  Energy on first SCF cycle will be non-variational
 SAD guess density has 58.000000 electrons

 -----------------------------------------------------------------------
  General SCF calculation program by
  Eric Jon Sundstrom, Paul Horn, Yuezhi Mao, Dmitri Zuev, Alec White,
  David Stuck, Shaama M.S., Shane Yost, Joonho Lee, David Small,
  Daniel Levine, Susi Lehtola, Hugh Burton, Evgeny Epifanovsky
 -----------------------------------------------------------------------
 Exchange:     0.2000 Hartree-Fock + 0.0800 Slater + 0.7200 B88
 Correlation:  0.1900 VWN1RPA + 0.8100 LYP
 Using SG-1 standard quadrature grid
 using 12 threads for integral computing
 -------------------------------------------------------
 OpenMP Integral computing Module                
 Release: version 1.0, May 2013, Q-Chem Inc. Pittsburgh 
 -------------------------------------------------------
 -------------------------------------------------------
 OpenMP BLAS3 based DFT computing Module                
 Release: version 1.0, May 2013, Q-Chem Inc. Pittsburgh 
 -------------------------------------------------------
 A unrestricted SCF calculation will be
 performed using DIIS
 SCF converges when DIIS error is below 1.0e-06
 Alpha HF Exchange    Energy =  -7.25891914574147
 Beta HF Exchange     Energy =  -7.25891914574147
 DFT Correlation      Energy =  -2.74972096124710
 DFT Exchange         Energy = -57.31413650244586
 One-Electron (alpha) Energy = -938.42781645103651
 One-Electron (beta)  Energy = -938.42781645103651
 Total Coulomb        Energy = 685.54457056643196
 ---------------------------------------
  Cycle       Energy         DIIS error
 ---------------------------------------
    1   -1038.5722692697      2.64e-02  
 Alpha HF Exchange    Energy =  -7.38410787947324
 Beta HF Exchange     Energy =  -7.19004663343370
 DFT Correlation      Energy =  -2.76500635279326
 DFT Exchange         Energy = -57.82979797241493
 One-Electron (alpha) Energy = -954.84130633358268
 One-Electron (beta)  Energy = -927.73180913131102
 Total Coulomb        Energy = 692.25898395860349
    2   -1038.1626015233      2.42e-03  
 Alpha HF Exchange    Energy =  -7.34250300997838
 Beta HF Exchange     Energy =  -7.16053142721350
 DFT Correlation      Energy =  -2.74559907978744
 DFT Exchange         Energy = -57.51547546679157
 One-Electron (alpha) Energy = -952.64511752256169
 One-Electron (beta)  Energy = -925.81761020781846
 Total Coulomb        Energy = 687.73955871453177
    3   -1038.1667891785      2.40e-03  
 Alpha HF Exchange    Energy =  -7.36029400144277
 Beta HF Exchange     Energy =  -7.17072076178061
 DFT Correlation      Energy =  -2.75356818877717
 DFT Exchange         Energy = -57.63819951736478
 One-Electron (alpha) Energy = -953.51771172253518
 One-Electron (beta)  Energy = -926.44313804126830
 Total Coulomb        Energy = 689.35724638283421
    4   -1038.2058970292      4.26e-04  
 Alpha HF Exchange    Energy =  -7.36313203365199
 Beta HF Exchange     Energy =  -7.17438411630473
 DFT Correlation      Energy =  -2.75360659199745
 DFT Exchange         Energy = -57.66099328314239
 One-Electron (alpha) Energy = -953.70572436306077
 One-Electron (beta)  Energy = -926.64692219524602
 Total Coulomb        Energy = 689.77715065074642
    5   -1038.2071231115      1.58e-04  
 Alpha HF Exchange    Energy =  -7.36242054901917
 Beta HF Exchange     Energy =  -7.17333790908469
 DFT Correlation      Energy =  -2.75328318212761
 DFT Exchange         Energy = -57.65399744060925
 One-Electron (alpha) Energy = -953.64359083808154
 One-Electron (beta)  Energy = -926.56512649841534
 Total Coulomb        Energy = 689.62396638861367
    6   -1038.2073012076      4.87e-05  
 Alpha HF Exchange    Energy =  -7.36243676436200
 Beta HF Exchange     Energy =  -7.17340521092883
 DFT Correlation      Energy =  -2.75321641049358
 DFT Exchange         Energy = -57.65405358002152
 One-Electron (alpha) Energy = -953.64338316283909
 One-Electron (beta)  Energy = -926.56488306714516
 Total Coulomb        Energy = 689.62357047946921
    7   -1038.2073188952      1.69e-05  
 Alpha HF Exchange    Energy =  -7.36254880764709
 Beta HF Exchange     Energy =  -7.17346229655312
 DFT Correlation      Energy =  -2.75321790007257
 DFT Exchange         Energy = -57.65467907766522
 One-Electron (alpha) Energy = -953.65109966130126
 One-Electron (beta)  Energy = -926.56908327633414
 Total Coulomb        Energy = 689.63628097104834
    8   -1038.2073212274      7.41e-06  
 Alpha HF Exchange    Energy =  -7.36252205624753
 Beta HF Exchange     Energy =  -7.17344501824961
 DFT Correlation      Energy =  -2.75320064196491
 DFT Exchange         Energy = -57.65448891015656
 One-Electron (alpha) Energy = -953.64876815119067
 One-Electron (beta)  Energy = -926.56650141082707
 Total Coulomb        Energy = 689.63111568975148
    9   -1038.2073216778      2.52e-06  
 Alpha HF Exchange    Energy =  -7.36251981909013
 Beta HF Exchange     Energy =  -7.17343441378942
 DFT Correlation      Energy =  -2.75319628917334
 DFT Exchange         Energy = -57.65443468628335
 One-Electron (alpha) Energy = -953.64824002795137
 One-Electron (beta)  Energy = -926.56557324108962
 Total Coulomb        Energy = 689.62958792727761
   10   -1038.2073217290      9.06e-07  Convergence criterion met
 ---------------------------------------
 SCF time:   CPU 22.95s  wall 2.00s 
<S^2> =          2.004377555
 Alpha HF Exchange    Energy =  -7.36251981909013
 Beta HF Exchange     Energy =  -7.17343441378942
 DFT Correlation      Energy =  -2.75319628917334
 DFT Exchange         Energy = -57.65443468628335
 One-Electron (alpha) Energy = -953.64824002795137
 One-Electron (beta)  Energy = -926.56557324108962
 Total Coulomb        Energy = 689.62958792727761
 Nuclear repulsion Energy = 227.32048882112085
 SCF   energy in the final basis set =    -1038.2073217290
 Total energy in the final basis set =    -1038.2073217290
 
 --------------------------------------------------------------
 
                    Orbital Energies (a.u.)
 --------------------------------------------------------------
 
 Alpha MOs
 -- Occupied --
*******-101.535 -10.259 -10.243 -10.226  -9.473  -9.451  -7.237
 -7.229  -7.227  -7.215  -7.205  -7.205  -0.877  -0.846  -0.754
 -0.678  -0.608  -0.470  -0.459  -0.449  -0.448  -0.443  -0.410
 -0.359  -0.320  -0.296  -0.296  -0.243  -0.211
 -- Virtual --
  0.026   0.032   0.099   0.119   0.142   0.146   0.149   0.177
  0.253   0.378   0.403   0.420   0.433   0.443   0.451   0.461
  0.470   0.499   0.525   0.532   0.540   0.547   0.564   0.599
  0.643   0.665   0.786   0.825   0.831   0.833   0.851   0.853
  0.866   0.882   0.890   0.894   0.914   0.915   0.928   0.941
  1.005   1.046   1.072   1.135   1.259   1.391   1.453   1.453
  1.570   1.698   1.722   1.804   1.890   1.979   2.010   2.028
  2.030   2.039   2.046   2.169   2.325   2.333   2.367   2.375
  2.450   2.497   2.582   2.599   2.647   2.795   2.798   2.879
  3.164   3.240   3.344   3.387   3.403   3.432   4.082   4.215
  4.288   4.364   4.405
 
 Beta MOs
 -- Occupied --
*******-101.535 -10.245 -10.243 -10.213  -9.472  -9.451  -7.235
 -7.226  -7.226  -7.215  -7.205  -7.205  -0.859  -0.846  -0.715
 -0.677  -0.575  -0.451  -0.449  -0.448  -0.434  -0.426  -0.410
 -0.336  -0.315  -0.296  -0.296
 -- Virtual --
 -0.090  -0.067   0.026   0.057   0.105   0.129   0.146   0.149
  0.164   0.189   0.270   0.383   0.404   0.430   0.435   0.450
  0.455   0.462   0.473   0.507   0.526   0.536   0.561   0.599
  0.601   0.622   0.666   0.681   0.801   0.826   0.841   0.842
  0.855   0.863   0.873   0.888   0.894   0.902   0.915   0.916
  0.940   0.955   1.021   1.058   1.084   1.148   1.260   1.438
  1.453   1.454   1.613   1.740   1.763   1.832   1.939   1.990
  2.010   2.028   2.030   2.039   2.109   2.184   2.325   2.334
  2.388   2.394   2.476   2.526   2.582   2.629   2.663   2.795
  2.798   2.891   3.164   3.252   3.358   3.387   3.404   3.448
  4.108   4.215   4.304   4.385   4.416
 --------------------------------------------------------------
 
          Ground-State Mulliken Net Atomic Charges

     Atom                 Charge (a.u.)    Spin (a.u.)
  --------------------------------------------------------
      1 Cl                   -0.102918       0.000189
      2 Cl                   -0.026654       0.138113
      3 C                    -0.202680       0.969936
      4 C                    -0.209391       0.904333
      5 C                    -0.403897       0.002204
      6 H                     0.136082       0.006184
      7 H                     0.147942      -0.004289
      8 H                     0.161755      -0.018068
      9 H                     0.172508       0.001277
     10 H                     0.163109       0.000037
     11 H                     0.164143       0.000084
  --------------------------------------------------------
  Sum of atomic charges =    -0.000000
  Sum of spin   charges =     2.000000

 -----------------------------------------------------------------
                    Cartesian Multipole Moments
 -----------------------------------------------------------------
    Charge (ESU x 10^10)
                -0.0000
    Dipole Moment (Debye)
         X      -0.0401      Y       1.0973      Z       0.4509
       Tot       1.1870
    Quadrupole Moments (Debye-Ang)
        XX     -44.9959     XY      -2.3549     YY     -53.2671
        XZ       0.7870     YZ       0.7698     ZZ     -38.2090
    Octopole Moments (Debye-Ang^2)
       XXX      81.4764    XXY       4.7242    XYY      38.6935
       YYY      13.9985    XXZ       0.6804    XYZ       3.7070
       YYZ      12.7357    XZZ      23.9493    YZZ       6.1875
       ZZZ      -0.9291
    Hexadecapole Moments (Debye-Ang^3)
      XXXX    -283.9213   XXXY    -194.6231   XXYY    -272.9716
      XYYY    -203.6198   YYYY   -1303.4199   XXXZ     -84.2381
      XXYZ     -77.9532   XYYZ     -34.7893   YYYZ    -259.9783
      XXZZ    -126.4770   XYZZ     -56.9863   YYZZ    -289.7663
      XZZZ     -76.0335   YZZZ    -210.7896   ZZZZ    -529.9547
 -----------------------------------------------------------------
 Calculating analytic gradient of the SCF energy
 Gradient of SCF Energy
            1           2           3           4           5           6
    1  -0.0001333  -0.0000188  -0.0000122   0.0001387   0.0000034   0.0000169
    2  -0.0003991   0.0000041   0.0000025   0.0004147  -0.0000448  -0.0000248
    3  -0.0002728   0.0000216  -0.0000177   0.0002271   0.0000376   0.0000496
            7           8           9          10          11
    1  -0.0000091  -0.0000039   0.0000105   0.0000058   0.0000021
    2  -0.0000157  -0.0000090   0.0000394   0.0000162   0.0000167
    3  -0.0000087   0.0000108  -0.0000254  -0.0000142  -0.0000081
 Max gradient component =       4.147E-04
 RMS gradient           =       1.238E-04
 Gradient time:  CPU 8.02 s  wall 0.72 s
 Geometry Optimization Parameters
   NAtoms,    NIC,     NZ,  NCons,   NDum,   NFix, NCnnct, MaxDiis
       11      89       0       1       0       0       0       0

 Cartesian Hessian Update
 Hessian Updated using BFGS Update


** CONSTRAINED OPTIMIZATION IN DELOCALIZED INTERNAL COORDINATES **
   Searching for a Minimum

   Optimization Cycle:   2

                       Coordinates (Angstroms)
     ATOM                X               Y               Z
      1  Cl       -1.3676392828   -2.7740184842   -0.9831437822
      2  Cl        0.0855522380    2.4324168896    0.1356320781
      3  C        -0.5594825345    0.4441962945    1.9588357617
      4  C         0.2055065471    1.6391506709    1.7018422898
      5  C        -1.2377213280   -1.2078455060   -1.8756166846
      6  H        -1.6041030347    0.4923196447    2.2670060423
      7  H        -0.1502029364   -0.5450708695    1.7593994708
      8  H         0.6952007496    2.2514474454    2.4500420511
      9  H        -1.0130583105   -0.4183928654   -1.1594930189
     10  H        -2.1888847513   -1.0168306300   -2.3704833322
     11  H        -0.4372653566   -1.2973705899   -2.6086148757
   Point Group: c1    Number of degrees of freedom:    27


   Energy is  -1038.207321729

              Constraints and their Current Values
                                        Value     Constraint
   Distance(Angs):        1   4             5.400000     5.400000
 Hessian Updated using BFGS Update

 26 Hessian modes will be used to form the next step
  Hessian Eigenvalues:
     0.014778    0.015672    0.024279    0.045452    0.045524    0.046501
     0.047679    0.063333    0.075768    0.086574    0.088522    0.102922
     0.130490    0.153490    0.157655    0.159996    0.170226    0.256289
     0.281666    0.323368    0.342909    0.349100    0.349180    0.353674
     0.355550    0.405112

 Minimum Search - Taking Simple RFO Step
 Searching for Lamda that Minimizes Along All modes
 Value Taken    Lamda =   0.00000000
 Step Taken.  Stepsize is  0.004306

                             Maximum     Tolerance    Cnvgd?
         Gradient           0.000038      0.000300     YES
         Displacement       0.002062      0.001200      NO
         Energy change     -0.000000      0.000001     YES


                       Distance Matrix (Angstroms)
             Cl(  1)   Cl(  2)   C (  3)   C (  4)   C (  5)   H (  6)
   Cl(  2)  5.519999
   C (  3)  4.434554  2.773655
   C (  4)  5.400000  1.759737  1.441933
   C (  5)  1.807286  4.364365  4.229926  4.794425
   H (  6)  4.613930  3.340908  1.090191  2.215698  4.492897
   H (  7)  3.737901  3.399652  1.089006  2.213745  3.851663  1.856790
   H (  8)  6.426304  2.400191  2.254256  1.083748  5.866363  2.900833
   H (  9)  2.388681  3.318345  3.267073  3.729025  1.089285  3.594388
   H ( 10)  2.384715  4.832286  4.851036  5.419519  1.089078  4.911803
   H ( 11)  2.385003  4.659994  4.889744  5.255126  1.089050  5.323174
             H (  7)   H (  8)   H (  9)   H ( 10)
   H (  8)  3.002034
   H (  9)  3.046391  4.803638
   H ( 10)  4.629764  6.499004  1.790864
   H ( 11)  4.441611  6.282245  1.789998  1.789855
 
 Final energy is   -1038.20732172898     


 ******************************
 **  OPTIMIZATION CONVERGED  **
 ******************************

                       Coordinates (Angstroms)
     ATOM                X               Y               Z
      1  Cl       -1.3676392828   -2.7740184842   -0.9831437822
      2  Cl        0.0855522380    2.4324168896    0.1356320781
      3  C        -0.5594825345    0.4441962945    1.9588357617
      4  C         0.2055065471    1.6391506709    1.7018422898
      5  C        -1.2377213280   -1.2078455060   -1.8756166846
      6  H        -1.6041030347    0.4923196447    2.2670060423
      7  H        -0.1502029364   -0.5450708695    1.7593994708
      8  H         0.6952007496    2.2514474454    2.4500420511
      9  H        -1.0130583105   -0.4183928654   -1.1594930189
     10  H        -2.1888847513   -1.0168306300   -2.3704833322
     11  H        -0.4372653566   -1.2973705899   -2.6086148757

Z-matrix Print:
$molecule
0 3
Cl
C  1 1.759737
H  2 1.083748 1 112.990096
C  2 1.441933 1 119.738247 3 166.929086 0
H  4 1.089006 2 121.385181 1 91.066146 0
H  4 1.090191 2 121.476805 1 -82.813882 0
H  5 3.046391 4 91.790655 2 -85.210992 0
C  7 1.089285 5 131.162050 4 -154.767239 0
H  8 1.089050 7 110.516195 5 -106.699775 0
H  8 1.089078 7 110.594021 5 130.588765 0
Cl 8 1.807286 7 108.555997 5 11.935363 0
$end

PES scan, value:    5.4000 energy: -1038.2073217290
------- Summary of potential scan: ------ 
    5.4000     -1038.2073217290
----------------------------------------- 
Archival summary:
1\1\hpc0332\JobtypUnspecified\ProcedureUnspecified\6-31G**\l236(3)\knomura\MonMar1122:17:532019MonMar1122:17:532019\0\\#,JobtypUnspecified,ProcedureUnspecified,6-31G**,\\0,3\Cl\C,1,1.75974\H,2,1.08375,1,112.99\C,2,1.44193,1,119.738,3,166.929,0\H,4,1.08901,2,121.385,1,91.0661,0\H,4,1.09019,2,121.477,1,-82.8139,0\H,5,3.04639,4,91.7907,2,-85.211,0\C,7,1.08929,5,131.162,4,-154.767,0\H,8,1.08905,7,110.516,5,-106.7,0\H,8,1.08908,7,110.594,5,130.589,0\Cl,8,1.80729,7,108.556,5,11.9354,0\\\@

 Total job time:  6.98s(wall), 75.09s(cpu) 
 Mon Mar 11 22:17:53 2019

        *************************************************************
        *                                                           *
        *  Thank you very much for using Q-Chem.  Have a nice day.  *
        *                                                           *
        *************************************************************


