
Running Job 1 of 1 ruruma/CH3CH2CHCl2_afterGeo_siglet.xyz.data/inputs/bond_triplet_4.4.in
qchem ruruma/CH3CH2CHCl2_afterGeo_siglet.xyz.data/inputs/bond_triplet_4.4.in_18836.0 /staging/scratch/2858534/qchem18836/ 1
/usr/usc/qchem/5.1.1/exe/qcprog.exe_s ruruma/CH3CH2CHCl2_afterGeo_siglet.xyz.data/inputs/bond_triplet_4.4.in_18836.0 /staging/scratch/2858534/qchem18836/
Check license passed

                  Welcome to Q-Chem
     A Quantum Leap Into The Future Of Chemistry


 Q-Chem 5.1, Q-Chem, Inc., Pleasanton, CA (2018)

 Yihan Shao,  Zhengting Gan,  E. Epifanovsky,  A. T. B. Gilbert,  M. Wormit,  
 J. Kussmann,  A. W. Lange,  A. Behn,  Jia Deng,  Xintian Feng,  D. Ghosh,  
 M. Goldey,  P. R. Horn,  L. D. Jacobson,  I. Kaliman,  T. Kus,  A. Landau,  
 Jie Liu,  E. I. Proynov,  R. M. Richard,  R. P. Steele,  E. J. Sundstrom,  
 H. L. Woodcock III,  P. M. Zimmerman,  D. Zuev,  B. Albrecht,  E. Alguire,  
 S. A. Baeppler,  D. Barton,  Z. Benda,  Y. A. Bernard,  E. J. Berquist,  
 K. B. Bravaya,  H. Burton,  D. Casanova,  Chun-Min Chang,  Yunqing Chen,  
 A. Chien,  K. D. Closser,  M. P. Coons,  S. Coriani,  S. Dasgupta,  
 A. L. Dempwolff,  M. Diedenhofen,  Hainam Do,  R. G. Edgar,  Po-Tung Fang,  
 S. Faraji,  S. Fatehi,  Qingguo Feng,  K. D. Fenk,  J. Fosso-Tande,  
 Qinghui Ge,  A. Ghysels,  G. Gidofalvi,  J. Gomes,  J. Gonthier,  A. Gunina,  
 D. Hait,  M. W. D. Hanson-Heine,  P. H. P. Harbach,  A. W. Hauser,  
 J. E. Herr,  E. G. Hohenstein,  Z. C. Holden,  Kerwin Hui,  B. C. Huynh,  
 T.-C. Jagau,  Hyunjun Ji,  B. Kaduk,  K. Khistyaev,  Jaehoon Kim,  
 P. Klunzinger,  K. Koh,  D. Kosenkov,  L. Koulias,  T. Kowalczyk,  
 C. M. Krauter,  A. Kunitsa,  Ka Un Lao,  A. Laurent,  K. V. Lawler,  
 Joonho Lee,  D. Lefrancois,  S. Lehtola,  D. S. Levine,  Yi-Pei Li,  
 You-Sheng Lin,  Fenglai Liu,  E. Livshits,  A. Luenser,  P. Manohar,  
 E. Mansoor,  S. F. Manzer,  Shan-Ping Mao,  Yuezhi Mao,  N. Mardirossian,  
 A. V. Marenich,  T. Markovich,  L. A. Martinez-Martinez,  S. A. Maurer,  
 N. J. Mayhall,  S. C. McKenzie,  J.-M. Mewes,  A. F. Morrison,  
 J. W. Mullinax,  K. Nanda,  T. S. Nguyen-Beck,  R. Olivares-Amaya,  
 J. A. Parkhill,  T. M. Perrine,  F. Plasser,  P. Pokhilko,  S. Prager,  
 A. Prociuk,  E. Ramos,  D. R. Rehn,  F. Rob,  M. Schneider,  N. Sergueev,  
 S. M. Sharada,  S. Sharma,  D. W. Small,  T. Stauch,  T. Stein,  
 Yu-Chuan Su,  A. J. W. Thom,  A. Tkatchenko,  T. Tsuchimochi,  N. M. Tubman,  
 L. Vogt,  M. L. Vidal,  O. Vydrov,  M. A. Watson,  J. Wenzel,  
 M. de Wergifosse,  T. A. Wesolowski,  A. White,  J. Witte,  A. Yamada,  
 Jun Yang,  K. Yao,  S. Yeganeh,  S. R. Yost,  Zhi-Qiang You,  A. Zech,  
 Igor Ying Zhang,  Xing Zhang,  Yan Zhao,  Ying Zhu,  B. R. Brooks,  
 G. K. L. Chan,  C. J. Cramer,  M. S. Gordon,  W. J. Hehre,  A. Klamt,  
 M. W. Schmidt,  C. D. Sherrill,  D. G. Truhlar,  A. Aspuru-Guzik,  R. Baer,  
 A. T. Bell,  N. A. Besley,  Jeng-Da Chai,  A. E. DePrince, III,  
 R. A. DiStasio Jr.,  A. Dreuw,  B. D. Dunietz,  T. R. Furlani,  
 Chao-Ping Hsu,  Yousung Jung,  Jing Kong,  D. S. Lambrecht,  WanZhen Liang,  
 C. Ochsenfeld,  V. A. Rassolov,  L. V. Slipchenko,  J. E. Subotnik,  
 T. Van Voorhis,  J. M. Herbert,  A. I. Krylov,  P. M. W. Gill,  M. Head-Gordon

 Contributors to earlier versions of Q-Chem not listed above: 
 R. D. Adamson,  B. Austin,  J. Baker,  G. J. O. Beran,  K. Brandhorst,  
 S. T. Brown,  E. F. C. Byrd,  A. K. Chakraborty,  C.-L. Cheng,  
 Siu Hung Chien,  D. M. Chipman,  D. L. Crittenden,  H. Dachsel,  
 R. J. Doerksen,  A. D. Dutoi,  L. Fusti-Molnar,  W. A. Goddard III,  
 A. Golubeva-Zadorozhnaya,  S. R. Gwaltney,  G. Hawkins,  A. Heyden,  
 S. Hirata,  G. Kedziora,  F. J. Keil,  C. Kelley,  Jihan Kim,  R. A. King,  
 R. Z. Khaliullin,  P. P. Korambath,  W. Kurlancheek,  A. M. Lee,  M. S. Lee,  
 S. V. Levchenko,  Ching Yeh Lin,  D. Liotard,  R. C. Lochan,  I. Lotan,  
 P. E. Maslen,  N. Nair,  D. P. O'Neill,  D. Neuhauser,  E. Neuscamman,  
 C. M. Oana,  R. Olson,  B. Peters,  R. Peverati,  P. A. Pieniazek,  
 Y. M. Rhee,  J. Ritchie,  M. A. Rohrdanz,  E. Rosta,  N. J. Russ,  
 H. F. Schaefer III,  N. E. Schultz,  N. Shenvi,  A. C. Simmonett,  A. Sodt,  
 D. Stuck,  K. S. Thanthiriwatte,  V. Vanovschi,  Tao Wang,  A. Warshel,  
 C. F. Williams,  Q. Wu,  X. Xu,  W. Zhang

 Please cite Q-Chem as follows:
 Y. Shao et al., Mol. Phys. 113, 184-215 (2015)
 DOI: 10.1080/00268976.2014.952696

 Q-Chem 5.1.1 for Intel X86 EM64T Linux

 Parts of Q-Chem use Armadillo 8.300.2 (Tropical Shenanigans).
 http://arma.sourceforge.net/

 Q-Chem begins on Mon Mar 11 22:25:37 2019  

Host: 
0

     Scratch files written to /staging/scratch/2858534/qchem18836//
 Aug318 |scratch|qcdevops|jenkins|workspace|build_RNUM 6013   
Processing $rem in /usr/usc/qchem/5.1.1/config/preferences.
 MEM_TOTAL  2000 
Input Ideriv = 2
Curr. Ideriv = -1
Max.  Ideriv = 2

Checking the input file for inconsistencies... 	...done.

--------------------------------------------------------------
User input:
--------------------------------------------------------------

$comment
potential surface scanner
$end

$rem
JOBTYPE  PES_SCAN
UNRESTRICTED TRUE
SYM_IGNORE  TRUE
GEOM_OPT_MAX_CYCLES 400
SCF_MAX_CYCLES 400
METHOD   B3LYP
BASIS   6-31G**
PDB_PRINT 2
SCF_CONVERGENCE 6
THRESH 14
SCF_PRINT 1
$end
$molecule
0 3
Cl -0.972239 -2.407608 -0.612301
Cl -0.228274 2.367982 0.100031
C -0.742333 0.407904 1.999811
C 0.191924 1.387636 1.506860
C -1.120162 -1.091356 -1.842970
H -1.575290 0.691654 2.643919
H -0.711521 -0.621559 1.647936
H 1.028210 1.797634 2.061745
H -1.046733 -0.132404 -1.332343
H -2.085802 -1.194115 -2.335752
H -0.309882 -1.205764 -2.561530
$end
$scan
stre 1 4 4.400000 4.401000 0.100000
$end
--------------------------------------------------------------
 ----------------------------------------------------------------
             Standard Nuclear Orientation (Angstroms)
    I     Atom           X                Y                Z
 ----------------------------------------------------------------
    1      Cl     -0.9722390000    -2.4076080000    -0.6123010000
    2      Cl     -0.2282740000     2.3679820000     0.1000310000
    3      C      -0.7423330000     0.4079040000     1.9998110000
    4      C       0.1919240000     1.3876360000     1.5068600000
    5      C      -1.1201620000    -1.0913560000    -1.8429700000
    6      H      -1.5752900000     0.6916540000     2.6439190000
    7      H      -0.7115210000    -0.6215590000     1.6479360000
    8      H       1.0282100000     1.7976340000     2.0617450000
    9      H      -1.0467330000    -0.1324040000    -1.3323430000
   10      H      -2.0858020000    -1.1941150000    -2.3357520000
   11      H      -0.3098820000    -1.2057640000    -2.5615300000
 ----------------------------------------------------------------
 Nuclear Repulsion Energy =   237.7067791159 hartrees
 There are       30 alpha and       28 beta electrons
 Requested basis set is 6-31G(d,p)
 There are 40 shells and 113 basis functions

 Total QAlloc Memory Limit   2000 MB
 Mega-Array Size       188 MB
 MEM_STATIC part       192 MB
A total of 1 constraints
  
            1
    1   1.0100000
    2   1.0100000
    3   4.0100000
    4   4.4000000
    5   4.4010000
    6   0.1000000
    7   0.0000000
    8   0.0000000
    9   0.0000000
   10   0.0000000

                       Distance Matrix (Angstroms)
             Cl(  1)   Cl(  2)   C (  3)   C (  4)   C (  5)   H (  6)
   Cl(  2)  4.885403
   C (  3)  3.847479  2.777648
   C (  4)  4.500000  1.765450  1.440733
   C (  5)  1.808023  4.066662  4.142161  4.369020
   H (  6)  4.535644  3.331050  1.090507  2.213671  4.849581
   H (  7)  2.892510  3.401014  1.088375  2.207483  3.546001  1.860808
   H (  8)  5.369951  2.398410  2.251668  1.084145  5.311174  2.887963
   H (  9)  2.387585  2.995580  3.389372  3.450488  1.088908  4.095010
   H ( 10)  2.383877  4.698083  4.813365  5.159374  1.088969  5.349193
   H ( 11)  2.383829  4.456706  4.857651  4.850704  1.089023  5.683146
             H (  7)   H (  8)   H (  9)   H ( 10)
   H (  8)  3.008388
   H (  9)  3.038701  4.421569
   H ( 10)  4.252792  6.163247  1.792686
   H ( 11)  4.268748  5.673232  1.790517  1.790252
 
 A cutoff of  1.0D-14 yielded    717 shell pairs
 There are      5940 function pairs
 
 -------------------------------------------------------
 OpenMP Integral Computing Module                       
 Release: version 1.0, May 2013, Q-Chem Inc. Pittsburgh 
 -------------------------------------------------------
 Integral Job Info:
 Integral job number is                      11
 Integral operator is                         1
 short-range coefficients                     0
 long-range coefficients              100000000
 Omega coefficients                           0
 if combine SR and LR in K                    0
 Integral screening is                        0
 Integral computing path is                   2
 max size of driver memory is            800000
 size of driver memory is                593474
 size of scratch memory is             15267112
 max col of scratch BK array               1296
 max len of scratch array in speh3          155
 max len of scratch index in speh4           18
 max int batch size is                      520
 min int batch size is                       52
 fixed nKL is                                52
 max L of basis functions is                  2
 order of int derivative is                   0
 number of shells is                         40
 number of basis is                         113
 number of cartesian basis is               113
 number of contracted shell pairs           717
 number of primitive shell pairs           2785
 maxK2 (contraction) of shell pair           36
 max number of K2 of shell pair               1
 max number of CS2 of shell pair             61
 max number of PS2 of shell pair            300
 mem total for path MDJ                  514728
 -------------------------------------------------------
 Smallest overlap matrix eigenvalue = 9.00E-03

 Scale SEOQF with 1.000000e-01/1.000000e-01/1.000000e-01

 Standard Electronic Orientation quadrupole field applied
 Nucleus-field energy     =     0.0000000072 hartrees
 Guess from superposition of atomic densities
 Warning:  Energy on first SCF cycle will be non-variational
 SAD guess density has 58.000000 electrons

 -----------------------------------------------------------------------
  General SCF calculation program by
  Eric Jon Sundstrom, Paul Horn, Yuezhi Mao, Dmitri Zuev, Alec White,
  David Stuck, Shaama M.S., Shane Yost, Joonho Lee, David Small,
  Daniel Levine, Susi Lehtola, Hugh Burton, Evgeny Epifanovsky
 -----------------------------------------------------------------------
 Exchange:     0.2000 Hartree-Fock + 0.0800 Slater + 0.7200 B88
 Correlation:  0.1900 VWN1RPA + 0.8100 LYP
 Using SG-1 standard quadrature grid
 using 12 threads for integral computing
 -------------------------------------------------------
 OpenMP Integral computing Module                
 Release: version 1.0, May 2013, Q-Chem Inc. Pittsburgh 
 -------------------------------------------------------
 -------------------------------------------------------
 OpenMP BLAS3 based DFT computing Module                
 Release: version 1.0, May 2013, Q-Chem Inc. Pittsburgh 
 -------------------------------------------------------
 A unrestricted SCF calculation will be
 performed using DIIS
 SCF converges when DIIS error is below 1.0e-06
 Alpha HF Exchange    Energy =  -7.25919382220115
 Beta HF Exchange     Energy =  -7.25919382220115
 DFT Correlation      Energy =  -2.75146747667485
 DFT Exchange         Energy = -57.31403951137212
 One-Electron (alpha) Energy = -948.81528740786950
 One-Electron (beta)  Energy = -948.81528740786950
 Total Coulomb        Energy = 695.93457146836067
 ---------------------------------------
  Cycle       Energy         DIIS error
 ---------------------------------------
    1   -1038.5731188567      2.64e-02  
 Alpha HF Exchange    Energy =  -7.38405005623626
 Beta HF Exchange     Energy =  -7.18956723874722
 DFT Correlation      Energy =  -2.76616715114056
 DFT Exchange         Energy = -57.82794590893768
 One-Electron (alpha) Energy = -965.59844978763181
 One-Electron (beta)  Energy = -937.77017113722150
 Total Coulomb        Energy = 702.66689909353772
    2   -1038.1626730632      2.42e-03  
 Alpha HF Exchange    Energy =  -7.34339716825788
 Beta HF Exchange     Energy =  -7.16109171856645
 DFT Correlation      Energy =  -2.74721711832077
 DFT Exchange         Energy = -57.52087379352571
 One-Electron (alpha) Energy = -963.45617155442108
 One-Electron (beta)  Energy = -935.90365471244468
 Total Coulomb        Energy = 698.25927772389741
    3   -1038.1663492185      2.42e-03  
 Alpha HF Exchange    Energy =  -7.36043156039790
 Beta HF Exchange     Energy =  -7.17066475620689
 DFT Correlation      Energy =  -2.75490437321543
 DFT Exchange         Energy = -57.63825354363364
 One-Electron (alpha) Energy = -964.28215580154188
 One-Electron (beta)  Energy = -936.49355180133193
 Total Coulomb        Energy = 699.78690373405504
    4   -1038.2062789791      4.29e-04  
 Alpha HF Exchange    Energy =  -7.36339546621616
 Beta HF Exchange     Energy =  -7.17443494399476
 DFT Correlation      Energy =  -2.75496210448483
 DFT Exchange         Energy = -57.66194678694194
 One-Electron (alpha) Energy = -964.47783867752128
 One-Electron (beta)  Energy = -936.70169134821583
 Total Coulomb        Energy = 700.21996768946633
    5   -1038.2075225148      1.57e-04  
 Alpha HF Exchange    Energy =  -7.36267607434186
 Beta HF Exchange     Energy =  -7.17341224813747
 DFT Correlation      Energy =  -2.75464592502548
 DFT Exchange         Energy = -57.65501151295433
 One-Electron (alpha) Energy = -964.41631293880391
 One-Electron (beta)  Energy = -936.62228408288399
 Total Coulomb        Energy = 700.06986452034596
    6   -1038.2076991387      4.93e-05  
 Alpha HF Exchange    Energy =  -7.36267258558998
 Beta HF Exchange     Energy =  -7.17347033100845
 DFT Correlation      Energy =  -2.75457222465983
 DFT Exchange         Energy = -57.65494176391132
 One-Electron (alpha) Energy = -964.41420213654555
 One-Electron (beta)  Energy = -936.62041543208932
 Total Coulomb        Energy = 700.06577807973156
    7   -1038.2077172709      1.69e-05  
 Alpha HF Exchange    Energy =  -7.36278445620397
 Beta HF Exchange     Energy =  -7.17353246267777
 DFT Correlation      Energy =  -2.75457467526746
 DFT Exchange         Energy = -57.65558827974630
 One-Electron (alpha) Energy = -964.42232525243401
 One-Electron (beta)  Energy = -936.62523661004900
 Total Coulomb        Energy = 700.07954301905966
    8   -1038.2077195942      7.33e-06  
 Alpha HF Exchange    Energy =  -7.36275756764288
 Beta HF Exchange     Energy =  -7.17351636319268
 DFT Correlation      Energy =  -2.75455771662661
 DFT Exchange         Energy = -57.65540209605837
 One-Electron (alpha) Energy = -964.41991099438212
 One-Electron (beta)  Energy = -936.62262356018300
 Total Coulomb        Energy = 700.07426913927475
    9   -1038.2077200357      2.51e-06  
 Alpha HF Exchange    Energy =  -7.36275466332424
 Beta HF Exchange     Energy =  -7.17350585466314
 DFT Correlation      Energy =  -2.75455326835422
 DFT Exchange         Energy = -57.65534572833184
 One-Electron (alpha) Energy = -964.41934943896047
 One-Electron (beta)  Energy = -936.62170081004786
 Total Coulomb        Energy = 700.07271055400599
   10   -1038.2077200865      9.15e-07  Convergence criterion met
 ---------------------------------------
 SCF time:   CPU 24.23s  wall 2.00s 
<S^2> =          2.004307688
 Alpha HF Exchange    Energy =  -7.36275466332424
 Beta HF Exchange     Energy =  -7.17350585466314
 DFT Correlation      Energy =  -2.75455326835422
 DFT Exchange         Energy = -57.65534572833184
 One-Electron (alpha) Energy = -964.41934943896047
 One-Electron (beta)  Energy = -936.62170081004786
 Total Coulomb        Energy = 700.07271055400599
 Nuclear repulsion Energy = 237.70677912314426
 SCF   energy in the final basis set =    -1038.2077200865
 Total energy in the final basis set =    -1038.2077200865
 
 --------------------------------------------------------------
 
                    Orbital Energies (a.u.)
 --------------------------------------------------------------
 
 Alpha MOs
 -- Occupied --
*******-101.537 -10.256 -10.243 -10.220  -9.471  -9.453  -7.235
 -7.227  -7.225  -7.218  -7.208  -7.207  -0.873  -0.848  -0.751
 -0.679  -0.604  -0.467  -0.457  -0.449  -0.446  -0.440  -0.411
 -0.357  -0.317  -0.298  -0.298  -0.238  -0.209
 -- Virtual --
  0.024   0.034   0.103   0.123   0.145   0.147   0.150   0.188
  0.258   0.385   0.413   0.420   0.437   0.441   0.454   0.462
  0.492   0.507   0.528   0.542   0.555   0.559   0.574   0.603
  0.643   0.678   0.791   0.826   0.830   0.835   0.845   0.855
  0.867   0.887   0.892   0.907   0.912   0.913   0.954   1.014
  1.019   1.052   1.097   1.106   1.267   1.396   1.452   1.460
  1.565   1.702   1.730   1.813   1.883   1.979   2.010   2.027
  2.028   2.039   2.047   2.172   2.326   2.337   2.372   2.389
  2.444   2.502   2.579   2.616   2.654   2.795   2.799   2.881
  3.164   3.256   3.346   3.387   3.403   3.443   4.090   4.220
  4.296   4.364   4.407
 
 Beta MOs
 -- Occupied --
*******-101.537 -10.243 -10.243 -10.207  -9.470  -9.453  -7.233
 -7.224  -7.224  -7.218  -7.208  -7.207  -0.856  -0.848  -0.711
 -0.679  -0.572  -0.451  -0.449  -0.446  -0.429  -0.423  -0.411
 -0.335  -0.312  -0.298  -0.298
 -- Virtual --
 -0.086  -0.065   0.024   0.060   0.107   0.134   0.145   0.157
  0.161   0.199   0.276   0.390   0.414   0.430   0.440   0.446
  0.456   0.469   0.503   0.512   0.530   0.557   0.568   0.604
  0.611   0.626   0.666   0.694   0.806   0.826   0.836   0.841
  0.858   0.863   0.871   0.892   0.899   0.912   0.913   0.924
  0.957   1.030   1.040   1.063   1.106   1.118   1.269   1.441
  1.452   1.463   1.608   1.745   1.769   1.842   1.934   1.992
  2.010   2.027   2.030   2.039   2.107   2.187   2.326   2.337
  2.393   2.410   2.471   2.532   2.580   2.644   2.671   2.795
  2.799   2.893   3.164   3.268   3.360   3.387   3.403   3.458
  4.115   4.220   4.311   4.394   4.409
 --------------------------------------------------------------
 
          Ground-State Mulliken Net Atomic Charges

     Atom                 Charge (a.u.)    Spin (a.u.)
  --------------------------------------------------------
      1 Cl                   -0.102906       0.000762
      2 Cl                   -0.035371       0.137506
      3 C                    -0.205897       0.969516
      4 C                    -0.208009       0.906971
      5 C                    -0.404779       0.000720
      6 H                     0.131312       0.007998
      7 H                     0.158104      -0.006474
      8 H                     0.160624      -0.017397
      9 H                     0.179344       0.000341
     10 H                     0.163057       0.000004
     11 H                     0.164521       0.000053
  --------------------------------------------------------
  Sum of atomic charges =    -0.000000
  Sum of spin   charges =     2.000000

 -----------------------------------------------------------------
                    Cartesian Multipole Moments
 -----------------------------------------------------------------
    Charge (ESU x 10^10)
                -0.0000
    Dipole Moment (Debye)
         X      -0.1582      Y       0.6322      Z      -0.0196
       Tot       0.6520
    Quadrupole Moments (Debye-Ang)
        XX     -43.8485     XY      -0.2859     YY     -52.0107
        XZ       1.4719     YZ       1.5621     ZZ     -37.7740
    Octopole Moments (Debye-Ang^2)
       XXX      79.7821    XXY      -0.2562    XYY      33.9923
       YYY      -2.0590    XXZ      -2.8578    XYZ       1.3407
       YYZ       2.4988    XZZ      20.9779    YZZ      -1.6106
       ZZZ     -12.3117
    Hexadecapole Moments (Debye-Ang^3)
      XXXX    -215.2263   XXXY     -95.4935   XXYY    -216.3187
      XYYY    -105.5025   YYYY   -1088.7353   XXXZ     -35.8497
      XXYZ     -46.7964   XYYZ     -11.4622   YYYZ    -186.5645
      XXZZ     -99.5927   XYZZ     -25.4908   YYZZ    -244.1380
      XZZZ     -38.3645   YZZZ    -142.6398   ZZZZ    -465.9987
 -----------------------------------------------------------------
 Calculating analytic gradient of the SCF energy
 Gradient of SCF Energy
            1           2           3           4           5           6
    1   0.0000970  -0.0000001  -0.0000192  -0.0002661  -0.0000267  -0.0000250
    2   0.0005488   0.0000131  -0.0000771  -0.0006180  -0.0000791  -0.0000170
    3   0.0002043  -0.0000086  -0.0001931  -0.0001784   0.0002393  -0.0000002
            7           8           9          10          11
    1   0.0001754  -0.0000216   0.0000532   0.0000248   0.0000083
    2   0.0001294   0.0000076   0.0000429   0.0000187   0.0000308
    3   0.0000900   0.0000091  -0.0000777  -0.0000558  -0.0000288
 Max gradient component =       6.180E-04
 RMS gradient           =       1.757E-04
 Gradient time:  CPU 8.23 s  wall 0.75 s
 Geometry Optimization Parameters
   NAtoms,    NIC,     NZ,  NCons,   NDum,   NFix, NCnnct, MaxDiis
       11      81       0       1       0       0       0       0


** CONSTRAINED OPTIMIZATION IN DELOCALIZED INTERNAL COORDINATES **
   Searching for a Minimum

   Optimization Cycle:   1

                       Coordinates (Angstroms)
     ATOM                X               Y               Z
      1  Cl       -0.9722390000   -2.4076080000   -0.6123010000
      2  Cl       -0.2282740000    2.3679820000    0.1000310000
      3  C        -0.7423330000    0.4079040000    1.9998110000
      4  C         0.1919240000    1.3876360000    1.5068600000
      5  C        -1.1201620000   -1.0913560000   -1.8429700000
      6  H        -1.5752900000    0.6916540000    2.6439190000
      7  H        -0.7115210000   -0.6215590000    1.6479360000
      8  H         1.0282100000    1.7976340000    2.0617450000
      9  H        -1.0467330000   -0.1324040000   -1.3323430000
     10  H        -2.0858020000   -1.1941150000   -2.3357520000
     11  H        -0.3098820000   -1.2057640000   -2.5615300000
   Point Group: c1    Number of degrees of freedom:    27


   Energy is  -1038.207720087

              Constraints and their Current Values
                                        Value     Constraint
   Distance(Angs):        1   4             4.500000     4.400000

 Attempting to Generate Delocalized Internal Coordinates

   Using Lagrange Multiplier Algorithm


 28 Hessian modes will be used to form the next step
  Hessian Eigenvalues:
    -0.997456    0.022218    0.027435    0.044965    0.045100    0.046195
     0.048956    0.060099    0.077860    0.097855    0.109197    0.117246
     0.124017    0.136187    0.153317    0.158632    0.161122    0.176655
     0.234467    0.278035    0.287029    0.331367    0.347541    0.349254
     0.349316    0.354981    0.367661    1.002551

 Minimum Search - Taking P-RFO Step
 Searching for Lamda that Maximizes Along the Constraint modes Only
 Value Taken    Lamda =   0.01775549
 Searching for Lamda that Minimizes Along All other modes
 Value Taken    Lamda =  -0.01734072
 Step Taken.  Stepsize is  0.185724

                             Maximum     Tolerance    Cnvgd?
         Gradient            0.188972       0.000300      NO
         Displacement        0.185712       0.001200      NO
         Energy change     *********       0.000001      NO


 New Cartesian Coordinates Obtained by Inverse Iteration

 Displacement from previous Coordinates is:  0.174033
 ----------------------------------------------------------------
             Standard Nuclear Orientation (Angstroms)
    I     Atom           X                Y                Z
 ----------------------------------------------------------------
    1      Cl     -0.9524010810    -2.3615836020    -0.5864588752
    2      Cl     -0.2319355184     2.3583066782     0.0899227182
    3      C      -0.7488503748     0.4021536430     1.9994492603
    4      C       0.1770580439     1.3547789016     1.4843266029
    5      C      -1.1164639134    -1.0800166677    -1.8374293899
    6      H      -1.5742352578     0.6922579283     2.6504118861
    7      H      -0.7098521379    -0.6043215284     1.6583008766
    8      H       1.0191541091     1.7588724865     2.0347529470
    9      H      -1.0496550695    -0.1297924814    -1.3325675215
   10      H      -2.0801909645    -1.1958463323    -2.3310361395
   11      H      -0.3047298357    -1.1948050256    -2.5542663650
 ----------------------------------------------------------------
 Nuclear Repulsion Energy =   239.4176317942 hartrees
 There are       30 alpha and       28 beta electrons

                       Distance Matrix (Angstroms)
             Cl(  1)   Cl(  2)   C (  3)   C (  4)   C (  5)   H (  6)
   Cl(  2)  4.822233
   C (  3)  3.790329  2.782090
   C (  4)  4.401725  1.765986  1.424834
   C (  5)  1.798404  4.039696  4.129601  4.316884
   H (  6)  4.493324  3.336704  1.090492  2.205837  4.846775
   H (  7)  2.861074  3.386057  1.063436  2.157534  3.551302  1.847312
   H (  8)  5.266492  2.388914  2.228850  1.084152  5.254898  2.870953
   H (  9)  2.355213  2.980399  3.387593  3.412282  1.078089  4.100619
   H ( 10)  2.382101  4.680715  4.804079  5.114475  1.088960  5.351238
   H ( 11)  2.377628  4.429632  4.846013  4.800284  1.089010  5.679905
             H (  7)   H (  8)   H (  9)   H ( 10)
   H (  8)  2.952264
   H (  9)  3.047284  4.380168
   H ( 10)  4.259406  6.115261  1.787572
   H ( 11)  4.272999  5.615690  1.783736  1.789440
 
 Applying Cartesian multipole field
    Component          Value
    ---------          -----
     (2,0,0)        1.00000E-11
     (0,2,0)        2.00000E-11
     (0,0,2)       -3.00000E-11
 Nucleus-field energy     =     0.0000000069 hartrees
 Requested basis set is 6-31G(d,p)
 There are 40 shells and 113 basis functions
 A cutoff of  1.0D-14 yielded    723 shell pairs
 There are      5989 function pairs
 Smallest overlap matrix eigenvalue = 8.54E-03
 Guess from superposition of atomic densities
 Warning:  Energy on first SCF cycle will be non-variational
 SAD guess density has 58.000000 electrons

 -----------------------------------------------------------------------
  General SCF calculation program by
  Eric Jon Sundstrom, Paul Horn, Yuezhi Mao, Dmitri Zuev, Alec White,
  David Stuck, Shaama M.S., Shane Yost, Joonho Lee, David Small,
  Daniel Levine, Susi Lehtola, Hugh Burton, Evgeny Epifanovsky
 -----------------------------------------------------------------------
 Exchange:     0.2000 Hartree-Fock + 0.0800 Slater + 0.7200 B88
 Correlation:  0.1900 VWN1RPA + 0.8100 LYP
 Using SG-1 standard quadrature grid
 using 12 threads for integral computing
 -------------------------------------------------------
 OpenMP Integral computing Module                
 Release: version 1.0, May 2013, Q-Chem Inc. Pittsburgh 
 -------------------------------------------------------
 -------------------------------------------------------
 OpenMP BLAS3 based DFT computing Module                
 Release: version 1.0, May 2013, Q-Chem Inc. Pittsburgh 
 -------------------------------------------------------
 A unrestricted SCF calculation will be
 performed using DIIS
 SCF converges when DIIS error is below 1.0e-06
 Alpha HF Exchange    Energy =  -7.26414183946999
 Beta HF Exchange     Energy =  -7.26414183946999
 DFT Correlation      Energy =  -2.75272036307022
 DFT Exchange         Energy = -57.32443464196818
 One-Electron (alpha) Energy = -950.49461215970143
 One-Electron (beta)  Energy = -950.49461215970143
 Total Coulomb        Energy = 697.56283360666146
 ---------------------------------------
  Cycle       Energy         DIIS error
 ---------------------------------------
    1   -1038.6141975956      2.68e-02  
 Alpha HF Exchange    Energy =  -7.38749826277423
 Beta HF Exchange     Energy =  -7.19219809739793
 DFT Correlation      Energy =  -2.76787387471331
 DFT Exchange         Energy = -57.85057886663476
 One-Electron (alpha) Energy = -967.39630672957617
 One-Electron (beta)  Energy = -939.42463781084791
 Total Coulomb        Energy = 704.44233745364204
    2   -1038.1591243871      2.50e-03  
 Alpha HF Exchange    Energy =  -7.34574498098346
 Beta HF Exchange     Energy =  -7.16326715497524
 DFT Correlation      Energy =  -2.74852754644930
 DFT Exchange         Energy = -57.53684341840415
 One-Electron (alpha) Energy = -965.20170447343503
 One-Electron (beta)  Energy = -937.52465893011049
 Total Coulomb        Energy = 699.94080909238835
    3   -1038.1623056108      2.51e-03  
 Alpha HF Exchange    Energy =  -7.36305017811105
 Beta HF Exchange     Energy =  -7.17288438224490
 DFT Correlation      Energy =  -2.75636453141032
 DFT Exchange         Energy = -57.65565612152508
 One-Electron (alpha) Energy = -966.03991017565409
 One-Electron (beta)  Energy = -938.12212791046193
 Total Coulomb        Energy = 701.48714309539741
    4   -1038.2052184028      4.35e-04  
 Alpha HF Exchange    Energy =  -7.36610000926355
 Beta HF Exchange     Energy =  -7.17676224943120
 DFT Correlation      Energy =  -2.75645141472303
 DFT Exchange         Energy = -57.68012793516860
 One-Electron (alpha) Energy = -966.24044849475979
 One-Electron (beta)  Energy = -938.33526787947585
 Total Coulomb        Energy = 701.93102665978540
    5   -1038.2064995219      1.59e-04  
 Alpha HF Exchange    Energy =  -7.36540107938135
 Beta HF Exchange     Energy =  -7.17576624514512
 DFT Correlation      Energy =  -2.75614194647944
 DFT Exchange         Energy = -57.67336810832940
 One-Electron (alpha) Energy = -966.18084513687779
 One-Electron (beta)  Energy = -938.25810584647286
 Total Coulomb        Energy = 701.78531870865459
    6   -1038.2066778529      5.02e-05  
 Alpha HF Exchange    Energy =  -7.36537698388432
 Beta HF Exchange     Energy =  -7.17581561011183
 DFT Correlation      Energy =  -2.75606455306020
 DFT Exchange         Energy = -57.67318330039869
 One-Electron (alpha) Energy = -966.17717123365253
 One-Electron (beta)  Energy = -938.25515320900547
 Total Coulomb        Energy = 701.77843655997333
    7   -1038.2066965290      1.71e-05  
 Alpha HF Exchange    Energy =  -7.36548782345876
 Beta HF Exchange     Energy =  -7.17587842488996
 DFT Correlation      Energy =  -2.75606705334930
 DFT Exchange         Energy = -57.67382613125368
 One-Electron (alpha) Energy = -966.18528338904275
 One-Electron (beta)  Energy = -938.26006369352842
 Total Coulomb        Energy = 701.79227583137867
    8   -1038.2066988830      7.33e-06  
 Alpha HF Exchange    Energy =  -7.36546336419395
 Beta HF Exchange     Energy =  -7.17586520191603
 DFT Correlation      Energy =  -2.75605112394470
 DFT Exchange         Energy = -57.67366175106775
 One-Electron (alpha) Energy = -966.18309197753558
 One-Electron (beta)  Energy = -938.25766439539120
 Total Coulomb        Energy = 701.78746668579060
    9   -1038.2066993271      2.44e-06  
 Alpha HF Exchange    Energy =  -7.36545904265042
 Beta HF Exchange     Energy =  -7.17585431572560
 DFT Correlation      Energy =  -2.75604630891468
 DFT Exchange         Energy = -57.67359780186847
 One-Electron (alpha) Energy = -966.18243190204146
 One-Electron (beta)  Energy = -938.25668467001469
 Total Coulomb        Energy = 701.78574286428318
   10   -1038.2066993758      8.93e-07  Convergence criterion met
 ---------------------------------------
 SCF time:   CPU 23.85s  wall 2.00s 
<S^2> =          2.004138894
 Alpha HF Exchange    Energy =  -7.36545904265042
 Beta HF Exchange     Energy =  -7.17585431572560
 DFT Correlation      Energy =  -2.75604630891468
 DFT Exchange         Energy = -57.67359780186847
 One-Electron (alpha) Energy = -966.18243190204146
 One-Electron (beta)  Energy = -938.25668467001469
 Total Coulomb        Energy = 701.78574286428318
 Nuclear repulsion Energy = 239.41763180116058
 SCF   energy in the final basis set =    -1038.2066993758
 Total energy in the final basis set =    -1038.2066993758
 
 --------------------------------------------------------------
 
                    Orbital Energies (a.u.)
 --------------------------------------------------------------
 
 Alpha MOs
 -- Occupied --
*******-101.537 -10.254 -10.241 -10.216  -9.470  -9.453  -7.234
 -7.226  -7.224  -7.217  -7.207  -7.207  -0.873  -0.851  -0.755
 -0.679  -0.604  -0.468  -0.460  -0.450  -0.449  -0.441  -0.412
 -0.356  -0.316  -0.298  -0.298  -0.238  -0.209
 -- Virtual --
  0.028   0.036   0.105   0.125   0.145   0.147   0.152   0.193
  0.264   0.386   0.413   0.420   0.435   0.440   0.453   0.462
  0.491   0.508   0.529   0.545   0.556   0.559   0.579   0.609
  0.646   0.680   0.792   0.825   0.831   0.836   0.845   0.856
  0.870   0.888   0.891   0.908   0.909   0.914   0.959   1.020
  1.029   1.057   1.104   1.108   1.266   1.394   1.454   1.466
  1.564   1.706   1.740   1.829   1.895   1.977   2.010   2.025
  2.034   2.048   2.055   2.178   2.330   2.347   2.381   2.399
  2.453   2.523   2.580   2.637   2.672   2.803   2.807   2.897
  3.174   3.283   3.356   3.387   3.418   3.477   4.094   4.221
  4.297   4.364   4.412
 
 Beta MOs
 -- Occupied --
*******-101.537 -10.241 -10.241 -10.204  -9.469  -9.453  -7.232
 -7.223  -7.223  -7.217  -7.207  -7.207  -0.856  -0.851  -0.716
 -0.678  -0.572  -0.454  -0.450  -0.446  -0.433  -0.424  -0.412
 -0.334  -0.311  -0.298  -0.297
 -- Virtual --
 -0.087  -0.064   0.028   0.062   0.108   0.136   0.145   0.159
  0.162   0.204   0.281   0.391   0.416   0.428   0.439   0.445
  0.456   0.470   0.502   0.513   0.532   0.558   0.571   0.607
  0.615   0.632   0.668   0.695   0.807   0.826   0.837   0.844
  0.857   0.864   0.873   0.891   0.900   0.910   0.914   0.926
  0.962   1.039   1.047   1.069   1.112   1.119   1.267   1.438
  1.455   1.468   1.608   1.748   1.780   1.855   1.946   1.991
  2.010   2.025   2.037   2.049   2.113   2.193   2.330   2.347
  2.401   2.420   2.480   2.553   2.580   2.666   2.688   2.803
  2.807   2.908   3.174   3.295   3.370   3.387   3.419   3.493
  4.120   4.222   4.313   4.394   4.413
 --------------------------------------------------------------
 
          Ground-State Mulliken Net Atomic Charges

     Atom                 Charge (a.u.)    Spin (a.u.)
  --------------------------------------------------------
      1 Cl                   -0.101268       0.000877
      2 Cl                   -0.036657       0.140760
      3 C                    -0.203112       0.962846
      4 C                    -0.209300       0.903488
      5 C                    -0.406117       0.000674
      6 H                     0.130545       0.011432
      7 H                     0.159391      -0.006733
      8 H                     0.159706      -0.013712
      9 H                     0.180760       0.000318
     10 H                     0.162218       0.000003
     11 H                     0.163835       0.000047
  --------------------------------------------------------
  Sum of atomic charges =    -0.000000
  Sum of spin   charges =     2.000000

 -----------------------------------------------------------------
                    Cartesian Multipole Moments
 -----------------------------------------------------------------
    Charge (ESU x 10^10)
                 0.0000
    Dipole Moment (Debye)
         X      -0.1852      Y       0.5678      Z      -0.0142
       Tot       0.5974
    Quadrupole Moments (Debye-Ang)
        XX     -43.7984     XY      -0.2651     YY     -51.8974
        XZ       1.4341     YZ       1.6009     ZZ     -37.7070
    Octopole Moments (Debye-Ang^2)
       XXX      79.2742    XXY      -0.8021    XYY      33.5001
       YYY      -3.4626    XXZ      -3.0088    XYZ       0.9839
       YYZ       1.9298    XZZ      20.6764    YZZ      -2.2679
       ZZZ     -12.3379
    Hexadecapole Moments (Debye-Ang^3)
      XXXX    -211.9124   XXXY     -90.6507   XXYY    -211.3772
      XYYY    -100.6534   YYYY   -1062.9536   XXXZ     -33.6336
      XXYZ     -44.4952   XYYZ     -10.6517   YYYZ    -179.3516
      XXZZ     -98.1702   XYZZ     -24.2484   YYZZ    -238.8492
      XZZZ     -36.6973   YZZZ    -136.4610   ZZZZ    -459.4775
 -----------------------------------------------------------------
 Calculating analytic gradient of the SCF energy
 Gradient of SCF Energy
            1           2           3           4           5           6
    1   0.0000377   0.0010944   0.0066822  -0.0089152  -0.0000394  -0.0000275
    2   0.0048437   0.0003415  -0.0092792  -0.0097230   0.0036169   0.0002087
    3  -0.0018045   0.0007700  -0.0064449   0.0010048   0.0039533  -0.0002762
            7           8           9          10          11
    1   0.0016266  -0.0006362   0.0000114   0.0002082  -0.0000423
    2   0.0180182  -0.0003382  -0.0075603   0.0000380  -0.0001665
    3   0.0045065  -0.0000568  -0.0014938  -0.0002740   0.0001156
 Max gradient component =       1.802E-02
 RMS gradient           =       4.962E-03
 Gradient time:  CPU 8.43 s  wall 0.75 s
 Geometry Optimization Parameters
   NAtoms,    NIC,     NZ,  NCons,   NDum,   NFix, NCnnct, MaxDiis
       11      81       0       1       0       0       0       0

 Cartesian Hessian Update
 Hessian Updated using BFGS Update


** CONSTRAINED OPTIMIZATION IN DELOCALIZED INTERNAL COORDINATES **
   Searching for a Minimum

   Optimization Cycle:   2

                       Coordinates (Angstroms)
     ATOM                X               Y               Z
      1  Cl       -0.9524010810   -2.3615836020   -0.5864588752
      2  Cl       -0.2319355184    2.3583066782    0.0899227182
      3  C        -0.7488503748    0.4021536430    1.9994492603
      4  C         0.1770580439    1.3547789016    1.4843266029
      5  C        -1.1164639134   -1.0800166677   -1.8374293899
      6  H        -1.5742352578    0.6922579283    2.6504118861
      7  H        -0.7098521379   -0.6043215284    1.6583008766
      8  H         1.0191541091    1.7588724865    2.0347529470
      9  H        -1.0496550695   -0.1297924814   -1.3325675215
     10  H        -2.0801909645   -1.1958463323   -2.3310361395
     11  H        -0.3047298357   -1.1948050256   -2.5542663650
   Point Group: c1    Number of degrees of freedom:    27


   Energy is  -1038.206699376

              Constraints and their Current Values
                                        Value     Constraint
   Distance(Angs):        1   4             4.401725     4.400000
 Hessian Updated using BFGS Update

   Using Lagrange Multiplier Algorithm


 28 Hessian modes will be used to form the next step
  Hessian Eigenvalues:
    -0.976814    0.022240    0.027771    0.044959    0.045129    0.046205
     0.049157    0.060414    0.077884    0.097843    0.113768    0.117259
     0.124044    0.138324    0.153368    0.158783    0.161095    0.178895
     0.244749    0.280407    0.330684    0.347535    0.349245    0.349313
     0.354730    0.365073    0.439007    1.035591

 Minimum Search - Taking P-RFO Step
 Searching for Lamda that Maximizes Along the Constraint modes Only
 Value Taken    Lamda =   0.00006140
 Searching for Lamda that Minimizes Along All other modes
 Value Taken    Lamda =  -0.00084408
 Step Taken.  Stepsize is  0.053239

                             Maximum     Tolerance    Cnvgd?
         Gradient            0.010814       0.000300      NO
         Displacement        0.030102       0.001200      NO
         Energy change      0.001021       0.000001      NO


 New Cartesian Coordinates Obtained by Inverse Iteration

 Displacement from previous Coordinates is:  0.040580
 ----------------------------------------------------------------
             Standard Nuclear Orientation (Angstroms)
    I     Atom           X                Y                Z
 ----------------------------------------------------------------
    1      Cl     -0.9512951140    -2.3609471202    -0.5802335802
    2      Cl     -0.2337119772     2.3589790948     0.0875970631
    3      C      -0.7522930164     0.4009814160     1.9999756409
    4      C       0.1810922982     1.3570479039     1.4823417702
    5      C      -1.1155040954    -1.0786701638    -1.8367339159
    6      H      -1.5776037175     0.6925575225     2.6504947903
    7      H      -0.7152330366    -0.6188493504     1.6549602631
    8      H       1.0249544773     1.7616978945     2.0307367821
    9      H      -1.0493269615    -0.1236258612    -1.3307153045
   10      H      -2.0795526103    -1.1960907948    -2.3294306094
   11      H      -0.3036282467    -1.1930765413    -2.5535868997
 ----------------------------------------------------------------
 Nuclear Repulsion Energy =   239.1930623083 hartrees
 There are       30 alpha and       28 beta electrons

                       Distance Matrix (Angstroms)
             Cl(  1)   Cl(  2)   C (  3)   C (  4)   C (  5)   H (  6)
   Cl(  2)  4.820646
   C (  3)  3.784882  2.785655
   C (  4)  4.400001  1.766704  1.432905
   C (  5)  1.802773  4.037083  4.128151  4.316266
   H (  6)  4.489294  3.339379  1.090564  2.213400  4.846236
   H (  7)  2.843716  3.399405  1.077248  2.176549  3.544514  1.858645
   H (  8)  5.264877  2.390978  2.238550  1.084704  5.254197  2.881054
   H (  9)  2.361872  2.973242  3.384811  3.408756  1.082841  4.098203
   H ( 10)  2.385277  4.678426  4.801668  5.114552  1.089003  5.349636
   H ( 11)  2.382754  4.426945  4.845333  4.798626  1.089087  5.679885
             H (  7)   H (  8)   H (  9)   H ( 10)
   H (  8)  2.972619
   H (  9)  3.044852  4.376808
   H ( 10)  4.250876  6.115353  1.791362
   H ( 11)  4.267438  5.613541  1.787514  1.790017
 
 Applying Cartesian multipole field
    Component          Value
    ---------          -----
     (2,0,0)        1.00000E-11
     (0,2,0)        2.00000E-11
     (0,0,2)       -3.00000E-11
 Nucleus-field energy     =     0.0000000070 hartrees
 Requested basis set is 6-31G(d,p)
 There are 40 shells and 113 basis functions
 A cutoff of  1.0D-14 yielded    723 shell pairs
 There are      5989 function pairs
 Smallest overlap matrix eigenvalue = 8.77E-03
 Guess from superposition of atomic densities
 Warning:  Energy on first SCF cycle will be non-variational
 SAD guess density has 58.000000 electrons

 -----------------------------------------------------------------------
  General SCF calculation program by
  Eric Jon Sundstrom, Paul Horn, Yuezhi Mao, Dmitri Zuev, Alec White,
  David Stuck, Shaama M.S., Shane Yost, Joonho Lee, David Small,
  Daniel Levine, Susi Lehtola, Hugh Burton, Evgeny Epifanovsky
 -----------------------------------------------------------------------
 Exchange:     0.2000 Hartree-Fock + 0.0800 Slater + 0.7200 B88
 Correlation:  0.1900 VWN1RPA + 0.8100 LYP
 Using SG-1 standard quadrature grid
 using 12 threads for integral computing
 -------------------------------------------------------
 OpenMP Integral computing Module                
 Release: version 1.0, May 2013, Q-Chem Inc. Pittsburgh 
 -------------------------------------------------------
 -------------------------------------------------------
 OpenMP BLAS3 based DFT computing Module                
 Release: version 1.0, May 2013, Q-Chem Inc. Pittsburgh 
 -------------------------------------------------------
 A unrestricted SCF calculation will be
 performed using DIIS
 SCF converges when DIIS error is below 1.0e-06
 Alpha HF Exchange    Energy =  -7.26159641289164
 Beta HF Exchange     Energy =  -7.26159641289164
 DFT Correlation      Energy =  -2.75220996421373
 DFT Exchange         Energy = -57.31902825298489
 One-Electron (alpha) Energy = -950.28714765872701
 One-Electron (beta)  Energy = -950.28714765872701
 Total Coulomb        Energy = 697.38256526529085
 ---------------------------------------
  Cycle       Energy         DIIS error
 ---------------------------------------
    1   -1038.5930987799      2.66e-02  
 Alpha HF Exchange    Energy =  -7.38568379558449
 Beta HF Exchange     Energy =  -7.19083314639994
 DFT Correlation      Energy =  -2.76708236381480
 DFT Exchange         Energy = -57.83873684829803
 One-Electron (alpha) Energy = -967.15182706416624
 One-Electron (beta)  Energy = -939.21215580759088
 Total Coulomb        Energy = 704.19217280202793
    2   -1038.1610839086      2.46e-03  
 Alpha HF Exchange    Energy =  -7.34456280113570
 Beta HF Exchange     Energy =  -7.16216229818771
 DFT Correlation      Energy =  -2.74796595749318
 DFT Exchange         Energy = -57.52878295341851
 One-Electron (alpha) Energy = -964.98524087529677
 One-Electron (beta)  Energy = -937.32708170495221
 Total Coulomb        Energy = 699.73818877121425
    3   -1038.1645455040      2.47e-03  
 Alpha HF Exchange    Energy =  -7.36169310018483
 Beta HF Exchange     Energy =  -7.17174530445379
 DFT Correlation      Energy =  -2.75570978645888
 DFT Exchange         Energy = -57.64666689630764
 One-Electron (alpha) Energy = -965.81560124381087
 One-Electron (beta)  Energy = -937.92082669108447
 Total Coulomb        Energy = 701.27336313400667
    4   -1038.2058175730      4.32e-04  
 Alpha HF Exchange    Energy =  -7.36470205604877
 Beta HF Exchange     Energy =  -7.17556806974997
 DFT Correlation      Energy =  -2.75578165520250
 DFT Exchange         Energy = -57.67075488295358
 One-Electron (alpha) Energy = -966.01413661562765
 One-Electron (beta)  Energy = -938.13138351770544
 Total Coulomb        Energy = 701.71218345373120
    5   -1038.2070810283      1.58e-04  
 Alpha HF Exchange    Energy =  -7.36399204816507
 Beta HF Exchange     Energy =  -7.17455876421838
 DFT Correlation      Energy =  -2.75546826377252
 DFT Exchange         Energy = -57.66390150932459
 One-Electron (alpha) Energy = -965.95362033864205
 One-Electron (beta)  Energy = -938.05313852019344
 Total Coulomb        Energy = 701.56435930944895
    6   -1038.2072578196      4.99e-05  
 Alpha HF Exchange    Energy =  -7.36397805791541
 Beta HF Exchange     Energy =  -7.17461324718789
 DFT Correlation      Energy =  -2.75539260008089
 DFT Exchange         Energy = -57.66377626068486
 One-Electron (alpha) Energy = -965.95063558177515
 One-Electron (beta)  Energy = -938.05064984056412
 Total Coulomb        Energy = 701.55870697474438
    7   -1038.2072762982      1.70e-05  
 Alpha HF Exchange    Energy =  -7.36408965005875
 Beta HF Exchange     Energy =  -7.17467578430643
 DFT Correlation      Energy =  -2.75539510329260
 DFT Exchange         Energy = -57.66442226753716
 One-Electron (alpha) Energy = -965.95879967664155
 One-Electron (beta)  Energy = -938.05554008572153
 Total Coulomb        Energy = 701.57258159973458
    8   -1038.2072786526      7.34e-06  
 Alpha HF Exchange    Energy =  -7.36406403624661
 Beta HF Exchange     Energy =  -7.17466120093219
 DFT Correlation      Energy =  -2.75537863216352
 DFT Exchange         Energy = -57.66424749988070
 One-Electron (alpha) Energy = -965.95650094114751
 One-Electron (beta)  Energy = -938.05302630296956
 Total Coulomb        Energy = 701.56753720115660
    9   -1038.2072790969      2.47e-06  
 Alpha HF Exchange    Energy =  -7.36406034560405
 Beta HF Exchange     Energy =  -7.17465048140741
 DFT Correlation      Energy =  -2.75537397935755
 DFT Exchange         Energy = -57.66418693576325
 One-Electron (alpha) Energy = -965.95588460388376
 One-Electron (beta)  Energy = -938.05207181798096
 Total Coulomb        Energy = 701.56588670215342
   10   -1038.2072791466      9.05e-07  Convergence criterion met
 ---------------------------------------
 SCF time:   CPU 24.22s  wall 2.00s 
<S^2> =          2.004205623
 Alpha HF Exchange    Energy =  -7.36406034560405
 Beta HF Exchange     Energy =  -7.17465048140741
 DFT Correlation      Energy =  -2.75537397935755
 DFT Exchange         Energy = -57.66418693576325
 One-Electron (alpha) Energy = -965.95588460388376
 One-Electron (beta)  Energy = -938.05207181798096
 Total Coulomb        Energy = 701.56588670215342
 Nuclear repulsion Energy = 239.19306231525471
 SCF   energy in the final basis set =    -1038.2072791466
 Total energy in the final basis set =    -1038.2072791466
 
 --------------------------------------------------------------
 
                    Orbital Energies (a.u.)
 --------------------------------------------------------------
 
 Alpha MOs
 -- Occupied --
*******-101.537 -10.255 -10.242 -10.218  -9.470  -9.453  -7.234
 -7.226  -7.224  -7.218  -7.208  -7.207  -0.873  -0.850  -0.753
 -0.679  -0.603  -0.467  -0.458  -0.450  -0.448  -0.440  -0.412
 -0.356  -0.316  -0.298  -0.298  -0.238  -0.209
 -- Virtual --
  0.026   0.035   0.104   0.124   0.145   0.147   0.152   0.191
  0.261   0.386   0.413   0.420   0.436   0.440   0.453   0.462
  0.493   0.508   0.529   0.545   0.556   0.558   0.579   0.607
  0.645   0.680   0.791   0.826   0.830   0.835   0.845   0.856
  0.868   0.887   0.891   0.909   0.909   0.914   0.957   1.018
  1.027   1.055   1.103   1.107   1.265   1.395   1.453   1.465
  1.563   1.703   1.739   1.822   1.890   1.974   2.009   2.025
  2.030   2.044   2.050   2.175   2.329   2.343   2.378   2.395
  2.447   2.514   2.578   2.626   2.663   2.800   2.803   2.884
  3.170   3.272   3.350   3.387   3.411   3.455   4.092   4.221
  4.296   4.364   4.410
 
 Beta MOs
 -- Occupied --
*******-101.537 -10.242 -10.242 -10.205  -9.469  -9.453  -7.232
 -7.223  -7.223  -7.218  -7.208  -7.207  -0.856  -0.850  -0.714
 -0.679  -0.571  -0.453  -0.450  -0.445  -0.431  -0.423  -0.411
 -0.335  -0.312  -0.298  -0.297
 -- Virtual --
 -0.086  -0.064   0.026   0.061   0.108   0.135   0.145   0.158
  0.161   0.202   0.279   0.391   0.416   0.428   0.439   0.445
  0.456   0.469   0.504   0.513   0.532   0.558   0.570   0.606
  0.615   0.629   0.668   0.695   0.806   0.826   0.836   0.842
  0.857   0.864   0.872   0.891   0.900   0.910   0.914   0.926
  0.960   1.037   1.045   1.067   1.110   1.118   1.267   1.439
  1.453   1.468   1.606   1.746   1.778   1.849   1.940   1.988
  2.009   2.025   2.034   2.045   2.108   2.190   2.330   2.344
  2.398   2.416   2.474   2.544   2.578   2.655   2.678   2.800
  2.803   2.895   3.170   3.284   3.364   3.387   3.411   3.470
  4.118   4.221   4.312   4.394   4.412
 --------------------------------------------------------------
 
          Ground-State Mulliken Net Atomic Charges

     Atom                 Charge (a.u.)    Spin (a.u.)
  --------------------------------------------------------
      1 Cl                   -0.102326       0.000888
      2 Cl                   -0.036777       0.138935
      3 C                    -0.204621       0.966088
      4 C                    -0.208261       0.905021
      5 C                    -0.405258       0.000680
      6 H                     0.131035       0.009619
      7 H                     0.159047      -0.006820
      8 H                     0.159928      -0.014785
      9 H                     0.180547       0.000324
     10 H                     0.162563       0.000003
     11 H                     0.164123       0.000047
  --------------------------------------------------------
  Sum of atomic charges =     0.000000
  Sum of spin   charges =     2.000000

 -----------------------------------------------------------------
                    Cartesian Multipole Moments
 -----------------------------------------------------------------
    Charge (ESU x 10^10)
                -0.0000
    Dipole Moment (Debye)
         X      -0.1832      Y       0.5748      Z      -0.0281
       Tot       0.6040
    Quadrupole Moments (Debye-Ang)
        XX     -43.8029     XY      -0.2459     YY     -51.8971
        XZ       1.4460     YZ       1.6184     ZZ     -37.7262
    Octopole Moments (Debye-Ang^2)
       XXX      79.3268    XXY      -0.7962    XYY      33.5214
       YYY      -3.5034    XXZ      -3.0459    XYZ       1.0059
       YYZ       1.8916    XZZ      20.6551    YZZ      -2.3072
       ZZZ     -12.6561
    Hexadecapole Moments (Debye-Ang^3)
      XXXX    -212.1125   XXXY     -90.4385   XXYY    -211.3883
      XYYY    -100.4128   YYYY   -1063.3246   XXXZ     -33.2659
      XXYZ     -44.1220   XYYZ     -10.4376   YYYZ    -178.3682
      XXZZ     -97.9713   XYZZ     -24.1477   YYZZ    -238.7154
      XZZZ     -36.3707   YZZZ    -135.5207   ZZZZ    -458.9642
 -----------------------------------------------------------------
 Calculating analytic gradient of the SCF energy
 Gradient of SCF Energy
            1           2           3           4           5           6
    1   0.0001188   0.0007996   0.0026470  -0.0049546  -0.0002255  -0.0002698
    2   0.0036306   0.0006238  -0.0034242  -0.0061506   0.0015997   0.0001412
    3  -0.0004328   0.0002733  -0.0018421  -0.0003322   0.0014974  -0.0000910
            7           8           9          10          11
    1   0.0017341  -0.0001409   0.0002051   0.0001451  -0.0000589
    2   0.0079598  -0.0000035  -0.0045305   0.0001037   0.0000500
    3   0.0014447   0.0000053  -0.0000432  -0.0003676  -0.0001117
 Max gradient component =       7.960E-03
 RMS gradient           =       2.420E-03
 Gradient time:  CPU 8.43 s  wall 0.75 s
 Geometry Optimization Parameters
   NAtoms,    NIC,     NZ,  NCons,   NDum,   NFix, NCnnct, MaxDiis
       11      81       0       1       0       0       0       0

 Cartesian Hessian Update
 Hessian Updated using BFGS Update


** CONSTRAINED OPTIMIZATION IN DELOCALIZED INTERNAL COORDINATES **
   Searching for a Minimum

   Optimization Cycle:   3

                       Coordinates (Angstroms)
     ATOM                X               Y               Z
      1  Cl       -0.9512951140   -2.3609471202   -0.5802335802
      2  Cl       -0.2337119772    2.3589790948    0.0875970631
      3  C        -0.7522930164    0.4009814160    1.9999756409
      4  C         0.1810922982    1.3570479039    1.4823417702
      5  C        -1.1155040954   -1.0786701638   -1.8367339159
      6  H        -1.5776037175    0.6925575225    2.6504947903
      7  H        -0.7152330366   -0.6188493504    1.6549602631
      8  H         1.0249544773    1.7616978945    2.0307367821
      9  H        -1.0493269615   -0.1236258612   -1.3307153045
     10  H        -2.0795526103   -1.1960907948   -2.3294306094
     11  H        -0.3036282467   -1.1930765413   -2.5535868997
   Point Group: c1    Number of degrees of freedom:    27


   Energy is  -1038.207279147

              Constraints and their Current Values
                                        Value     Constraint
   Distance(Angs):        1   4             4.400001     4.400000
 Hessian Updated using BFGS Update

   Using Lagrange Multiplier Algorithm


 28 Hessian modes will be used to form the next step
  Hessian Eigenvalues:
    -0.966845    0.022275    0.026623    0.044781    0.045012    0.046157
     0.048041    0.060007    0.077887    0.096317    0.100514    0.117230
     0.124096    0.136143    0.153523    0.158650    0.161109    0.172411
     0.236370    0.280342    0.314820    0.331498    0.348257    0.349283
     0.349545    0.355973    0.367554    1.047586

 Minimum Search - Taking P-RFO Step
 Searching for Lamda that Maximizes Along the Constraint modes Only
 Value Taken    Lamda =   0.00000030
 Searching for Lamda that Minimizes Along All other modes
 Value Taken    Lamda =  -0.00041615
 Step Taken.  Stepsize is  0.070106

                             Maximum     Tolerance    Cnvgd?
         Gradient            0.004554       0.000300      NO
         Displacement        0.027769       0.001200      NO
         Energy change     -0.000580       0.000001      NO


 New Cartesian Coordinates Obtained by Inverse Iteration

 Displacement from previous Coordinates is:  0.059742
 ----------------------------------------------------------------
             Standard Nuclear Orientation (Angstroms)
    I     Atom           X                Y                Z
 ----------------------------------------------------------------
    1      Cl     -0.9512204794    -2.3632154305    -0.5735215737
    2      Cl     -0.2388795627     2.3568188531     0.0836169103
    3      C      -0.7545732644     0.3968730598     1.9938606608
    4      C       0.1863065817     1.3590375131     1.4785194699
    5      C      -1.1134694287    -1.0740924695    -1.8310374835
    6      H      -1.5792767748     0.6911194759     2.6429591163
    7      H      -0.7234296146    -0.6344931987     1.6487202699
    8      H       1.0301793214     1.7641598483     2.0264742333
    9      H      -1.0486060548    -0.1128025398    -1.3256968613
   10      H      -2.0781541549    -1.1937914594    -2.3216370953
   11      H      -0.3009785687    -1.1896096522    -2.5468516466
 ----------------------------------------------------------------
 Nuclear Repulsion Energy =   239.1126269532 hartrees
 There are       30 alpha and       28 beta electrons

                       Distance Matrix (Angstroms)
             Cl(  1)   Cl(  2)   C (  3)   C (  4)   C (  5)   H (  6)
   Cl(  2)  4.818504
   C (  3)  3.774680  2.785024
   C (  4)  4.400001  1.766948  1.441038
   C (  5)  1.808178  4.025166  4.113683  4.308446
   H (  6)  4.479862  3.334884  1.089975  2.217954  4.832142
   H (  7)  2.824664  3.410614  1.088029  2.197897  3.529036  1.865002
   H (  8)  5.265088  2.395089  2.248528  1.084666  5.247028  2.888032
   H (  9)  2.374786  2.956493  3.371303  3.399258  1.087959  4.083887
   H ( 10)  2.386093  4.666370  4.785980  5.107437  1.088868  5.333759
   H ( 11)  2.386252  4.415923  4.831226  4.789224  1.088979  5.666156
             H (  7)   H (  8)   H (  9)   H ( 10)
   H (  8)  2.995226
   H (  9)  3.037278  4.368225
   H ( 10)  4.232237  6.108788  1.794548
   H ( 11)  4.253169  5.604645  1.791558  1.791394
 
 Applying Cartesian multipole field
    Component          Value
    ---------          -----
     (2,0,0)        1.00000E-11
     (0,2,0)        2.00000E-11
     (0,0,2)       -3.00000E-11
 Nucleus-field energy     =     0.0000000070 hartrees
 Requested basis set is 6-31G(d,p)
 There are 40 shells and 113 basis functions
 A cutoff of  1.0D-14 yielded    722 shell pairs
 There are      5988 function pairs
 Smallest overlap matrix eigenvalue = 9.01E-03
 Guess from superposition of atomic densities
 Warning:  Energy on first SCF cycle will be non-variational
 SAD guess density has 58.000000 electrons

 -----------------------------------------------------------------------
  General SCF calculation program by
  Eric Jon Sundstrom, Paul Horn, Yuezhi Mao, Dmitri Zuev, Alec White,
  David Stuck, Shaama M.S., Shane Yost, Joonho Lee, David Small,
  Daniel Levine, Susi Lehtola, Hugh Burton, Evgeny Epifanovsky
 -----------------------------------------------------------------------
 Exchange:     0.2000 Hartree-Fock + 0.0800 Slater + 0.7200 B88
 Correlation:  0.1900 VWN1RPA + 0.8100 LYP
 Using SG-1 standard quadrature grid
 using 12 threads for integral computing
 -------------------------------------------------------
 OpenMP Integral computing Module                
 Release: version 1.0, May 2013, Q-Chem Inc. Pittsburgh 
 -------------------------------------------------------
 -------------------------------------------------------
 OpenMP BLAS3 based DFT computing Module                
 Release: version 1.0, May 2013, Q-Chem Inc. Pittsburgh 
 -------------------------------------------------------
 A unrestricted SCF calculation will be
 performed using DIIS
 SCF converges when DIIS error is below 1.0e-06
 Alpha HF Exchange    Energy =  -7.25929618357711
 Beta HF Exchange     Energy =  -7.25929618357711
 DFT Correlation      Energy =  -2.75178698754696
 DFT Exchange         Energy = -57.31415872979800
 One-Electron (alpha) Energy = -950.22106929026745
 One-Electron (beta)  Energy = -950.22106929026745
 Total Coulomb        Energy = 697.34069954104393
 ---------------------------------------
  Cycle       Energy         DIIS error
 ---------------------------------------
    1   -1038.5733501638      2.64e-02  
 Alpha HF Exchange    Energy =  -7.38409536746025
 Beta HF Exchange     Energy =  -7.18961426624242
 DFT Correlation      Energy =  -2.76639116596064
 DFT Exchange         Energy = -57.82827112296614
 One-Electron (alpha) Energy = -967.05695309835016
 One-Electron (beta)  Energy = -939.13214925250372
 Total Coulomb        Energy = 704.08236882441372
    2   -1038.1624784888      2.42e-03  
 Alpha HF Exchange    Energy =  -7.34357002576459
 Beta HF Exchange     Energy =  -7.16124166414978
 DFT Correlation      Energy =  -2.74750885131726
 DFT Exchange         Energy = -57.52208284119109
 One-Electron (alpha) Energy = -964.92057229234103
 One-Electron (beta)  Energy = -937.26699712601135
 Total Coulomb        Energy = 699.68314817055000
    3   -1038.1661976700      2.42e-03  
 Alpha HF Exchange    Energy =  -7.36050889029822
 Beta HF Exchange     Energy =  -7.17075084669757
 DFT Correlation      Energy =  -2.75515025760700
 DFT Exchange         Energy = -57.63881136716940
 One-Electron (alpha) Energy = -965.74064607533717
 One-Electron (beta)  Energy = -937.85365162709002
 Total Coulomb        Energy = 701.20082016879303
    4   -1038.2060719352      4.29e-04  
 Alpha HF Exchange    Energy =  -7.36348576921703
 Beta HF Exchange     Energy =  -7.17452952169607
 DFT Correlation      Energy =  -2.75520907839671
 DFT Exchange         Energy = -57.66258950102075
 One-Electron (alpha) Energy = -965.93747349773469
 One-Electron (beta)  Energy = -938.06213501651769
 Total Coulomb        Energy = 701.63547591329120
    5   -1038.2073195111      1.57e-04  
 Alpha HF Exchange    Energy =  -7.36276757753946
 Beta HF Exchange     Energy =  -7.17351162178569
 DFT Correlation      Energy =  -2.75489398467958
 DFT Exchange         Energy = -57.65567682475815
 One-Electron (alpha) Energy = -965.87626446171055
 One-Electron (beta)  Energy = -937.98312206129697
 Total Coulomb        Energy = 701.48611393649173
    6   -1038.2074956350      4.95e-05  
 Alpha HF Exchange    Energy =  -7.36276063658237
 Beta HF Exchange     Energy =  -7.17356783846479
 DFT Correlation      Energy =  -2.75481898680566
 DFT Exchange         Energy = -57.65558453912035
 One-Electron (alpha) Energy = -965.87379028013913
 One-Electron (beta)  Energy = -937.98092435093508
 Total Coulomb        Energy = 701.48130577735344
    7   -1038.2075138945      1.69e-05  
 Alpha HF Exchange    Energy =  -7.36287272682130
 Beta HF Exchange     Energy =  -7.17363060893188
 DFT Correlation      Energy =  -2.75482155897947
 DFT Exchange         Energy = -57.65623479747906
 One-Electron (alpha) Energy = -965.88199249975582
 One-Electron (beta)  Energy = -937.98581754148984
 Total Coulomb        Energy = 701.49522654394195
    8   -1038.2075162293      7.32e-06  
 Alpha HF Exchange    Energy =  -7.36284594376971
 Beta HF Exchange     Energy =  -7.17361478451301
 DFT Correlation      Energy =  -2.75480463794017
 DFT Exchange         Energy = -57.65605013232557
 One-Electron (alpha) Energy = -965.87958113254695
 One-Electron (beta)  Energy = -937.98320068758494
 Total Coulomb        Energy = 701.48995368826616
    9   -1038.2075166702      2.51e-06  
 Alpha HF Exchange    Energy =  -7.36284289839468
 Beta HF Exchange     Energy =  -7.17360424803929
 DFT Correlation      Energy =  -2.75480016219605
 DFT Exchange         Energy = -57.65599308608780
 One-Electron (alpha) Energy = -965.87901246152478
 One-Electron (beta)  Energy = -937.98227658935161
 Total Coulomb        Energy = 701.48838576428841
   10   -1038.2075167211      9.16e-07  Convergence criterion met
 ---------------------------------------
 SCF time:   CPU 24.23s  wall 2.00s 
<S^2> =          2.004277847
 Alpha HF Exchange    Energy =  -7.36284289839468
 Beta HF Exchange     Energy =  -7.17360424803929
 DFT Correlation      Energy =  -2.75480016219605
 DFT Exchange         Energy = -57.65599308608780
 One-Electron (alpha) Energy = -965.87901246152478
 One-Electron (beta)  Energy = -937.98227658935161
 Total Coulomb        Energy = 701.48838576428841
 Nuclear repulsion Energy = 239.11262696023314
 SCF   energy in the final basis set =    -1038.2075167211
 Total energy in the final basis set =    -1038.2075167211
 
 --------------------------------------------------------------
 
                    Orbital Energies (a.u.)
 --------------------------------------------------------------
 
 Alpha MOs
 -- Occupied --
*******-101.537 -10.256 -10.243 -10.219  -9.471  -9.453  -7.234
 -7.226  -7.224  -7.218  -7.207  -7.207  -0.873  -0.849  -0.751
 -0.679  -0.603  -0.467  -0.456  -0.450  -0.446  -0.439  -0.411
 -0.357  -0.317  -0.298  -0.298  -0.238  -0.210
 -- Virtual --
  0.024   0.034   0.104   0.123   0.145   0.147   0.151   0.190
  0.258   0.386   0.413   0.420   0.437   0.440   0.453   0.461
  0.494   0.508   0.529   0.544   0.557   0.558   0.579   0.605
  0.644   0.681   0.791   0.826   0.829   0.834   0.845   0.855
  0.867   0.887   0.892   0.909   0.910   0.914   0.956   1.016
  1.025   1.054   1.101   1.106   1.266   1.398   1.452   1.463
  1.562   1.701   1.736   1.815   1.885   1.974   2.009   2.025
  2.026   2.040   2.046   2.172   2.329   2.340   2.374   2.392
  2.443   2.507   2.575   2.617   2.654   2.796   2.800   2.876
  3.166   3.261   3.347   3.387   3.404   3.441   4.091   4.221
  4.296   4.363   4.409
 
 Beta MOs
 -- Occupied --
*******-101.537 -10.243 -10.243 -10.207  -9.469  -9.453  -7.232
 -7.223  -7.223  -7.218  -7.207  -7.207  -0.856  -0.849  -0.711
 -0.679  -0.571  -0.452  -0.450  -0.445  -0.429  -0.422  -0.411
 -0.335  -0.312  -0.298  -0.297
 -- Virtual --
 -0.085  -0.065   0.024   0.060   0.107   0.135   0.145   0.158
  0.161   0.201   0.276   0.391   0.415   0.429   0.440   0.445
  0.456   0.469   0.506   0.513   0.533   0.558   0.571   0.605
  0.615   0.626   0.667   0.696   0.806   0.827   0.836   0.840
  0.858   0.863   0.871   0.891   0.899   0.910   0.914   0.926
  0.959   1.036   1.042   1.066   1.109   1.117   1.268   1.441
  1.452   1.467   1.605   1.743   1.775   1.843   1.936   1.988
  2.009   2.025   2.029   2.041   2.105   2.187   2.329   2.340
  2.395   2.413   2.470   2.536   2.576   2.646   2.670   2.796
  2.800   2.888   3.166   3.273   3.360   3.387   3.405   3.457
  4.116   4.222   4.311   4.394   4.411
 --------------------------------------------------------------
 
          Ground-State Mulliken Net Atomic Charges

     Atom                 Charge (a.u.)    Spin (a.u.)
  --------------------------------------------------------
      1 Cl                   -0.103802       0.000898
      2 Cl                   -0.036638       0.137067
      3 C                    -0.205900       0.969576
      4 C                    -0.207448       0.906810
      5 C                    -0.404245       0.000693
      6 H                     0.131294       0.007927
      7 H                     0.158716      -0.007198
      8 H                     0.160225      -0.016165
      9 H                     0.180187       0.000337
     10 H                     0.163049       0.000003
     11 H                     0.164563       0.000051
  --------------------------------------------------------
  Sum of atomic charges =    -0.000000
  Sum of spin   charges =     2.000000

 -----------------------------------------------------------------
                    Cartesian Multipole Moments
 -----------------------------------------------------------------
    Charge (ESU x 10^10)
                -0.0000
    Dipole Moment (Debye)
         X      -0.1752      Y       0.5922      Z      -0.0404
       Tot       0.6189
    Quadrupole Moments (Debye-Ang)
        XX     -43.8097     XY      -0.2270     YY     -51.8881
        XZ       1.4657     YZ       1.6248     ZZ     -37.7838
    Octopole Moments (Debye-Ang^2)
       XXX      79.5051    XXY      -0.7086    XYY      33.5943
       YYY      -3.3096    XXZ      -3.0566    XYZ       1.0883
       YYZ       1.9304    XZZ      20.7720    YZZ      -2.2329
       ZZZ     -12.8108
    Hexadecapole Moments (Debye-Ang^3)
      XXXX    -212.4650   XXXY     -90.1348   XXYY    -211.3692
      XYYY    -100.0711   YYYY   -1063.1288   XXXZ     -32.8838
      XXYZ     -43.6408   XYYZ     -10.2339   YYYZ    -176.7532
      XXZZ     -97.5949   XYZZ     -24.0246   YYZZ    -238.2266
      XZZZ     -35.9784   YZZZ    -134.2089   ZZZZ    -456.7263
 -----------------------------------------------------------------
 Calculating analytic gradient of the SCF energy
 Gradient of SCF Energy
            1           2           3           4           5           6
    1   0.0001538   0.0002182  -0.0010903  -0.0005893  -0.0002509  -0.0000759
    2   0.0018444   0.0005868   0.0000571  -0.0019609   0.0000515  -0.0000705
    3   0.0008595  -0.0001498   0.0012966  -0.0011182  -0.0009431  -0.0002471
            7           8           9          10          11
    1   0.0012511   0.0000795   0.0002607   0.0000600  -0.0000169
    2   0.0003602   0.0000486  -0.0010679   0.0000397   0.0001110
    3  -0.0004058   0.0000082   0.0009659  -0.0001491  -0.0001170
 Max gradient component =       1.961E-03
 RMS gradient           =       7.382E-04
 Gradient time:  CPU 8.48 s  wall 0.76 s
 Geometry Optimization Parameters
   NAtoms,    NIC,     NZ,  NCons,   NDum,   NFix, NCnnct, MaxDiis
       11      81       0       1       0       0       0       0

 Cartesian Hessian Update
 Hessian Updated using BFGS Update


** CONSTRAINED OPTIMIZATION IN DELOCALIZED INTERNAL COORDINATES **
   Searching for a Minimum

   Optimization Cycle:   4

                       Coordinates (Angstroms)
     ATOM                X               Y               Z
      1  Cl       -0.9512204794   -2.3632154305   -0.5735215737
      2  Cl       -0.2388795627    2.3568188531    0.0836169103
      3  C        -0.7545732644    0.3968730598    1.9938606608
      4  C         0.1863065817    1.3590375131    1.4785194699
      5  C        -1.1134694287   -1.0740924695   -1.8310374835
      6  H        -1.5792767748    0.6911194759    2.6429591163
      7  H        -0.7234296146   -0.6344931987    1.6487202699
      8  H         1.0301793214    1.7641598483    2.0264742333
      9  H        -1.0486060548   -0.1128025398   -1.3256968613
     10  H        -2.0781541549   -1.1937914594   -2.3216370953
     11  H        -0.3009785687   -1.1896096522   -2.5468516466
   Point Group: c1    Number of degrees of freedom:    27


   Energy is  -1038.207516721

              Constraints and their Current Values
                                        Value     Constraint
   Distance(Angs):        1   4             4.400001     4.400000
 Hessian Updated using BFGS Update

   Using Lagrange Multiplier Algorithm


 28 Hessian modes will be used to form the next step
  Hessian Eigenvalues:
    -0.964043    0.022176    0.024278    0.042890    0.045001    0.046109
     0.046960    0.059846    0.077919    0.087595    0.098609    0.117196
     0.124075    0.136535    0.153465    0.158541    0.160533    0.168948
     0.241180    0.280571    0.331283    0.346089    0.348341    0.349296
     0.350944    0.363154    0.367703    1.056173

 Minimum Search - Taking P-RFO Step
 Searching for Lamda that Maximizes Along the Constraint modes Only
 Value Taken    Lamda =   0.00000000
 Searching for Lamda that Minimizes Along All other modes
 Value Taken    Lamda =  -0.00003624
 Step Taken.  Stepsize is  0.030704

                             Maximum     Tolerance    Cnvgd?
         Gradient            0.000826       0.000300      NO
         Displacement        0.012621       0.001200      NO
         Energy change     -0.000238       0.000001      NO


 New Cartesian Coordinates Obtained by Inverse Iteration

 Displacement from previous Coordinates is:  0.028860
 ----------------------------------------------------------------
             Standard Nuclear Orientation (Angstroms)
    I     Atom           X                Y                Z
 ----------------------------------------------------------------
    1      Cl     -0.9514113564    -2.3650398986    -0.5723530779
    2      Cl     -0.2417759494     2.3536613652     0.0813003874
    3      C      -0.7542781135     0.3947303874     1.9893601812
    4      C       0.1872510025     1.3586389171     1.4764671126
    5      C      -1.1123748344    -1.0712966818    -1.8267032458
    6      H      -1.5782717319     0.6908111688     2.6387701639
    7      H      -0.7269081443    -0.6386174995     1.6457900287
    8      H       1.0304975839     1.7643225702     2.0246910698
    9      H      -1.0482446163    -0.1083331907    -1.3230514621
   10      H      -2.0770977323    -1.1913887750    -2.3170392840
   11      H      -0.2994881079    -1.1874843630    -2.5418258737
 ----------------------------------------------------------------
 Nuclear Repulsion Energy =   239.2202592421 hartrees
 There are       30 alpha and       28 beta electrons

                       Distance Matrix (Angstroms)
             Cl(  1)   Cl(  2)   C (  3)   C (  4)   C (  5)   H (  6)
   Cl(  2)  4.816325
   C (  3)  3.770619  2.782222
   C (  4)  4.400000  1.766529  1.441754
   C (  5)  1.809164  4.016062  4.103634  4.301691
   H (  6)  4.476884  3.330457  1.090120  2.216757  4.823125
   H (  7)  2.819769  3.411263  1.089311  2.203041  3.520512  1.864996
   H (  8)  5.265381  2.396407  2.249990  1.084525  5.240790  2.887074
   H (  9)  2.380263  2.946865  3.363266  3.393488  1.088612  4.076223
   H ( 10)  2.385070  4.657018  4.776055  5.101040  1.088826  5.324617
   H ( 11)  2.385469  4.407248  4.820984  4.781876  1.088892  5.657018
             H (  7)   H (  8)   H (  9)   H ( 10)
   H (  8)  3.001027
   H (  9)  3.032899  4.362956
   H ( 10)  4.222864  6.102786  1.794313
   H ( 11)  4.245005  5.597777  1.791819  1.791770
 
 Applying Cartesian multipole field
    Component          Value
    ---------          -----
     (2,0,0)        1.00000E-11
     (0,2,0)        2.00000E-11
     (0,0,2)       -3.00000E-11
 Nucleus-field energy     =     0.0000000070 hartrees
 Requested basis set is 6-31G(d,p)
 There are 40 shells and 113 basis functions
 A cutoff of  1.0D-14 yielded    722 shell pairs
 There are      5988 function pairs
 Smallest overlap matrix eigenvalue = 9.03E-03
 Guess from superposition of atomic densities
 Warning:  Energy on first SCF cycle will be non-variational
 SAD guess density has 58.000000 electrons

 -----------------------------------------------------------------------
  General SCF calculation program by
  Eric Jon Sundstrom, Paul Horn, Yuezhi Mao, Dmitri Zuev, Alec White,
  David Stuck, Shaama M.S., Shane Yost, Joonho Lee, David Small,
  Daniel Levine, Susi Lehtola, Hugh Burton, Evgeny Epifanovsky
 -----------------------------------------------------------------------
 Exchange:     0.2000 Hartree-Fock + 0.0800 Slater + 0.7200 B88
 Correlation:  0.1900 VWN1RPA + 0.8100 LYP
 Using SG-1 standard quadrature grid
 using 12 threads for integral computing
 -------------------------------------------------------
 OpenMP Integral computing Module                
 Release: version 1.0, May 2013, Q-Chem Inc. Pittsburgh 
 -------------------------------------------------------
 -------------------------------------------------------
 OpenMP BLAS3 based DFT computing Module                
 Release: version 1.0, May 2013, Q-Chem Inc. Pittsburgh 
 -------------------------------------------------------
 A unrestricted SCF calculation will be
 performed using DIIS
 SCF converges when DIIS error is below 1.0e-06
 Alpha HF Exchange    Energy =  -7.25908126964805
 Beta HF Exchange     Energy =  -7.25908126964805
 DFT Correlation      Energy =  -2.75178331643046
 DFT Exchange         Energy = -57.31369073063395
 One-Electron (alpha) Energy = -950.33018849287373
 One-Electron (beta)  Energy = -950.33018849287373
 Total Coulomb        Energy = 697.45221270030220
 ---------------------------------------
  Cycle       Energy         DIIS error
 ---------------------------------------
    1   -1038.5715416227      2.64e-02  
 Alpha HF Exchange    Energy =  -7.38393036772488
 Beta HF Exchange     Energy =  -7.18946520847496
 DFT Correlation      Energy =  -2.76635253760078
 DFT Exchange         Energy = -57.82711550672800
 One-Electron (alpha) Energy = -967.16672313982610
 One-Electron (beta)  Energy = -939.23308410775257
 Total Coulomb        Energy = 704.18382375132262
    2   -1038.1625878677      2.42e-03  
 Alpha HF Exchange    Energy =  -7.34348357866659
 Beta HF Exchange     Energy =  -7.16116399494967
 DFT Correlation      Energy =  -2.74750056838370
 DFT Exchange         Energy = -57.52150883436654
 One-Electron (alpha) Energy = -965.03470731210439
 One-Electron (beta)  Energy = -937.37236832375686
 Total Coulomb        Energy = 699.79418363249022
    3   -1038.1662897306      2.42e-03  
 Alpha HF Exchange    Energy =  -7.36038935297605
 Beta HF Exchange     Energy =  -7.17064069476635
 DFT Correlation      Energy =  -2.75512844244207
 DFT Exchange         Energy = -57.63798047672012
 One-Electron (alpha) Energy = -965.85322054794517
 One-Electron (beta)  Energy = -937.95711067953380
 Total Coulomb        Energy = 701.30811181314027
    4   -1038.2060991321      4.29e-04  
 Alpha HF Exchange    Energy =  -7.36336593694056
 Beta HF Exchange     Energy =  -7.17441851459888
 DFT Correlation      Energy =  -2.75518654542312
 DFT Exchange         Energy = -57.66175171753868
 One-Electron (alpha) Energy = -966.04983370460332
 One-Electron (beta)  Energy = -938.16541966355771
 Total Coulomb        Energy = 701.74237128722677
    5   -1038.2073455463      1.57e-04  
 Alpha HF Exchange    Energy =  -7.36264744055388
 Beta HF Exchange     Energy =  -7.17340069843767
 DFT Correlation      Energy =  -2.75487154834318
 DFT Exchange         Energy = -57.65483893466468
 One-Electron (alpha) Energy = -965.98860227932744
 One-Electron (beta)  Energy = -938.08637962592172
 Total Coulomb        Energy = 701.59295960556631
    6   -1038.2075216726      4.94e-05  
 Alpha HF Exchange    Energy =  -7.36264111653748
 Beta HF Exchange     Energy =  -7.17345651872541
 DFT Correlation      Energy =  -2.75479656308870
 DFT Exchange         Energy = -57.65474732711543
 One-Electron (alpha) Energy = -965.98620031994062
 One-Electron (beta)  Energy = -938.08420464644928
 Total Coulomb        Energy = 701.58824735142571
    7   -1038.2075398913      1.69e-05  
 Alpha HF Exchange    Energy =  -7.36275324923166
 Beta HF Exchange     Energy =  -7.17351946044080
 DFT Correlation      Energy =  -2.75479915327287
 DFT Exchange         Energy = -57.65539850317258
 One-Electron (alpha) Energy = -965.99440406152792
 One-Electron (beta)  Energy = -938.08909865975772
 Total Coulomb        Energy = 701.60217162176707
    8   -1038.2075422165      7.31e-06  
 Alpha HF Exchange    Energy =  -7.36272626485041
 Beta HF Exchange     Energy =  -7.17350341910173
 DFT Correlation      Energy =  -2.75478218168441
 DFT Exchange         Energy = -57.65521217067578
 One-Electron (alpha) Energy = -965.99197445719096
 One-Electron (beta)  Energy = -938.08646538918958
 Total Coulomb        Energy = 701.59686197746987
    9   -1038.2075426561      2.51e-06  
 Alpha HF Exchange    Energy =  -7.36272334272254
 Beta HF Exchange     Energy =  -7.17349292181706
 DFT Correlation      Energy =  -2.75477774155809
 DFT Exchange         Energy = -57.65515580733822
 One-Electron (alpha) Energy = -965.99141589230169
 One-Electron (beta)  Energy = -938.08554683681132
 Total Coulomb        Energy = 701.59531058626760
   10   -1038.2075427072      9.17e-07  Convergence criterion met
 ---------------------------------------
 SCF time:   CPU 23.86s  wall 2.00s 
<S^2> =          2.004290119
 Alpha HF Exchange    Energy =  -7.36272334272254
 Beta HF Exchange     Energy =  -7.17349292181706
 DFT Correlation      Energy =  -2.75477774155809
 DFT Exchange         Energy = -57.65515580733822
 One-Electron (alpha) Energy = -965.99141589230169
 One-Electron (beta)  Energy = -938.08554683681132
[...]

 26 Hessian modes will be used to form the next step
  Hessian Eigenvalues:
     0.000343    0.003628    0.009885    0.029153    0.035458    0.045310
     0.055815    0.072648    0.081891    0.097126    0.116390    0.124207
     0.135302    0.136094    0.152323    0.159044    0.159870    0.236380
     0.279338    0.331277    0.347245    0.348864    0.349299    0.354202
     0.366557    0.394392

 Minimum Search - Taking Simple RFO Step
 Searching for Lamda that Minimizes Along All modes
 Value Taken    Lamda =  -0.00000119
 Step Taken.  Stepsize is  0.015831

                             Maximum     Tolerance    Cnvgd?
         Gradient           0.000123      0.000300     YES
         Displacement       0.006415      0.001200      NO
         Energy change     -0.000001      0.000001      NO


 New Cartesian Coordinates Obtained by Inverse Iteration

 Displacement from previous Coordinates is:  0.014365
 ----------------------------------------------------------------
             Standard Nuclear Orientation (Angstroms)
    I     Atom           X                Y                Z
 ----------------------------------------------------------------
    1      Cl     -0.8566391492    -2.3718114498    -0.6305109924
    2      Cl     -0.2862553992     2.3621758661     0.1275250679
    3      C      -0.7827116866     0.4427406919     2.0730232872
    4      C       0.1809496017     1.3415298280     1.4895140551
    5      C      -1.0996849492    -1.0940973085    -1.8855857349
    6      H      -1.5198695290     0.7929946181     2.7961656243
    7      H      -0.8752540077    -0.5827395894     1.7194936823
    8      H       1.1016613715     1.6708623918     1.9575340996
    9      H      -1.0894609142    -0.1223260131    -1.3943608273
   10      H      -2.0581616467    -1.2722780569    -2.3709496685
   11      H      -0.2866756913    -1.1670469781    -2.6064425933
 ----------------------------------------------------------------
 Nuclear Repulsion Energy =   237.7382358023 hartrees
 There are       30 alpha and       28 beta electrons

                       Distance Matrix (Angstroms)
             Cl(  1)   Cl(  2)   C (  3)   C (  4)   C (  5)   H (  6)
   Cl(  2)  4.828104
   C (  3)  3.903366  2.777708
   C (  4)  4.400000  1.764940  1.441162
   C (  5)  1.807439  4.081679  4.258278  4.354722
   H (  6)  4.711474  3.332533  1.090419  2.213824  5.065221
   H (  7)  2.953582  3.399090  1.088649  2.207095  3.648075  1.862095
   H (  8)  5.184219  2.398575  2.252217  1.084072  5.221159  2.889010
   H (  9)  2.387018  3.022255  3.526492  3.474702  1.088920  4.310867
   H ( 10)  2.383644  4.753029  4.931223  5.171923  1.089038  5.590545
   H ( 11)  2.383405  4.464302  4.973416  4.825815  1.089009  5.877985
             H (  7)   H (  8)   H (  9)   H ( 10)
   H (  8)  3.007254
   H (  9)  3.154989  4.387681
   H ( 10)  4.313521  6.114109  1.792902
   H ( 11)  4.404721  5.550774  1.790265  1.790166
 
 Applying Cartesian multipole field
    Component          Value
    ---------          -----
     (2,0,0)        1.00000E-11
     (0,2,0)        2.00000E-11
     (0,0,2)       -3.00000E-11
 Nucleus-field energy     =     0.0000000064 hartrees
 Requested basis set is 6-31G(d,p)
 There are 40 shells and 113 basis functions
 A cutoff of  1.0D-14 yielded    713 shell pairs
 There are      5914 function pairs
 Smallest overlap matrix eigenvalue = 9.08E-03
 Guess from superposition of atomic densities
 Warning:  Energy on first SCF cycle will be non-variational
 SAD guess density has 58.000000 electrons

 -----------------------------------------------------------------------
  General SCF calculation program by
  Eric Jon Sundstrom, Paul Horn, Yuezhi Mao, Dmitri Zuev, Alec White,
  David Stuck, Shaama M.S., Shane Yost, Joonho Lee, David Small,
  Daniel Levine, Susi Lehtola, Hugh Burton, Evgeny Epifanovsky
 -----------------------------------------------------------------------
 Exchange:     0.2000 Hartree-Fock + 0.0800 Slater + 0.7200 B88
 Correlation:  0.1900 VWN1RPA + 0.8100 LYP
 Using SG-1 standard quadrature grid
 using 12 threads for integral computing
 -------------------------------------------------------
 OpenMP Integral computing Module                
 Release: version 1.0, May 2013, Q-Chem Inc. Pittsburgh 
 -------------------------------------------------------
 -------------------------------------------------------
 OpenMP BLAS3 based DFT computing Module                
 Release: version 1.0, May 2013, Q-Chem Inc. Pittsburgh 
 -------------------------------------------------------
 A unrestricted SCF calculation will be
 performed using DIIS
 SCF converges when DIIS error is below 1.0e-06
 Alpha HF Exchange    Energy =  -7.25909106515209
 Beta HF Exchange     Energy =  -7.25909106515209
 DFT Correlation      Energy =  -2.75116517335132
 DFT Exchange         Energy = -57.31387599451927
 One-Electron (alpha) Energy = -948.84675903222399
 One-Electron (beta)  Energy = -948.84675903222399
 Total Coulomb        Energy = 695.96605014132672
 ---------------------------------------
  Cycle       Energy         DIIS error
 ---------------------------------------
    1   -1038.5724554126      2.64e-02  
 Alpha HF Exchange    Energy =  -7.38408761260455
 Beta HF Exchange     Energy =  -7.18967270232905
 DFT Correlation      Energy =  -2.76597142767368
 DFT Exchange         Energy = -57.82829620332416
 One-Electron (alpha) Energy = -965.63965928071821
 One-Electron (beta)  Energy = -937.82869410033152
 Total Coulomb        Energy = 702.73563564585550
    2   -1038.1625098725      2.43e-03  
 Alpha HF Exchange    Energy =  -7.34324774034147
 Beta HF Exchange     Energy =  -7.16100766709182
 DFT Correlation      Energy =  -2.74690360722084
 DFT Exchange         Energy = -57.51981154616620
 One-Electron (alpha) Energy = -963.47946735255641
 One-Electron (beta)  Energy = -935.94137798740655
 Total Coulomb        Energy = 698.28736315095966
    3   -1038.1662169412      2.43e-03  
 Alpha HF Exchange    Energy =  -7.36040711276869
 Beta HF Exchange     Energy =  -7.17070470307370
 DFT Correlation      Energy =  -2.75465777839474
 DFT Exchange         Energy = -57.63817190009163
 One-Electron (alpha) Energy = -964.31651301937961
 One-Electron (beta)  Energy = -936.54316895827094
 Total Coulomb        Energy = 699.83915624825124
    4   -1038.2062314151      4.27e-04  
 Alpha HF Exchange    Energy =  -7.36335422581513
 Beta HF Exchange     Energy =  -7.17445399618731
 DFT Correlation      Energy =  -2.75471303663626
 DFT Exchange         Energy = -57.66173193611867
 One-Electron (alpha) Energy = -964.51139292611128
 One-Electron (beta)  Energy = -936.74955435435629
 Total Coulomb        Energy = 700.26950178452910
    5   -1038.2074628820      1.58e-04  
 Alpha HF Exchange    Energy =  -7.36263805500684
 Beta HF Exchange     Energy =  -7.17343238750776
 DFT Correlation      Energy =  -2.75439737948753
 DFT Exchange         Energy = -57.65481505496942
 One-Electron (alpha) Energy = -964.45033322985319
 One-Electron (beta)  Energy = -936.67040678445551
 Total Coulomb        Energy = 700.12014658462897
    6   -1038.2076404980      4.92e-05  
 Alpha HF Exchange    Energy =  -7.36263510431036
 Beta HF Exchange     Energy =  -7.17348967762269
 DFT Correlation      Energy =  -2.75432415316545
 DFT Exchange         Energy = -57.65474639089511
 One-Electron (alpha) Energy = -964.44802899183162
 One-Electron (beta)  Energy = -936.66813504088225
 Total Coulomb        Energy = 700.11546498701239
    7   -1038.2076585630      1.68e-05  
 Alpha HF Exchange    Energy =  -7.36274704754386
 Beta HF Exchange     Energy =  -7.17355173075746
 DFT Correlation      Energy =  -2.75432648737464
 DFT Exchange         Energy = -57.65539251784040
 One-Electron (alpha) Energy = -964.45630162305190
 One-Electron (beta)  Energy = -936.67302581253841
 Total Coulomb        Energy = 700.12944853198758
    8   -1038.2076608785      7.36e-06  
 Alpha HF Exchange    Energy =  -7.36272018676597
 Beta HF Exchange     Energy =  -7.17353545438394
 DFT Correlation      Energy =  -2.75430950724640
 DFT Exchange         Energy = -57.65520582303895
 One-Electron (alpha) Energy = -964.45387746125573
 One-Electron (beta)  Energy = -936.67036200255131
 Total Coulomb        Energy = 700.12411330327495
    9   -1038.2076613233      2.50e-06  
 Alpha HF Exchange    Energy =  -7.36271725665644
 Beta HF Exchange     Energy =  -7.17352490009720
 DFT Correlation      Energy =  -2.75430504554765
 DFT Exchange         Energy = -57.65514915994528
 One-Electron (alpha) Energy = -964.45331172346641
 One-Electron (beta)  Energy = -936.66942473723759
 Total Coulomb        Energy = 700.12253564043101
   10   -1038.2076613739      9.17e-07  Convergence criterion met
 ---------------------------------------
 SCF time:   CPU 24.08s  wall 2.00s 
<S^2> =          2.004318213
 Alpha HF Exchange    Energy =  -7.36271725665644
 Beta HF Exchange     Energy =  -7.17352490009720
 DFT Correlation      Energy =  -2.75430504554765
 DFT Exchange         Energy = -57.65514915994528
 One-Electron (alpha) Energy = -964.45331172346641
 One-Electron (beta)  Energy = -936.66942473723759
 Total Coulomb        Energy = 700.12253564043101
 Nuclear repulsion Energy = 237.73823580865812
 SCF   energy in the final basis set =    -1038.2076613739
 Total energy in the final basis set =    -1038.2076613739
 
 --------------------------------------------------------------
 
                    Orbital Energies (a.u.)
 --------------------------------------------------------------
 
 Alpha MOs
 -- Occupied --
*******-101.537 -10.255 -10.243 -10.219  -9.471  -9.453  -7.234
 -7.226  -7.224  -7.217  -7.207  -7.207  -0.873  -0.848  -0.750
 -0.678  -0.603  -0.466  -0.456  -0.449  -0.446  -0.439  -0.411
 -0.356  -0.317  -0.298  -0.298  -0.238  -0.209
 -- Virtual --
  0.025   0.035   0.102   0.122   0.145   0.147   0.150   0.187
  0.257   0.384   0.413   0.420   0.438   0.440   0.453   0.463
  0.495   0.502   0.530   0.543   0.551   0.557   0.577   0.602
  0.642   0.678   0.793   0.825   0.830   0.838   0.846   0.854
  0.869   0.887   0.892   0.905   0.912   0.913   0.953   1.011
  1.013   1.047   1.097   1.104   1.264   1.394   1.452   1.459
  1.565   1.704   1.729   1.813   1.881   1.977   2.010   2.027
  2.028   2.040   2.048   2.173   2.326   2.336   2.372   2.389
  2.444   2.504   2.580   2.614   2.654   2.795   2.799   2.880
  3.163   3.257   3.348   3.387   3.402   3.440   4.090   4.219
  4.297   4.363   4.405
 
 Beta MOs
 -- Occupied --
*******-101.537 -10.243 -10.242 -10.207  -9.469  -9.453  -7.232
 -7.223  -7.223  -7.217  -7.207  -7.207  -0.856  -0.848  -0.711
 -0.678  -0.571  -0.451  -0.449  -0.446  -0.429  -0.422  -0.411
 -0.335  -0.312  -0.298  -0.297
 -- Virtual --
 -0.085  -0.064   0.025   0.061   0.105   0.133   0.146   0.157
  0.161   0.198   0.275   0.389   0.415   0.429   0.440   0.446
  0.456   0.469   0.503   0.511   0.532   0.556   0.566   0.603
  0.616   0.626   0.664   0.693   0.809   0.825   0.837   0.843
  0.859   0.862   0.873   0.892   0.899   0.913   0.913   0.921
  0.956   1.024   1.038   1.056   1.105   1.117   1.265   1.441
  1.452   1.461   1.608   1.746   1.768   1.842   1.932   1.990
  2.010   2.027   2.030   2.040   2.108   2.187   2.326   2.336
  2.393   2.410   2.470   2.533   2.580   2.644   2.669   2.795
  2.799   2.891   3.163   3.269   3.361   3.387   3.402   3.456
  4.115   4.219   4.312   4.395   4.406
 --------------------------------------------------------------
 
          Ground-State Mulliken Net Atomic Charges

     Atom                 Charge (a.u.)    Spin (a.u.)
  --------------------------------------------------------
      1 Cl                   -0.102599       0.000281
      2 Cl                   -0.035858       0.137122
      3 C                    -0.204861       0.970684
      4 C                    -0.207187       0.907261
      5 C                    -0.404536       0.000582
      6 H                     0.130792       0.007518
      7 H                     0.156964      -0.005754
      8 H                     0.160607      -0.017731
      9 H                     0.179501      -0.000000
     10 H                     0.162691       0.000003
     11 H                     0.164487       0.000034
  --------------------------------------------------------
  Sum of atomic charges =     0.000000
  Sum of spin   charges =     2.000000

 -----------------------------------------------------------------
                    Cartesian Multipole Moments
 -----------------------------------------------------------------
    Charge (ESU x 10^10)
                 0.0000
    Dipole Moment (Debye)
         X      -0.2021      Y       0.5821      Z      -0.0585
       Tot       0.6190
    Quadrupole Moments (Debye-Ang)
        XX     -43.5410     XY       0.1289     YY     -52.0016
        XZ       1.5295     YZ       1.4672     ZZ     -37.5648
    Octopole Moments (Debye-Ang^2)
       XXX      78.4574    XXY      -1.1492    XYY      32.4898
       YYY      -3.7298    XXZ      -3.0515    XYZ       0.7472
       YYZ       1.5036    XZZ      19.7643    YZZ      -2.4393
       ZZZ     -12.8319
    Hexadecapole Moments (Debye-Ang^3)
      XXXX    -202.6709   XXXY     -75.1242   XXYY    -209.1233
      XYYY     -86.8229   YYYY   -1069.8776   XXXZ     -29.1191
      XXYZ     -47.5758   XYYZ      -8.9490   YYYZ    -192.2831
      XXZZ    -100.4408   XYZZ     -20.2115   YYZZ    -245.6089
      XZZZ     -35.2489   YZZZ    -146.3937   ZZZZ    -482.2421
 -----------------------------------------------------------------
 Calculating analytic gradient of the SCF energy
 Gradient of SCF Energy
            1           2           3           4           5           6
    1   0.0000844   0.0000002  -0.0000332  -0.0001077   0.0000317   0.0000233
    2   0.0004038   0.0000293   0.0000607  -0.0004236  -0.0001543  -0.0000343
    3   0.0000637  -0.0000031   0.0000172  -0.0002253   0.0002282   0.0000161
            7           8           9          10          11
    1   0.0000350  -0.0000170  -0.0000030   0.0000086  -0.0000225
    2  -0.0000261   0.0000369   0.0000303   0.0000244   0.0000530
    3   0.0000442   0.0000156  -0.0000357  -0.0000583  -0.0000627
 Max gradient component =       4.236E-04
 RMS gradient           =       1.255E-04
 Gradient time:  CPU 8.35 s  wall 0.75 s
 Geometry Optimization Parameters
   NAtoms,    NIC,     NZ,  NCons,   NDum,   NFix, NCnnct, MaxDiis
       11      81       0       1       0       0       0       0

 Cartesian Hessian Update
 Hessian Updated using BFGS Update


** CONSTRAINED OPTIMIZATION IN DELOCALIZED INTERNAL COORDINATES **
   Searching for a Minimum

   Optimization Cycle:  20

                       Coordinates (Angstroms)
     ATOM                X               Y               Z
      1  Cl       -0.8566391492   -2.3718114498   -0.6305109924
      2  Cl       -0.2862553992    2.3621758661    0.1275250679
      3  C        -0.7827116866    0.4427406919    2.0730232872
      4  C         0.1809496017    1.3415298280    1.4895140551
      5  C        -1.0996849492   -1.0940973085   -1.8855857349
      6  H        -1.5198695290    0.7929946181    2.7961656243
      7  H        -0.8752540077   -0.5827395894    1.7194936823
      8  H         1.1016613715    1.6708623918    1.9575340996
      9  H        -1.0894609142   -0.1223260131   -1.3943608273
     10  H        -2.0581616467   -1.2722780569   -2.3709496685
     11  H        -0.2866756913   -1.1670469781   -2.6064425933
   Point Group: c1    Number of degrees of freedom:    27


   Energy is  -1038.207661374

              Constraints and their Current Values
                                        Value     Constraint
   Distance(Angs):        1   4             4.400000     4.400000
 Hessian Updated using BFGS Update

 26 Hessian modes will be used to form the next step
  Hessian Eigenvalues:
     0.000357    0.002646    0.009779    0.031662    0.035157    0.045252
     0.052113    0.071594    0.081819    0.085181    0.116024    0.123794
     0.133631    0.135555    0.152359    0.158693    0.159922    0.225053
     0.279140    0.331374    0.347627    0.348420    0.349300    0.354259
     0.366486    0.397673

 Minimum Search - Taking Simple RFO Step
 Searching for Lamda that Minimizes Along All modes
 Value Taken    Lamda =   0.00000000
 Step Taken.  Stepsize is  0.012032

                             Maximum     Tolerance    Cnvgd?
         Gradient           0.000107      0.000300     YES
         Displacement       0.005330      0.001200      NO
         Energy change     -0.000001      0.000001     YES


                       Distance Matrix (Angstroms)
             Cl(  1)   Cl(  2)   C (  3)   C (  4)   C (  5)   H (  6)
   Cl(  2)  4.828104
   C (  3)  3.903366  2.777708
   C (  4)  4.400000  1.764940  1.441162
   C (  5)  1.807439  4.081679  4.258278  4.354722
   H (  6)  4.711474  3.332533  1.090419  2.213824  5.065221
   H (  7)  2.953582  3.399090  1.088649  2.207095  3.648075  1.862095
   H (  8)  5.184219  2.398575  2.252217  1.084072  5.221159  2.889010
   H (  9)  2.387018  3.022255  3.526492  3.474702  1.088920  4.310867
   H ( 10)  2.383644  4.753029  4.931223  5.171923  1.089038  5.590545
   H ( 11)  2.383405  4.464302  4.973416  4.825815  1.089009  5.877985
             H (  7)   H (  8)   H (  9)   H ( 10)
   H (  8)  3.007254
   H (  9)  3.154989  4.387681
   H ( 10)  4.313521  6.114109  1.792902
   H ( 11)  4.404721  5.550774  1.790265  1.790166
 
 Final energy is   -1038.20766137386     


 ******************************
 **  OPTIMIZATION CONVERGED  **
 ******************************

                       Coordinates (Angstroms)
     ATOM                X               Y               Z
      1  Cl       -0.8566391492   -2.3718114498   -0.6305109924
      2  Cl       -0.2862553992    2.3621758661    0.1275250679
      3  C        -0.7827116866    0.4427406919    2.0730232872
      4  C         0.1809496017    1.3415298280    1.4895140551
      5  C        -1.0996849492   -1.0940973085   -1.8855857349
      6  H        -1.5198695290    0.7929946181    2.7961656243
      7  H        -0.8752540077   -0.5827395894    1.7194936823
      8  H         1.1016613715    1.6708623918    1.9575340996
      9  H        -1.0894609142   -0.1223260131   -1.3943608273
     10  H        -2.0581616467   -1.2722780569   -2.3709496685
     11  H        -0.2866756913   -1.1670469781   -2.6064425933

Z-matrix Print:
$molecule
0 3
Cl
C  1 1.764940
H  2 1.084072 1 112.476356
C  2 1.441162 1 119.742028 3 164.259917 0
H  4 1.088649 2 120.852222 1 91.323811 0
H  4 1.090419 2 121.347678 1 -81.389158 0
Cl 5 2.953582 4 145.937336 2 -39.047533 0
C  7 1.807439 5 97.090787 4 -17.103869 0
H  8 1.088920 7 108.442663 5 4.501299 0
H  8 1.089009 7 108.173883 5 124.456742 0
H  8 1.089038 7 108.189792 5 -115.753376 0
$end

PES scan, value:    4.4000 energy: -1038.2076613739
------- Summary of potential scan: ------ 
    4.4000     -1038.2076613739
----------------------------------------- 
Archival summary:
1\1\hpc0332\JobtypUnspecified\ProcedureUnspecified\6-31G**\l236(3)\knomura\MonMar1122:26:422019MonMar1122:26:422019\0\\#,JobtypUnspecified,ProcedureUnspecified,6-31G**,\\0,3\Cl\C,1,1.76494\H,2,1.08407,1,112.476\C,2,1.44116,1,119.742,3,164.26,0\H,4,1.08865,2,120.852,1,91.3238,0\H,4,1.09042,2,121.348,1,-81.3892,0\Cl,5,2.95358,4,145.937,2,-39.0475,0\C,7,1.80744,5,97.0908,4,-17.1039,0\H,8,1.08892,7,108.443,5,4.5013,0\H,8,1.08901,7,108.174,5,124.457,0\H,8,1.08904,7,108.19,5,-115.753,0\\\@

 Total job time:  65.03s(wall), 746.64s(cpu) 
 Mon Mar 11 22:26:42 2019

        *************************************************************
        *                                                           *
        *  Thank you very much for using Q-Chem.  Have a nice day.  *
        *                                                           *
        *************************************************************


