
Running Job 1 of 1 selenium/03/C-Se.xyz.data/inputs/bond_triplet_4.3.in
qchem selenium/03/C-Se.xyz.data/inputs/bond_triplet_4.3.in_12553.0 /staging/scratch/2868765/qchem12553/ 1
/usr/usc/qchem/5.1.1/exe/qcprog.exe_s selenium/03/C-Se.xyz.data/inputs/bond_triplet_4.3.in_12553.0 /staging/scratch/2868765/qchem12553/
Check license passed

                  Welcome to Q-Chem
     A Quantum Leap Into The Future Of Chemistry


 Q-Chem 5.1, Q-Chem, Inc., Pleasanton, CA (2018)

 Yihan Shao,  Zhengting Gan,  E. Epifanovsky,  A. T. B. Gilbert,  M. Wormit,  
 J. Kussmann,  A. W. Lange,  A. Behn,  Jia Deng,  Xintian Feng,  D. Ghosh,  
 M. Goldey,  P. R. Horn,  L. D. Jacobson,  I. Kaliman,  T. Kus,  A. Landau,  
 Jie Liu,  E. I. Proynov,  R. M. Richard,  R. P. Steele,  E. J. Sundstrom,  
 H. L. Woodcock III,  P. M. Zimmerman,  D. Zuev,  B. Albrecht,  E. Alguire,  
 S. A. Baeppler,  D. Barton,  Z. Benda,  Y. A. Bernard,  E. J. Berquist,  
 K. B. Bravaya,  H. Burton,  D. Casanova,  Chun-Min Chang,  Yunqing Chen,  
 A. Chien,  K. D. Closser,  M. P. Coons,  S. Coriani,  S. Dasgupta,  
 A. L. Dempwolff,  M. Diedenhofen,  Hainam Do,  R. G. Edgar,  Po-Tung Fang,  
 S. Faraji,  S. Fatehi,  Qingguo Feng,  K. D. Fenk,  J. Fosso-Tande,  
 Qinghui Ge,  A. Ghysels,  G. Gidofalvi,  J. Gomes,  J. Gonthier,  A. Gunina,  
 D. Hait,  M. W. D. Hanson-Heine,  P. H. P. Harbach,  A. W. Hauser,  
 J. E. Herr,  E. G. Hohenstein,  Z. C. Holden,  Kerwin Hui,  B. C. Huynh,  
 T.-C. Jagau,  Hyunjun Ji,  B. Kaduk,  K. Khistyaev,  Jaehoon Kim,  
 P. Klunzinger,  K. Koh,  D. Kosenkov,  L. Koulias,  T. Kowalczyk,  
 C. M. Krauter,  A. Kunitsa,  Ka Un Lao,  A. Laurent,  K. V. Lawler,  
 Joonho Lee,  D. Lefrancois,  S. Lehtola,  D. S. Levine,  Yi-Pei Li,  
 You-Sheng Lin,  Fenglai Liu,  E. Livshits,  A. Luenser,  P. Manohar,  
 E. Mansoor,  S. F. Manzer,  Shan-Ping Mao,  Yuezhi Mao,  N. Mardirossian,  
 A. V. Marenich,  T. Markovich,  L. A. Martinez-Martinez,  S. A. Maurer,  
 N. J. Mayhall,  S. C. McKenzie,  J.-M. Mewes,  A. F. Morrison,  
 J. W. Mullinax,  K. Nanda,  T. S. Nguyen-Beck,  R. Olivares-Amaya,  
 J. A. Parkhill,  T. M. Perrine,  F. Plasser,  P. Pokhilko,  S. Prager,  
 A. Prociuk,  E. Ramos,  D. R. Rehn,  F. Rob,  M. Schneider,  N. Sergueev,  
 S. M. Sharada,  S. Sharma,  D. W. Small,  T. Stauch,  T. Stein,  
 Yu-Chuan Su,  A. J. W. Thom,  A. Tkatchenko,  T. Tsuchimochi,  N. M. Tubman,  
 L. Vogt,  M. L. Vidal,  O. Vydrov,  M. A. Watson,  J. Wenzel,  
 M. de Wergifosse,  T. A. Wesolowski,  A. White,  J. Witte,  A. Yamada,  
 Jun Yang,  K. Yao,  S. Yeganeh,  S. R. Yost,  Zhi-Qiang You,  A. Zech,  
 Igor Ying Zhang,  Xing Zhang,  Yan Zhao,  Ying Zhu,  B. R. Brooks,  
 G. K. L. Chan,  C. J. Cramer,  M. S. Gordon,  W. J. Hehre,  A. Klamt,  
 M. W. Schmidt,  C. D. Sherrill,  D. G. Truhlar,  A. Aspuru-Guzik,  R. Baer,  
 A. T. Bell,  N. A. Besley,  Jeng-Da Chai,  A. E. DePrince, III,  
 R. A. DiStasio Jr.,  A. Dreuw,  B. D. Dunietz,  T. R. Furlani,  
 Chao-Ping Hsu,  Yousung Jung,  Jing Kong,  D. S. Lambrecht,  WanZhen Liang,  
 C. Ochsenfeld,  V. A. Rassolov,  L. V. Slipchenko,  J. E. Subotnik,  
 T. Van Voorhis,  J. M. Herbert,  A. I. Krylov,  P. M. W. Gill,  M. Head-Gordon

 Contributors to earlier versions of Q-Chem not listed above: 
 R. D. Adamson,  B. Austin,  J. Baker,  G. J. O. Beran,  K. Brandhorst,  
 S. T. Brown,  E. F. C. Byrd,  A. K. Chakraborty,  C.-L. Cheng,  
 Siu Hung Chien,  D. M. Chipman,  D. L. Crittenden,  H. Dachsel,  
 R. J. Doerksen,  A. D. Dutoi,  L. Fusti-Molnar,  W. A. Goddard III,  
 A. Golubeva-Zadorozhnaya,  S. R. Gwaltney,  G. Hawkins,  A. Heyden,  
 S. Hirata,  G. Kedziora,  F. J. Keil,  C. Kelley,  Jihan Kim,  R. A. King,  
 R. Z. Khaliullin,  P. P. Korambath,  W. Kurlancheek,  A. M. Lee,  M. S. Lee,  
 S. V. Levchenko,  Ching Yeh Lin,  D. Liotard,  R. C. Lochan,  I. Lotan,  
 P. E. Maslen,  N. Nair,  D. P. O'Neill,  D. Neuhauser,  E. Neuscamman,  
 C. M. Oana,  R. Olson,  B. Peters,  R. Peverati,  P. A. Pieniazek,  
 Y. M. Rhee,  J. Ritchie,  M. A. Rohrdanz,  E. Rosta,  N. J. Russ,  
 H. F. Schaefer III,  N. E. Schultz,  N. Shenvi,  A. C. Simmonett,  A. Sodt,  
 D. Stuck,  K. S. Thanthiriwatte,  V. Vanovschi,  Tao Wang,  A. Warshel,  
 C. F. Williams,  Q. Wu,  X. Xu,  W. Zhang

 Please cite Q-Chem as follows:
 Y. Shao et al., Mol. Phys. 113, 184-215 (2015)
 DOI: 10.1080/00268976.2014.952696

 Q-Chem 5.1.1 for Intel X86 EM64T Linux

 Parts of Q-Chem use Armadillo 8.300.2 (Tropical Shenanigans).
 http://arma.sourceforge.net/

 Q-Chem begins on Thu Mar 14 09:32:39 2019  

Host: 
0

     Scratch files written to /staging/scratch/2868765/qchem12553//
 Aug318 |scratch|qcdevops|jenkins|workspace|build_RNUM 6013   
Processing $rem in /usr/usc/qchem/5.1.1/config/preferences.
 MEM_TOTAL  2000 
Input Ideriv = 2
Curr. Ideriv = -1
Max.  Ideriv = 2

Checking the input file for inconsistencies... 	...done.

--------------------------------------------------------------
User input:
--------------------------------------------------------------

$comment
potential surface scanner
$end

$rem
JOBTYPE  PES_SCAN
UNRESTRICTED TRUE
SYM_IGNORE  TRUE
GEOM_OPT_MAX_CYCLES 400
SCF_MAX_CYCLES 400
METHOD   B3LYP
BASIS   6-31G**
PDB_PRINT 2
SCF_CONVERGENCE 6
THRESH 14
SCF_PRINT 1
$end
$molecule
0 3
Se 3.399463 1.248641 0.504987
C 0.412839 -1.977190 0.320328
C -0.786027 -1.515571 -0.354640
C -2.107897 -2.067676 0.167576
Se -0.813785 0.593493 -0.224850
H -0.954234 0.578291 1.243279
H 2.148714 0.450157 0.508576
H 1.378408 -1.938950 -0.170749
H 0.389170 -2.210387 1.380679
H -0.711222 -1.608007 -1.441246
H -2.214161 -1.887028 1.242063
H -2.961212 -1.613434 -0.340418
H -2.142056 -3.151743 0.005913
$end
$scan
stre 1 2 4.300000 4.301000 0.100000
$end
--------------------------------------------------------------
 ----------------------------------------------------------------
             Standard Nuclear Orientation (Angstroms)
    I     Atom           X                Y                Z
 ----------------------------------------------------------------
    1      Se      3.3994630000     1.2486410000     0.5049870000
    2      C       0.4128390000    -1.9771900000     0.3203280000
    3      C      -0.7860270000    -1.5155710000    -0.3546400000
    4      C      -2.1078970000    -2.0676760000     0.1675760000
    5      Se     -0.8137850000     0.5934930000    -0.2248500000
    6      H      -0.9542340000     0.5782910000     1.2432790000
    7      H       2.1487140000     0.4501570000     0.5085760000
    8      H       1.3784080000    -1.9389500000    -0.1707490000
    9      H       0.3891700000    -2.2103870000     1.3806790000
   10      H      -0.7112220000    -1.6080070000    -1.4412460000
   11      H      -2.2141610000    -1.8870280000     1.2420630000
   12      H      -2.9612120000    -1.6134340000    -0.3404180000
   13      H      -2.1420560000    -3.1517430000     0.0059130000
 ----------------------------------------------------------------
 Nuclear Repulsion Energy =   493.0141736191 hartrees
 There are       48 alpha and       46 beta electrons
 Requested basis set is 6-31G(d,p)
 There are 52 shells and 155 basis functions

 Total QAlloc Memory Limit   2000 MB
 Mega-Array Size       188 MB
 MEM_STATIC part       192 MB
A total of 1 constraints
  
            1
    1   1.0100000
    2   1.0100000
    3   2.0100000
    4   4.3000000
    5   4.3010000
    6   0.1000000
    7   0.0000000
    8   0.0000000
    9   0.0000000
   10   0.0000000

                       Distance Matrix (Angstroms)
             Se(  1)   C (  2)   C (  3)   C (  4)   Se(  5)   H (  6)
   C (  2)  4.400001
   C (  3)  5.089023  1.451190
   C (  4)  6.437610  2.526981  1.524752
   Se(  5)  4.325892  2.900041  2.113236  2.985054
   H (  6)  4.466444  3.041580  2.639299  3.080457  1.474910
   H (  7)  1.483901  2.990102  3.636198  4.957268  3.055300  3.191315
   H (  8)  3.834321  1.083948  2.213107  3.505047  3.349911  3.711765
   H (  9)  4.668359  1.085949  2.207983  2.779807  3.447690  3.098441
   H ( 10)  5.370846  2.122016  1.093093  2.179519  2.517288  3.470681
   H ( 11)  6.472131  2.785472  2.174168  1.094737  3.204040  2.768613
   H ( 12)  7.025978  3.457329  2.177432  1.092035  3.081449  3.367449
   H ( 13)  7.093722  2.829473  2.155428  1.096587  3.980496  4.105502
             H (  7)   H (  8)   H (  9)   H ( 10)   H ( 11)   H ( 12)
   H (  8)  2.600516
   H (  9)  3.306819  1.859892
   H ( 10)  4.027043  2.467841  3.088201
   H ( 11)  5.003510  3.860736  2.626996  3.088175
   H ( 12)  5.575889  4.355118  3.813606  2.504857  1.771210
   H ( 13)  5.624683  3.727699  3.030386  2.554345  1.769963  1.776895

 
 A cutoff of  1.0D-14 yielded   1190 shell pairs
 There are     10274 function pairs
 
 -------------------------------------------------------
 OpenMP Integral Computing Module                       
 Release: version 1.0, May 2013, Q-Chem Inc. Pittsburgh 
 -------------------------------------------------------
 Integral Job Info:
 Integral job number is                      11
 Integral operator is                         1
 short-range coefficients                     0
 long-range coefficients              100000000
 Omega coefficients                           0
 if combine SR and LR in K                    0
 Integral screening is                        0
 Integral computing path is                   2
 max size of driver memory is            800000
 size of driver memory is                593474
 size of scratch memory is             15267112
 max col of scratch BK array               1296
 max len of scratch array in speh3          155
 max len of scratch index in speh4           18
 max int batch size is                      520
 min int batch size is                       52
 fixed nKL is                                52
 max L of basis functions is                  2
 order of int derivative is                   0
 number of shells is                         52
 number of basis is                         155
 number of cartesian basis is               155
 number of contracted shell pairs          1190
 number of primitive shell pairs           4687
 maxK2 (contraction) of shell pair           36
 max number of K2 of shell pair               1
 max number of CS2 of shell pair             83
 max number of PS2 of shell pair            468
 mem total for path MDJ                  528444
 -------------------------------------------------------
 Smallest overlap matrix eigenvalue = 6.74E-04

 Scale SEOQF with 1.000000e-01/1.000000e-01/1.000000e+00

 Standard Electronic Orientation quadrupole field applied
 Nucleus-field energy     =     0.0000000072 hartrees
 Guess from superposition of atomic densities
 Warning:  Energy on first SCF cycle will be non-variational
 SAD guess density has 93.936381 electrons

 -----------------------------------------------------------------------
  General SCF calculation program by
  Eric Jon Sundstrom, Paul Horn, Yuezhi Mao, Dmitri Zuev, Alec White,
  David Stuck, Shaama M.S., Shane Yost, Joonho Lee, David Small,
  Daniel Levine, Susi Lehtola, Hugh Burton, Evgeny Epifanovsky
 -----------------------------------------------------------------------
 Exchange:     0.2000 Hartree-Fock + 0.0800 Slater + 0.7200 B88
 Correlation:  0.1900 VWN1RPA + 0.8100 LYP
 Using SG-1 standard quadrature grid
 using 12 threads for integral computing
 -------------------------------------------------------
 OpenMP Integral computing Module                
 Release: version 1.0, May 2013, Q-Chem Inc. Pittsburgh 
 -------------------------------------------------------
 -------------------------------------------------------
 OpenMP BLAS3 based DFT computing Module                
 Release: version 1.0, May 2013, Q-Chem Inc. Pittsburgh 
 -------------------------------------------------------
 A unrestricted SCF calculation will be
 performed using DIIS
 SCF converges when DIIS error is below 1.0e-06
 Alpha HF Exchange    Energy = -18.84263833445709
 Beta HF Exchange     Energy = -18.84263833445709
 DFT Correlation      Energy =  -5.12669340764455
 DFT Exchange         Energy = -149.84867036656794
 One-Electron (alpha) Energy = -3910.66496399925427
 One-Electron (beta)  Energy = -3910.66496399925427
 Total Coulomb        Energy = 2593.56692411390941
 ---------------------------------------
  Cycle       Energy         DIIS error
 ---------------------------------------
    1   -4927.4094707014      1.50e-01  
 Alpha HF Exchange    Energy = -19.06301741062014
 Beta HF Exchange     Energy = -18.86373296610489
 DFT Correlation      Energy =  -5.17487295864531
 DFT Exchange         Energy = -151.00944044228223
 One-Electron (alpha) Energy = -3943.45102222278683
 One-Electron (beta)  Energy = -3896.89369084392411
 Total Coulomb        Energy = 2619.95086041658851
    2   -4921.4907428014      9.31e-03  
 Alpha HF Exchange    Energy = -18.92500556412927
 Beta HF Exchange     Energy = -18.75435158389861
 DFT Correlation      Energy =  -5.13121786323416
 DFT Exchange         Energy = -149.97530808676447
 One-Electron (alpha) Energy = -3929.61766999566225
 One-Electron (beta)  Energy = -3885.34547593657317
 Total Coulomb        Energy = 2593.21646504166210
    3   -4921.5183903622      3.54e-03  
 Alpha HF Exchange    Energy = -19.03943516329227
 Beta HF Exchange     Energy = -18.84590240196875
 DFT Correlation      Energy =  -5.16461268126474
 DFT Exchange         Energy = -150.81570509909727
 One-Electron (alpha) Energy = -3939.74091518666182
 One-Electron (beta)  Energy = -3893.64878748515503
 Total Coulomb        Energy = 2612.68847013541927
    4   -4921.5527142556      2.82e-03  
 Alpha HF Exchange    Energy = -19.00172259760500
 Beta HF Exchange     Energy = -18.82143787802176
 DFT Correlation      Energy =  -5.15156328127469
 DFT Exchange         Energy = -150.54109932940395
 One-Electron (alpha) Energy = -3937.35765851706037
 One-Electron (beta)  Energy = -3892.22033791955664
 Total Coulomb        Energy = 2608.44809621733839
    5   -4921.6315496792      8.21e-04  
 Alpha HF Exchange    Energy = -18.99597715541470
 Beta HF Exchange     Energy = -18.81480021295244
 DFT Correlation      Energy =  -5.15088198344283
 DFT Exchange         Energy = -150.49607787998963
 One-Electron (alpha) Energy = -3936.31646414282750
 One-Electron (beta)  Energy = -3891.11946252977668
 Total Coulomb        Energy = 2606.23961048749652
    6   -4921.6398797905      9.16e-05  
 Alpha HF Exchange    Energy = -18.99504835515272
 Beta HF Exchange     Energy = -18.81436333184924
 DFT Correlation      Energy =  -5.15015250723495
 DFT Exchange         Energy = -150.48891709705060
 One-Electron (alpha) Energy = -3936.17627250797159
 One-Electron (beta)  Energy = -3891.02714134046346
 Total Coulomb        Energy = 2605.99767719893543
    7   -4921.6400443144      6.15e-05  
 Alpha HF Exchange    Energy = -18.99551980342571
 Beta HF Exchange     Energy = -18.81497035385366
 DFT Correlation      Energy =  -5.15029613228423
 DFT Exchange         Energy = -150.49285085034006
 One-Electron (alpha) Energy = -3936.21340158494831
 One-Electron (beta)  Energy = -3891.08370376707262
 Total Coulomb        Energy = 2606.09645508290714
    8   -4921.6401137826      2.18e-05  
 Alpha HF Exchange    Energy = -18.99560170288965
 Beta HF Exchange     Energy = -18.81512030425289
 DFT Correlation      Energy =  -5.15027351310902
 DFT Exchange         Energy = -150.49344340017802
 One-Electron (alpha) Energy = -3936.22190638808570
 One-Electron (beta)  Energy = -3891.10398869987239
 Total Coulomb        Energy = 2606.12603620613208
    9   -4921.6401241759      7.36e-06  
 Alpha HF Exchange    Energy = -18.99560605450981
 Beta HF Exchange     Energy = -18.81518819568150
 DFT Correlation      Energy =  -5.15025745304653
 DFT Exchange         Energy = -150.49360544385948
 One-Electron (alpha) Energy = -3936.21781564924322
 One-Electron (beta)  Energy = -3891.10747490185122
 Total Coulomb        Energy = 2606.12564757829341
   10   -4921.6401264935      3.25e-06  
 Alpha HF Exchange    Energy = -18.99559568811153
 Beta HF Exchange     Energy = -18.81517855994188
 DFT Correlation      Energy =  -5.15024821927136
 DFT Exchange         Energy = -150.49349872074981
 One-Electron (alpha) Energy = -3936.21324504677250
 One-Electron (beta)  Energy = -3891.10511995614388
 Total Coulomb        Energy = 2606.11858546723306
   11   -4921.6401270974      1.69e-06  
 Alpha HF Exchange    Energy = -18.99559447499496
 Beta HF Exchange     Energy = -18.81518721807887
 DFT Correlation      Energy =  -5.15024617370352
 DFT Exchange         Energy = -150.49351322654707
 One-Electron (alpha) Energy = -3936.21328144164727
 One-Electron (beta)  Energy = -3891.10673021150569
 Total Coulomb        Energy = 2606.12025141045797
   12   -4921.6401277096      1.27e-06  
 Alpha HF Exchange    Energy = -18.99559608382821
 Beta HF Exchange     Energy = -18.81518734969476
 DFT Correlation      Energy =  -5.15024634006124
 DFT Exchange         Energy = -150.49352039149719
 One-Electron (alpha) Energy = -3936.21325882434849
 One-Electron (beta)  Energy = -3891.10686124689755
 Total Coulomb        Energy = 2606.12036833174807
   13   -4921.6401282782      1.23e-06  
 Alpha HF Exchange    Energy = -18.99559602797630
 Beta HF Exchange     Energy = -18.81518679103264
 DFT Correlation      Energy =  -5.15024672145768
 DFT Exchange         Energy = -150.49351979916315
 One-Electron (alpha) Energy = -3936.21315578658141
 One-Electron (beta)  Energy = -3891.10683890573364
 Total Coulomb        Energy = 2606.12024131989847
   14   -4921.6401290857      1.19e-06  
 Alpha HF Exchange    Energy = -18.99559665934203
 Beta HF Exchange     Energy = -18.81518678183192
 DFT Correlation      Energy =  -5.15024683991642
 DFT Exchange         Energy = -150.49352192383333
 One-Electron (alpha) Energy = -3936.21331247047510
 One-Electron (beta)  Energy = -3891.10717373039461
 Total Coulomb        Energy = 2606.12073289664568
   15   -4921.6401318828      1.08e-06  
 Alpha HF Exchange    Energy = -18.99559425315639
 Beta HF Exchange     Energy = -18.81519478213734
 DFT Correlation      Energy =  -5.15024728912699
 DFT Exchange         Energy = -150.49353304250434
 One-Electron (alpha) Energy = -3936.21302846351864
 One-Electron (beta)  Energy = -3891.10838120700646
 Total Coulomb        Energy = 2606.12166650580957
   16   -4921.6401389053      1.12e-06  
 Alpha HF Exchange    Energy = -18.99559408182797
 Beta HF Exchange     Energy = -18.81519408354779
 DFT Correlation      Energy =  -5.15024730187535
 DFT Exchange         Energy = -150.49353019918635
 One-Electron (alpha) Energy = -3936.21301342319657
 One-Electron (beta)  Energy = -3891.10828408149473
 Total Coulomb        Energy = 2606.12155057492510
   17   -4921.6401389698      9.76e-07  Convergence criterion met
 ---------------------------------------
 SCF time:   CPU 78.57s  wall 7.00s 
<S^2> =          2.011242731
 Alpha HF Exchange    Energy = -18.99559408182797
 Beta HF Exchange     Energy = -18.81519408354779
 DFT Correlation      Energy =  -5.15024730187535
 DFT Exchange         Energy = -150.49353019918635
 One-Electron (alpha) Energy = -3936.21301342319657
 One-Electron (beta)  Energy = -3891.10828408149473
 Total Coulomb        Energy = 2606.12155057492510
 Nuclear repulsion Energy = 493.01417362637454
 SCF   energy in the final basis set =    -4921.6401389698
 Total energy in the final basis set =    -4921.6401389698
 
 --------------------------------------------------------------
 
                    Orbital Energies (a.u.)
 --------------------------------------------------------------
 
 Alpha MOs
 -- Occupied --
*******-453.900 -58.102 -58.095 -52.162 -52.159 -52.156 -52.152
-52.151 -52.149 -10.243 -10.210 -10.197  -7.836  -7.828  -5.785
 -5.778  -5.773  -5.770  -5.766  -5.761  -2.117  -2.116  -2.107
 -2.107  -2.106  -2.102  -2.100  -2.099  -2.096  -2.095  -0.817
 -0.702  -0.696  -0.692  -0.585  -0.482  -0.439  -0.432  -0.391
 -0.384  -0.380  -0.362  -0.337  -0.286  -0.244  -0.243  -0.207
 -- Virtual --
 -0.012   0.026   0.042   0.096   0.118   0.123   0.150   0.158
  0.164   0.179   0.211   0.229   0.248   0.257   0.271   0.287
  0.304   0.325   0.395   0.442   0.444   0.493   0.513   0.519
  0.538   0.541   0.541   0.552   0.569   0.580   0.632   0.665
  0.683   0.707   0.747   0.769   0.796   0.811   0.857   0.874
  0.891   0.905   0.929   1.001   1.017   1.065   1.099   1.185
  1.340   1.427   1.435   1.483   1.524   1.637   1.712   1.768
  1.839   1.882   1.912   1.973   2.019   2.036   2.074   2.078
  2.081   2.087   2.105   2.119   2.125   2.270   2.299   2.348
  2.399   2.488   2.556   2.585   2.597   2.633   2.645   2.699
  2.743   2.822   2.864   2.916   3.178   3.270   3.379   3.406
  3.456   3.513   4.196   4.218   4.219   4.240   4.261   4.264
  4.297   4.337   4.375   4.395   4.422   4.475   4.604   5.404
  5.484  89.574  89.822
 
 Beta MOs
 -- Occupied --
*******-453.899 -58.101 -58.094 -52.158 -52.158 -52.155 -52.152
-52.151 -52.148 -10.244 -10.198 -10.196  -7.833  -7.827  -5.776
 -5.776  -5.772  -5.768  -5.765  -5.760  -2.111  -2.111  -2.106
 -2.105  -2.102  -2.101  -2.098  -2.098  -2.095  -2.094  -0.810
 -0.694  -0.674  -0.662  -0.577  -0.478  -0.436  -0.427  -0.387
 -0.380  -0.370  -0.359  -0.319  -0.235  -0.231
 -- Virtual --
 -0.163  -0.084  -0.001   0.031   0.053   0.098   0.120   0.131
  0.156   0.160   0.166   0.184   0.217   0.233   0.255   0.262
  0.284   0.297   0.308   0.333   0.404   0.448   0.453   0.501
  0.523   0.545   0.554   0.558   0.582   0.586   0.587   0.606
  0.642   0.670   0.685   0.712   0.752   0.775   0.810   0.816
  0.859   0.876   0.893   0.911   0.931   1.017   1.019   1.070
  1.105   1.191   1.357   1.428   1.454   1.499   1.539   1.642
  1.717   1.768   1.842   1.889   1.930   1.993   2.025   2.037
  2.075   2.078   2.079   2.093   2.106   2.121   2.130   2.275
  2.300   2.350   2.410   2.502   2.567   2.596   2.598   2.634
  2.646   2.702   2.745   2.824   2.864   2.918   3.179   3.273
  3.383   3.407   3.456   3.518   4.211   4.232   4.232   4.253
  4.263   4.266   4.301   4.340   4.380   4.400   4.431   4.479
  4.608   5.419   5.489  89.579  89.824
 --------------------------------------------------------------
 
          Ground-State Mulliken Net Atomic Charges

     Atom                 Charge (a.u.)    Spin (a.u.)
  --------------------------------------------------------
      1 Se                   -0.112925       1.016080
      2 C                    -0.208795       0.929086
      3 C                    -0.150976      -0.111211
      4 C                    -0.310318       0.007699
      5 Se                   -0.097935       0.264565
      6 H                     0.058849      -0.006678
      7 H                     0.084624      -0.027115
      8 H                     0.123075      -0.041422
      9 H                     0.113108      -0.041460
     10 H                     0.138692       0.011401
     11 H                     0.114033      -0.000926
     12 H                     0.129605       0.001076
     13 H                     0.118963      -0.001096
  --------------------------------------------------------
  Sum of atomic charges =     0.000000
  Sum of spin   charges =     2.000000

 -----------------------------------------------------------------
                    Cartesian Multipole Moments
 -----------------------------------------------------------------
    Charge (ESU x 10^10)
                -0.0000
    Dipole Moment (Debye)
         X      -1.5804      Y      -2.3546      Z       0.3846
       Tot       2.8618
    Quadrupole Moments (Debye-Ang)
        XX     -63.0159     XY      -0.5152     YY     -57.3581
        XZ      -0.5780     YZ      -0.6337     ZZ     -56.5829
    Octopole Moments (Debye-Ang^2)
       XXX    -107.3890    XXY      -7.8054    XYY     -35.5096
       YYY       9.0236    XXZ      -4.1412    XYZ      -5.5464
       YYZ     -10.5400    XZZ     -37.7839    YZZ      -2.3808
       ZZZ     -25.5594
    Hexadecapole Moments (Debye-Ang^3)
      XXXX   -1732.4842   XXXY    -311.3332   XXYY    -399.4778
      XYYY    -301.7601   YYYY    -729.6245   XXXZ     -82.7514
      XXYZ     -14.0118   XYYZ     -44.4998   YYYZ     -24.4328
      XXZZ    -318.7127   XYZZ    -113.4610   YYZZ    -146.7695
      XZZZ    -110.7921   YZZZ     -23.7094   ZZZZ    -140.4430
 -----------------------------------------------------------------
 Calculating analytic gradient of the SCF energy
 Gradient of SCF Energy
            1           2           3           4           5           6
    1  -0.0002720   0.0002488   0.0000079  -0.0000046  -0.0000175   0.0000611
    2  -0.0002966   0.0002447  -0.0000438   0.0000395   0.0000160   0.0000216
    3  -0.0000219   0.0000240   0.0000075  -0.0000002  -0.0000371  -0.0000288
            7           8           9          10          11          12
    1   0.0000537  -0.0000392  -0.0000308   0.0000284  -0.0000144   0.0000008
    2  -0.0000750   0.0000617   0.0000036  -0.0000267   0.0000330   0.0000146
    3  -0.0000470   0.0000486   0.0000340   0.0000055  -0.0000010  -0.0000066
           13
    1  -0.0000221
    2   0.0000074
    3   0.0000230
 Max gradient component =       2.966E-04
 RMS gradient           =       9.059E-05
 Gradient time:  CPU 17.38 s  wall 1.58 s
 Geometry Optimization Parameters
   NAtoms,    NIC,     NZ,  NCons,   NDum,   NFix, NCnnct, MaxDiis
       13      77       0       1       0       0       0       0


** CONSTRAINED OPTIMIZATION IN DELOCALIZED INTERNAL COORDINATES **
   Searching for a Minimum

   Optimization Cycle:   1

                       Coordinates (Angstroms)
     ATOM                X               Y               Z
      1  Se        3.3994630000    1.2486410000    0.5049870000
      2  C         0.4128390000   -1.9771900000    0.3203280000
      3  C        -0.7860270000   -1.5155710000   -0.3546400000
      4  C        -2.1078970000   -2.0676760000    0.1675760000
      5  Se       -0.8137850000    0.5934930000   -0.2248500000
      6  H        -0.9542340000    0.5782910000    1.2432790000
      7  H         2.1487140000    0.4501570000    0.5085760000
      8  H         1.3784080000   -1.9389500000   -0.1707490000
      9  H         0.3891700000   -2.2103870000    1.3806790000
     10  H        -0.7112220000   -1.6080070000   -1.4412460000
     11  H        -2.2141610000   -1.8870280000    1.2420630000
     12  H        -2.9612120000   -1.6134340000   -0.3404180000
     13  H        -2.1420560000   -3.1517430000    0.0059130000
   Point Group: c1    Number of degrees of freedom:    33


   Energy is  -4921.640138970

              Constraints and their Current Values
                                        Value     Constraint
   Distance(Angs):        1   2             4.400001     4.300000

 Attempting to Generate Delocalized Internal Coordinates

   Using Lagrange Multiplier Algorithm


 34 Hessian modes will be used to form the next step
  Hessian Eigenvalues:
    -0.997238    0.035639    0.045000    0.045000    0.045000    0.045000
     0.045447    0.045997    0.071988    0.081437    0.082453    0.084075
     0.108489    0.114868    0.159142    0.160000    0.160000    0.160000
     0.160000    0.160000    0.160000    0.172258    0.180152    0.193787
     0.202150    0.299134    0.340446    0.340624    0.342710    0.344576
     0.345785    0.352850    0.380894    1.002770

 Minimum Search - Taking P-RFO Step
 Searching for Lamda that Maximizes Along the Constraint modes Only
 Value Taken    Lamda =   0.01771248
 Searching for Lamda that Minimizes Along All other modes
 Value Taken    Lamda =  -0.01738402
 Step Taken.  Stepsize is  0.185724

                             Maximum     Tolerance    Cnvgd?
         Gradient            0.188974       0.000300      NO
         Displacement        0.185715       0.001200      NO
         Energy change     *********       0.000001      NO


 New Cartesian Coordinates Obtained by Inverse Iteration

 Displacement from previous Coordinates is:  0.374713
 ----------------------------------------------------------------
             Standard Nuclear Orientation (Angstroms)
    I     Atom           X                Y                Z
 ----------------------------------------------------------------
    1      Se      3.2800283613     1.2266295924     0.5409223613
    2      C       0.4301145133    -1.9867447751     0.3020671511
    3      C      -0.7714812613    -1.5167417532    -0.3622841310
    4      C      -2.0930976737    -2.0504579744     0.1793706063
    5      Se     -0.7748031278     0.5933196695    -0.2478352284
    6      H      -0.8992597181     0.5904050378     1.2218139908
    7      H       2.0535742765     0.4240786276     0.5294140258
    8      H       1.3801029387    -1.9633963715    -0.1951091004
    9      H       0.4163269016    -2.2119510552     1.3642981699
   10      H      -0.7104798472    -1.6179288862    -1.4489702431
   11      H      -2.1847521077    -1.8608389420     1.2536618547
   12      H      -2.9473109304    -1.5905567629    -0.3219864275
   13      H      -2.1409623251    -3.1352204067     0.0261349706
 ----------------------------------------------------------------
 Nuclear Repulsion Energy =   500.4567256757 hartrees
 There are       48 alpha and       46 beta electrons

                       Distance Matrix (Angstroms)
             Se(  1)   C (  2)   C (  3)   C (  4)   Se(  5)   H (  6)
   C (  2)  4.301725
   C (  3)  4.975600  1.451240
   C (  4)  6.304007  2.526997  1.524766
   Se(  5)  4.179100  2.900164  2.113166  2.984957
   H (  6)  4.281921  3.042182  2.639273  3.079950  1.474912
   H (  7)  1.465746  2.915369  3.541588  4.841565  2.938108  3.037484
   H (  8)  3.785198  1.072477  2.203806  3.494415  3.344129  3.704736
   H (  9)  4.550008  1.085929  2.208006  2.779810  3.447798  3.099076
   H ( 10)  5.289172  2.122054  1.093090  2.179497  2.517237  3.470658
   H ( 11)  6.316984  2.785482  2.174171  1.094741  3.203958  2.768050
   H ( 12)  6.889188  3.457370  2.177454  1.092039  3.081332  3.366664
   H ( 13)  6.976954  2.829412  2.155417  1.096577  3.980385  4.105089
             H (  7)   H (  8)   H (  9)   H ( 10)   H ( 11)   H ( 12)
   H (  8)  2.584286
   H (  9)  3.213450  1.849972
   H ( 10)  3.965324  2.462123  3.088209
   H ( 11)  4.869168  3.849370  2.627001  3.088155
   H ( 12)  5.458250  4.345298  3.813626  2.504846  1.771219
   H ( 13)  5.524132  3.717529  3.030319  2.554288  1.769968  1.776900

 
 Applying Cartesian multipole field
    Component          Value
    ---------          -----
     (2,0,0)        1.00000E-11
     (0,2,0)        2.00000E-11
     (0,0,2)       -3.00000E-10
 Nucleus-field energy     =     0.0000000043 hartrees
 Requested basis set is 6-31G(d,p)
 There are 52 shells and 155 basis functions
 A cutoff of  1.0D-14 yielded   1195 shell pairs
 There are     10315 function pairs
 Smallest overlap matrix eigenvalue = 6.74E-04
 Guess from superposition of atomic densities
 Warning:  Energy on first SCF cycle will be non-variational
 SAD guess density has 93.936381 electrons

 -----------------------------------------------------------------------
  General SCF calculation program by
  Eric Jon Sundstrom, Paul Horn, Yuezhi Mao, Dmitri Zuev, Alec White,
  David Stuck, Shaama M.S., Shane Yost, Joonho Lee, David Small,
  Daniel Levine, Susi Lehtola, Hugh Burton, Evgeny Epifanovsky
 -----------------------------------------------------------------------
 Exchange:     0.2000 Hartree-Fock + 0.0800 Slater + 0.7200 B88
 Correlation:  0.1900 VWN1RPA + 0.8100 LYP
 Using SG-1 standard quadrature grid
 using 12 threads for integral computing
 -------------------------------------------------------
 OpenMP Integral computing Module                
 Release: version 1.0, May 2013, Q-Chem Inc. Pittsburgh 
 -------------------------------------------------------
 -------------------------------------------------------
 OpenMP BLAS3 based DFT computing Module                
 Release: version 1.0, May 2013, Q-Chem Inc. Pittsburgh 
 -------------------------------------------------------
 A unrestricted SCF calculation will be
 performed using DIIS
 SCF converges when DIIS error is below 1.0e-06
 Alpha HF Exchange    Energy = -18.84451575704749
 Beta HF Exchange     Energy = -18.84451575704749
 DFT Correlation      Energy =  -5.12765038039883
 DFT Exchange         Energy = -149.85278265778342
 One-Electron (alpha) Energy = -3918.08687353973937
 One-Electron (beta)  Energy = -3918.08687353973937
 Total Coulomb        Energy = 2600.93976696930213
 ---------------------------------------
  Cycle       Energy         DIIS error
 ---------------------------------------
    1   -4927.4467189825      1.50e-01  
 Alpha HF Exchange    Energy = -19.06425423464415
 Beta HF Exchange     Energy = -18.86384734047440
 DFT Correlation      Energy =  -5.17579410699135
 DFT Exchange         Energy = -151.01559390956834
 One-Electron (alpha) Energy = -3951.05704396768488
 One-Electron (beta)  Energy = -3904.05359215532599
 Total Coulomb        Energy = 2627.29038377338929
    2   -4921.4830162613      9.32e-03  
 Alpha HF Exchange    Energy = -18.92599117176217
 Beta HF Exchange     Energy = -18.75610484208756
 DFT Correlation      Energy =  -5.13234108303628
 DFT Exchange         Energy = -149.98531847716293
 One-Electron (alpha) Energy = -3937.34090903455399
 One-Electron (beta)  Energy = -3892.81596650804340
 Total Coulomb        Energy = 2600.99314120622512
    3   -4921.5067642304      3.63e-03  
 Alpha HF Exchange    Energy = -19.03931803923563
 Beta HF Exchange     Energy = -18.84204323951741
 DFT Correlation      Energy =  -5.16570547508756
 DFT Exchange         Energy = -150.81116159853599
 One-Electron (alpha) Energy = -3947.06887817737288
 One-Electron (beta)  Energy = -3900.22408574520387
 Total Coulomb        Energy = 2619.20644027647450
    4   -4921.4880263185      3.28e-03  
 Alpha HF Exchange    Energy = -19.00608176517234
 Beta HF Exchange     Energy = -18.82710174410347
 DFT Correlation      Energy =  -5.15361244575470
 DFT Exchange         Energy = -150.57952094869648
 One-Electron (alpha) Energy = -3945.42999202943338
 One-Electron (beta)  Energy = -3900.07078426544649
 Total Coulomb        Energy = 2616.99148218044775
    5   -4921.6188853382      1.23e-03  
 Alpha HF Exchange    Energy = -18.99691911537714
 Beta HF Exchange     Energy = -18.81588799781593
 DFT Correlation      Energy =  -5.15181072857591
 DFT Exchange         Energy = -150.50313671963059
 One-Electron (alpha) Energy = -3943.94414538016099
 One-Electron (beta)  Energy = -3898.45260813744835
 Total Coulomb        Energy = 2613.76905433087177
    6   -4921.6387280681      1.98e-04  
 Alpha HF Exchange    Energy = -18.99625067870046
 Beta HF Exchange     Energy = -18.81508684364607
 DFT Correlation      Energy =  -5.15112688928247
 DFT Exchange         Energy = -150.49624997568679
 One-Electron (alpha) Energy = -3943.82977127429058
 One-Electron (beta)  Energy = -3898.32692860557745
 Total Coulomb        Energy = 2613.51916178443344
    7   -4921.6395268028      1.12e-04  
 Alpha HF Exchange    Energy = -18.99671768171160
 Beta HF Exchange     Energy = -18.81567662972990
 DFT Correlation      Energy =  -5.15139559617513
 DFT Exchange         Energy = -150.50030578530311
 One-Electron (alpha) Energy = -3943.82372580570336
 One-Electron (beta)  Energy = -3898.34607957806520
 Total Coulomb        Energy = 2613.53746076489278
    8   -4921.6397146318      4.58e-05  
 Alpha HF Exchange    Energy = -18.99672809409245
 Beta HF Exchange     Energy = -18.81586119589576
 DFT Correlation      Energy =  -5.15128541212499
 DFT Exchange         Energy = -150.50047343362971
 One-Electron (alpha) Energy = -3943.83613352705970
 One-Electron (beta)  Energy = -3898.37903713021478
 Total Coulomb        Energy = 2613.58304540316431
    9   -4921.6397477099      1.37e-05  
 Alpha HF Exchange    Energy = -18.99673513811211
 Beta HF Exchange     Energy = -18.81598608847764
 DFT Correlation      Energy =  -5.15127438434398
 DFT Exchange         Energy = -150.50082765072148
 One-Electron (alpha) Energy = -3943.83015273719639
 One-Electron (beta)  Energy = -3898.38479663795442
 Total Coulomb        Energy = 2613.58329367541728
   10   -4921.6397532814      7.16e-06  
 Alpha HF Exchange    Energy = -18.99673470288072
 Beta HF Exchange     Energy = -18.81598219729974
 DFT Correlation      Energy =  -5.15126369114501
 DFT Exchange         Energy = -150.50075573373988
 One-Electron (alpha) Energy = -3943.82483063528116
 One-Electron (beta)  Energy = -3898.38271241130224
 Total Coulomb        Energy = 2613.57579899144275
   11   -4921.6397547002      2.12e-06  
 Alpha HF Exchange    Energy = -18.99673428759899
 Beta HF Exchange     Energy = -18.81600414075748
 DFT Correlation      Energy =  -5.15126025053281
 DFT Exchange         Energy = -150.50080041257064
 One-Electron (alpha) Energy = -3943.82435569835843
 One-Electron (beta)  Energy = -3898.38572931204044
 Total Coulomb        Energy = 2613.57840281407880
   12   -4921.6397556078      1.46e-06  
 Alpha HF Exchange    Energy = -18.99673132080757
 Beta HF Exchange     Energy = -18.81600426749986
 DFT Correlation      Energy =  -5.15125824681093
 DFT Exchange         Energy = -150.50078350846243
 One-Electron (alpha) Energy = -3943.82337879087254
 One-Electron (beta)  Energy = -3898.38564737292154
 Total Coulomb        Energy = 2613.57732156489419
   13   -4921.6397562625      1.36e-06  
 Alpha HF Exchange    Energy = -18.99673204783620
 Beta HF Exchange     Energy = -18.81600468820971
 DFT Correlation      Energy =  -5.15125877428144
 DFT Exchange         Energy = -150.50078907762583
 One-Electron (alpha) Energy = -3943.82330950335790
 One-Electron (beta)  Energy = -3898.38586540695860
 Total Coulomb        Energy = 2613.57747660094174
   14   -4921.6397572173      1.30e-06  
 Alpha HF Exchange    Energy = -18.99673375109213
 Beta HF Exchange     Energy = -18.81600525430217
 DFT Correlation      Energy =  -5.15125965658433
 DFT Exchange         Energy = -150.50079841686033
 One-Electron (alpha) Energy = -3943.82360998292643
 One-Electron (beta)  Energy = -3898.38636993207547
 Total Coulomb        Energy = 2613.57829182463274
   15   -4921.6397594892      1.19e-06  
 Alpha HF Exchange    Energy = -18.99672963617552
 Beta HF Exchange     Energy = -18.81600894214170
 DFT Correlation      Energy =  -5.15125981501721
 DFT Exchange         Energy = -150.50079033218361
 One-Electron (alpha) Energy = -3943.82291411742017
 One-Electron (beta)  Energy = -3898.38697639195016
 Total Coulomb        Energy = 2613.57818782555842
   16   -4921.6397657293      9.49e-07  Convergence criterion met
 ---------------------------------------
 SCF time:   CPU 73.85s  wall 6.00s 
<S^2> =          2.011144166
 Alpha HF Exchange    Energy = -18.99672963617552
 Beta HF Exchange     Energy = -18.81600894214170
 DFT Correlation      Energy =  -5.15125981501721
 DFT Exchange         Energy = -150.50079033218361
 One-Electron (alpha) Energy = -3943.82291411742017
 One-Electron (beta)  Energy = -3898.38697639195016
 Total Coulomb        Energy = 2613.57818782555842
 Nuclear repulsion Energy = 500.45672567999299
 SCF   energy in the final basis set =    -4921.6397657293
 Total energy in the final basis set =    -4921.6397657293
 
 --------------------------------------------------------------
 
                    Orbital Energies (a.u.)
 --------------------------------------------------------------
 
 Alpha MOs
 -- Occupied --
*******-453.901 -58.100 -58.096 -52.159 -52.156 -52.154 -52.153
-52.153 -52.150 -10.243 -10.210 -10.197  -7.834  -7.830  -5.782
 -5.775  -5.774  -5.771  -5.764  -5.762  -2.114  -2.113  -2.108
 -2.108  -2.104  -2.100  -2.100  -2.098  -2.098  -2.096  -0.819
 -0.703  -0.696  -0.693  -0.586  -0.484  -0.440  -0.433  -0.392
 -0.385  -0.381  -0.363  -0.338  -0.284  -0.244  -0.242  -0.208
 -- Virtual --
 -0.013   0.028   0.046   0.096   0.117   0.124   0.150   0.158
  0.164   0.179   0.214   0.230   0.247   0.256   0.271   0.290
  0.307   0.327   0.400   0.442   0.443   0.493   0.513   0.524
  0.540   0.543   0.544   0.552   0.569   0.579   0.633   0.667
  0.684   0.704   0.748   0.772   0.798   0.812   0.857   0.874
  0.891   0.908   0.929   1.000   1.016   1.086   1.096   1.187
  1.341   1.426   1.436   1.482   1.528   1.637   1.712   1.768
  1.841   1.881   1.917   1.972   2.021   2.036   2.074   2.079
  2.083   2.091   2.106   2.122   2.134   2.269   2.301   2.348
  2.401   2.493   2.558   2.585   2.597   2.641   2.656   2.699
  2.745   2.827   2.864   2.919   3.179   3.279   3.381   3.409
  3.455   3.522   4.195   4.221   4.221   4.243   4.264   4.265
  4.296   4.336   4.375   4.395   4.422   4.474   4.605   5.409
  5.486  89.581  89.831
 
 Beta MOs
 -- Occupied --
*******-453.900 -58.099 -58.096 -52.155 -52.155 -52.153 -52.152
-52.152 -52.150 -10.245 -10.198 -10.197  -7.830  -7.828  -5.774
 -5.773  -5.773  -5.770  -5.762  -5.761  -2.109  -2.108  -2.107
 -2.106  -2.099  -2.099  -2.099  -2.096  -2.096  -2.095  -0.811
 -0.695  -0.675  -0.662  -0.578  -0.479  -0.437  -0.428  -0.388
 -0.381  -0.370  -0.360  -0.320  -0.236  -0.229
 -- Virtual --
 -0.161  -0.085  -0.002   0.032   0.058   0.098   0.119   0.132
  0.155   0.160   0.166   0.185   0.220   0.234   0.255   0.261
  0.285   0.300   0.311   0.335   0.410   0.447   0.453   0.501
  0.522   0.547   0.555   0.561   0.584   0.586   0.589   0.606
  0.644   0.672   0.686   0.708   0.753   0.778   0.812   0.817
  0.859   0.876   0.893   0.914   0.931   1.016   1.018   1.091
  1.101   1.193   1.357   1.427   1.456   1.499   1.544   1.642
  1.717   1.768   1.843   1.888   1.934   1.992   2.026   2.037
  2.075   2.079   2.083   2.096   2.107   2.127   2.137   2.275
  2.302   2.350   2.411   2.507   2.569   2.596   2.598   2.643
  2.656   2.702   2.747   2.829   2.864   2.922   3.179   3.282
  3.386   3.410   3.456   3.527   4.210   4.234   4.235   4.256
  4.266   4.267   4.299   4.339   4.381   4.399   4.432   4.477
  4.609   5.423   5.491  89.586  89.833
 --------------------------------------------------------------
 
          Ground-State Mulliken Net Atomic Charges

     Atom                 Charge (a.u.)    Spin (a.u.)
  --------------------------------------------------------
      1 Se                   -0.119386       1.009943
      2 C                    -0.209548       0.929329
      3 C                    -0.151955      -0.110994
      4 C                    -0.310576       0.007798
      5 Se                   -0.094099       0.268958
      6 H                     0.059567      -0.006738
      7 H                     0.084561      -0.026326
      8 H                     0.125467      -0.041043
      9 H                     0.113479      -0.041477
     10 H                     0.139098       0.011374
     11 H                     0.114286      -0.000939
     12 H                     0.129695       0.001099
     13 H                     0.119413      -0.000983
  --------------------------------------------------------
  Sum of atomic charges =     0.000000
  Sum of spin   charges =     2.000000

 -----------------------------------------------------------------
                    Cartesian Multipole Moments
 -----------------------------------------------------------------
    Charge (ESU x 10^10)
                 0.0000
    Dipole Moment (Debye)
         X      -1.6984      Y      -2.4160      Z       0.3564
       Tot       2.9747
    Quadrupole Moments (Debye-Ang)
        XX     -63.1392     XY      -0.6814     YY     -57.3097
        XZ      -0.6087     YZ      -0.6035     ZZ     -56.6295
    Octopole Moments (Debye-Ang^2)
       XXX    -104.2969    XXY      -7.7394    XYY     -34.3212
       YYY       9.7953    XXZ      -4.7445    XYZ      -5.3509
       YYZ     -10.6612    XZZ     -36.4123    YZZ      -2.2069
       ZZZ     -26.4454
    Hexadecapole Moments (Debye-Ang^3)
      XXXX   -1633.2704   XXXY    -299.0197   XXYY    -382.0122
      XYYY    -288.6441   YYYY    -721.7021   XXXZ     -87.7164
      XXYZ     -13.5498   XYYZ     -44.8292   YYYZ     -25.5347
      XXZZ    -302.2556   XYZZ    -108.8538   YYZZ    -146.4525
      XZZZ    -114.2829   YZZZ     -25.3875   ZZZZ    -145.9951
 -----------------------------------------------------------------
 Calculating analytic gradient of the SCF energy
 Gradient of SCF Energy
            1           2           3           4           5           6
    1  -0.0062544   0.0071886   0.0000733   0.0000601   0.0007089   0.0001608
    2  -0.0040350   0.0003553   0.0001432  -0.0000889  -0.0000140   0.0000199
    3   0.0001087  -0.0036846  -0.0001186  -0.0000311   0.0001046  -0.0000448
            7           8           9          10          11          12
    1   0.0052229  -0.0072560   0.0001677  -0.0000357  -0.0000302   0.0000447
    2   0.0036316  -0.0000827   0.0000514  -0.0000473   0.0000238   0.0000515
    3  -0.0003108   0.0039049   0.0000015   0.0000071   0.0000266  -0.0000043
           13
    1  -0.0000507
    2  -0.0000087
    3   0.0000407
 Max gradient component =       7.256E-03
 RMS gradient           =       2.428E-03
 Gradient time:  CPU 17.52 s  wall 1.61 s
 Geometry Optimization Parameters
   NAtoms,    NIC,     NZ,  NCons,   NDum,   NFix, NCnnct, MaxDiis
       13      77       0       1       0       0       0       0

 Cartesian Hessian Update
 Hessian Updated using BFGS Update


** CONSTRAINED OPTIMIZATION IN DELOCALIZED INTERNAL COORDINATES **
   Searching for a Minimum

   Optimization Cycle:   2

                       Coordinates (Angstroms)
     ATOM                X               Y               Z
      1  Se        3.2800283613    1.2266295924    0.5409223613
      2  C         0.4301145133   -1.9867447751    0.3020671511
      3  C        -0.7714812613   -1.5167417532   -0.3622841310
      4  C        -2.0930976737   -2.0504579744    0.1793706063
      5  Se       -0.7748031278    0.5933196695   -0.2478352284
      6  H        -0.8992597181    0.5904050378    1.2218139908
      7  H         2.0535742765    0.4240786276    0.5294140258
      8  H         1.3801029387   -1.9633963715   -0.1951091004
      9  H         0.4163269016   -2.2119510552    1.3642981699
     10  H        -0.7104798472   -1.6179288862   -1.4489702431
     11  H        -2.1847521077   -1.8608389420    1.2536618547
     12  H        -2.9473109304   -1.5905567629   -0.3219864275
     13  H        -2.1409623251   -3.1352204067    0.0261349706
   Point Group: c1    Number of degrees of freedom:    33


   Energy is  -4921.639765729

              Constraints and their Current Values
                                        Value     Constraint
   Distance(Angs):        1   2             4.301725     4.300000
 Hessian Updated using BFGS Update

   Using Lagrange Multiplier Algorithm


 28 Hessian modes will be used to form the next step
  Hessian Eigenvalues:
    -0.991853    0.038297    0.044983    0.045253    0.045910    0.052306
     0.072287    0.081523    0.082456    0.084075    0.108568    0.114867
     0.159144    0.160000    0.161445    0.180152    0.188254    0.201985
     0.212172    0.299134    0.340624    0.342709    0.344576    0.345785
     0.352849    0.380167    0.442656    1.011549

 Minimum Search - Taking P-RFO Step
 Searching for Lamda that Maximizes Along the Constraint modes Only
 Value Taken    Lamda =   0.00001418
 Searching for Lamda that Minimizes Along All other modes
 Value Taken    Lamda =  -0.00031982
 Step Taken.  Stepsize is  0.046657

                             Maximum     Tolerance    Cnvgd?
         Gradient            0.005399       0.000300      NO
         Displacement        0.024790       0.001200      NO
         Energy change      0.000373       0.000001      NO


 New Cartesian Coordinates Obtained by Inverse Iteration

 Displacement from previous Coordinates is:  0.153371
 ----------------------------------------------------------------
             Standard Nuclear Orientation (Angstroms)
    I     Atom           X                Y                Z
 ----------------------------------------------------------------
    1      Se      3.3210045010     1.2028446780     0.5460291585
    2      C       0.4299337874    -1.9707353401     0.3008701001
    3      C      -0.7766908149    -1.5108590425    -0.3627474899
    4      C      -2.0925544670    -2.0565240199     0.1810170044
    5      Se     -0.8064584217     0.5992162652    -0.2530798903
    6      H      -0.9331027006     0.5980429595     1.2164280186
    7      H       2.0760163113     0.4128633798     0.5352474429
    8      H       1.3849130185    -1.9485961826    -0.2000050311
    9      H       0.4171972763    -2.1978224263     1.3627291169
   10      H      -0.7157345786    -1.6137952354    -1.4492741316
   11      H      -2.1851085860    -1.8658904923     1.2550240622
   12      H      -2.9518372718    -1.6061915237    -0.3204098805
   13      H      -2.1295780538    -3.1419570198     0.0296695196
 ----------------------------------------------------------------
 Nuclear Repulsion Energy =   497.5819044332 hartrees
 There are       48 alpha and       46 beta electrons

                       Distance Matrix (Angstroms)
             Se(  1)   C (  2)   C (  3)   C (  4)   Se(  5)   H (  6)
   C (  2)  4.300000
   C (  3)  4.998117  1.451832
   C (  4)  6.329561  2.526791  1.524771
   Se(  5)  4.247222  2.905198  2.113133  2.982522
   H (  6)  4.348867  3.048727  2.639266  3.076220  1.474955
   H (  7)  1.474511  2.906211  3.555987  4.858018  2.994136  3.090808
   H (  8)  3.773141  1.078588  2.211477  3.499944  3.360993  3.723553
   H (  9)  4.545727  1.085944  2.207840  2.777636  3.454214  3.108308
   H ( 10)  5.311305  2.122020  1.093093  2.179333  2.517247  3.470655
   H ( 11)  6.343271  2.785651  2.174137  1.094714  3.201844  2.764051
   H ( 12)  6.927478  3.457637  2.177646  1.092060  3.077500  3.360924
   H ( 13)  6.989476  2.827793  2.155174  1.096559  3.978312  4.102140
             H (  7)   H (  8)   H (  9)   H ( 10)   H ( 11)   H ( 12)
   H (  8)  2.568017
   H (  9)  3.201888  1.854919
   H ( 10)  3.979892  2.466878  3.087391
   H ( 11)  4.885487  3.856035  2.625600  3.088016
   H ( 12)  5.485257  4.351912  3.812267  2.504905  1.771245
   H ( 13)  5.529863  3.718670  3.025641  2.553724  1.770007  1.776863

 
 Applying Cartesian multipole field
    Component          Value
    ---------          -----
     (2,0,0)        1.00000E-11
     (0,2,0)        2.00000E-11
     (0,0,2)       -3.00000E-10
 Nucleus-field energy     =     0.0000000042 hartrees
 Requested basis set is 6-31G(d,p)
 There are 52 shells and 155 basis functions
 A cutoff of  1.0D-14 yielded   1195 shell pairs
 There are     10315 function pairs
 Smallest overlap matrix eigenvalue = 6.74E-04
 Guess from superposition of atomic densities
 Warning:  Energy on first SCF cycle will be non-variational
 SAD guess density has 93.936381 electrons

 -----------------------------------------------------------------------
  General SCF calculation program by
  Eric Jon Sundstrom, Paul Horn, Yuezhi Mao, Dmitri Zuev, Alec White,
  David Stuck, Shaama M.S., Shane Yost, Joonho Lee, David Small,
  Daniel Levine, Susi Lehtola, Hugh Burton, Evgeny Epifanovsky
 -----------------------------------------------------------------------
 Exchange:     0.2000 Hartree-Fock + 0.0800 Slater + 0.7200 B88
 Correlation:  0.1900 VWN1RPA + 0.8100 LYP
 Using SG-1 standard quadrature grid
 using 12 threads for integral computing
 -------------------------------------------------------
 OpenMP Integral computing Module                
 Release: version 1.0, May 2013, Q-Chem Inc. Pittsburgh 
 -------------------------------------------------------
 -------------------------------------------------------
 OpenMP BLAS3 based DFT computing Module                
 Release: version 1.0, May 2013, Q-Chem Inc. Pittsburgh 
 -------------------------------------------------------
 A unrestricted SCF calculation will be
 performed using DIIS
 SCF converges when DIIS error is below 1.0e-06
 Alpha HF Exchange    Energy = -18.84352822724438
 Beta HF Exchange     Energy = -18.84352822724438
 DFT Correlation      Energy =  -5.12726035973176
 DFT Exchange         Energy = -149.85057733025235
 One-Electron (alpha) Energy = -3915.22246414937354
 One-Electron (beta)  Energy = -3915.22246414937354
 Total Coulomb        Energy = 2598.09864319945109
 ---------------------------------------
  Cycle       Energy         DIIS error
 ---------------------------------------
    1   -4927.4292748063      1.50e-01  
 Alpha HF Exchange    Energy = -19.06354231582442
 Beta HF Exchange     Energy = -18.86353980101571
 DFT Correlation      Energy =  -5.17537776742765
 DFT Exchange         Energy = -151.01171084322840
 One-Electron (alpha) Energy = -3948.12259155850916
 One-Electron (beta)  Energy = -3901.28191539972477
 Total Coulomb        Energy = 2624.45074461105241
    2   -4921.4860286372      9.32e-03  
 Alpha HF Exchange    Energy = -18.92545125994499
 Beta HF Exchange     Energy = -18.75532522230924
 DFT Correlation      Energy =  -5.13185674124255
 DFT Exchange         Energy = -149.98046564160106
 One-Electron (alpha) Energy = -3934.36315837472785
 One-Electron (beta)  Energy = -3889.92135890828604
 Total Coulomb        Energy = 2597.98445094278895
    3   -4921.5112607679      3.59e-03  
 Alpha HF Exchange    Energy = -19.03919361124951
 Beta HF Exchange     Energy = -18.84220494271483
 DFT Correlation      Energy =  -5.16542300209430
 DFT Exchange         Energy = -150.81049614599948
 One-Electron (alpha) Energy = -3944.25042660761574
 One-Electron (beta)  Energy = -3897.65433906026556
 Total Coulomb        Energy = 2616.66558405846854
    4   -4921.5145948740      3.10e-03  
 Alpha HF Exchange    Energy = -19.00432433362425
 Beta HF Exchange     Energy = -18.82496777595227
 DFT Correlation      Energy =  -5.15278860315928
 DFT Exchange         Energy = -150.56458845455293
 One-Electron (alpha) Energy = -3942.34410249640496
 One-Electron (beta)  Energy = -3897.05804911379028
 Total Coulomb        Energy = 2613.74301422340113
    5   -4921.6239021166      1.09e-03  
 Alpha HF Exchange    Energy = -18.99638024416028
 Beta HF Exchange     Energy = -18.81530439067896
 DFT Correlation      Energy =  -5.15138942819130
 DFT Exchange         Energy = -150.49920689055304
 One-Electron (alpha) Energy = -3941.00789364271441
 One-Electron (beta)  Energy = -3895.60960226391126
 Total Coulomb        Energy = 2610.85855345966456
    6   -4921.6393189631      1.54e-04  
 Alpha HF Exchange    Energy = -18.99559582563283
 Beta HF Exchange     Energy = -18.81462296151282
 DFT Correlation      Energy =  -5.15066909026153
 DFT Exchange         Energy = -150.49203037446642
 One-Electron (alpha) Energy = -3940.88190511806033
 One-Electron (beta)  Energy = -3895.49249627772679
 Total Coulomb        Energy = 2610.60563235238715
    7   -4921.6397828578      9.92e-05  
 Alpha HF Exchange    Energy = -18.99607858893675
 Beta HF Exchange     Energy = -18.81525962932350
 DFT Correlation      Energy =  -5.15091169162318
 DFT Exchange         Energy = -150.49627200387999
 One-Electron (alpha) Energy = -3940.89306691724187
 One-Electron (beta)  Energy = -3895.52773161781852
 Total Coulomb        Energy = 2610.65747569127461
    8   -4921.6399403201      3.78e-05  
 Alpha HF Exchange    Energy = -18.99611522886998
 Beta HF Exchange     Energy = -18.81543685259571
 DFT Correlation      Energy =  -5.15083206105755
 DFT Exchange         Energy = -150.49660082699143
 One-Electron (alpha) Energy = -3940.90429864108000
 One-Electron (beta)  Energy = -3895.55694024747891
 Total Coulomb        Energy = 2610.69835455998873
    9   -4921.6399648606      1.14e-05  
 Alpha HF Exchange    Energy = -18.99612439056138
 Beta HF Exchange     Energy = -18.81555196382276
 DFT Correlation      Energy =  -5.15081864306976
 DFT Exchange         Energy = -150.49692572101929
 One-Electron (alpha) Energy = -3940.89991344514146
 One-Electron (beta)  Energy = -3895.56325471259379
 Total Coulomb        Energy = 2610.70071513207131
   10   -4921.6399693067      5.91e-06  
 Alpha HF Exchange    Energy = -18.99612062780252
 Beta HF Exchange     Energy = -18.81554603820069
 DFT Correlation      Energy =  -5.15080866230108
 DFT Exchange         Energy = -150.49684130502396
 One-Electron (alpha) Energy = -3940.89461374612165
 One-Electron (beta)  Energy = -3895.56081745053189
 Total Coulomb        Energy = 2610.69287299753614
   11   -4921.6399703950      1.93e-06  
 Alpha HF Exchange    Energy = -18.99611926915464
 Beta HF Exchange     Energy = -18.81556365855170
 DFT Correlation      Energy =  -5.15080515445027
 DFT Exchange         Energy = -150.49687134813061
 One-Electron (alpha) Energy = -3940.89412019143538
 One-Electron (beta)  Energy = -3895.56329537098918
 Total Coulomb        Energy = 2610.69489937292337
   12   -4921.6399711823      1.35e-06  
 Alpha HF Exchange    Energy = -18.99611793461789
 Beta HF Exchange     Energy = -18.81556377610306
 DFT Correlation      Energy =  -5.15080393029204
 DFT Exchange         Energy = -150.49686332357200
 One-Electron (alpha) Energy = -3940.89351200661758
 One-Electron (beta)  Energy = -3895.56329579629892
 Total Coulomb        Energy = 2610.69428057315054
   13   -4921.6399717569      1.28e-06  
 Alpha HF Exchange    Energy = -18.99611836868158
 Beta HF Exchange     Energy = -18.81556369596219
 DFT Correlation      Energy =  -5.15080444242883
 DFT Exchange         Energy = -150.49686630663209
 One-Electron (alpha) Energy = -3940.89343923076376
 One-Electron (beta)  Energy = -3895.56341641769041
 Total Coulomb        Energy = 2610.69433143246079
   14   -4921.6399725922      1.23e-06  
 Alpha HF Exchange    Energy = -18.99612004723217
 Beta HF Exchange     Energy = -18.81556411981286
 DFT Correlation      Energy =  -5.15080514608226
 DFT Exchange         Energy = -150.49687489555967
 One-Electron (alpha) Energy = -3940.89374052603625
 One-Electron (beta)  Energy = -3895.56387123849299
 Total Coulomb        Energy = 2610.69509681816226
   15   -4921.6399747176      1.14e-06  
 Alpha HF Exchange    Energy = -18.99611654041516
 Beta HF Exchange     Energy = -18.81556773914123
 DFT Correlation      Energy =  -5.15080563509734
 DFT Exchange         Energy = -150.49686979951312
 One-Electron (alpha) Energy = -3940.89319810933011
 One-Electron (beta)  Energy = -3895.56451073384778
 Total Coulomb        Energy = 2610.69518342608262
   16   -4921.6399806938      9.30e-07  Convergence criterion met
 ---------------------------------------
 SCF time:   CPU 73.99s  wall 6.00s 
<S^2> =          2.011143068
 Alpha HF Exchange    Energy = -18.99611654041516
 Beta HF Exchange     Energy = -18.81556773914123
 DFT Correlation      Energy =  -5.15080563509734
 DFT Exchange         Energy = -150.49686979951312
 One-Electron (alpha) Energy = -3940.89319810933011
 One-Electron (beta)  Energy = -3895.56451073384778
 Total Coulomb        Energy = 2610.69518342608262
 Nuclear repulsion Energy = 497.58190443746918
 SCF   energy in the final basis set =    -4921.6399806938
 Total energy in the final basis set =    -4921.6399806938
 
 --------------------------------------------------------------
 
                    Orbital Energies (a.u.)
 --------------------------------------------------------------
 
 Alpha MOs
 -- Occupied --
*******-453.900 -58.101 -58.096 -52.160 -52.157 -52.154 -52.153
-52.152 -52.150 -10.243 -10.211 -10.197  -7.835  -7.829  -5.783
 -5.776  -5.774  -5.771  -5.765  -5.761  -2.115  -2.115  -2.108
 -2.107  -2.106  -2.101  -2.099  -2.099  -2.097  -2.095  -0.818
 -0.703  -0.696  -0.692  -0.586  -0.484  -0.440  -0.432  -0.391
 -0.384  -0.381  -0.362  -0.337  -0.285  -0.244  -0.242  -0.208
 -- Virtual --
 -0.012   0.027   0.045   0.096   0.117   0.123   0.150   0.158
  0.164   0.179   0.213   0.230   0.247   0.257   0.271   0.288
  0.306   0.326   0.398   0.442   0.443   0.494   0.513   0.521
  0.539   0.542   0.543   0.552   0.569   0.580   0.631   0.666
  0.684   0.705   0.748   0.772   0.797   0.813   0.857   0.874
  0.891   0.907   0.929   0.999   1.016   1.080   1.096   1.187
  1.341   1.427   1.436   1.482   1.527   1.636   1.711   1.768
  1.840   1.881   1.916   1.972   2.019   2.036   2.074   2.078
  2.082   2.089   2.106   2.121   2.130   2.270   2.300   2.347
  2.399   2.492   2.556   2.584   2.597   2.639   2.649   2.699
  2.743   2.824   2.864   2.918   3.179   3.273   3.380   3.408
  3.456   3.517   4.195   4.219   4.220   4.242   4.262   4.265
  4.297   4.337   4.375   4.395   4.423   4.474   4.606   5.407
  5.485  89.578  89.826
 
 Beta MOs
 -- Occupied --
*******-453.900 -58.100 -58.095 -52.157 -52.156 -52.154 -52.152
-52.151 -52.149 -10.245 -10.199 -10.197  -7.832  -7.828  -5.775
 -5.774  -5.773  -5.769  -5.763  -5.761  -2.110  -2.109  -2.106
 -2.106  -2.100  -2.100  -2.098  -2.097  -2.096  -2.094  -0.810
 -0.694  -0.675  -0.662  -0.578  -0.479  -0.437  -0.427  -0.388
 -0.380  -0.370  -0.360  -0.319  -0.235  -0.230
 -- Virtual --
 -0.162  -0.085  -0.002   0.032   0.056   0.098   0.120   0.131
  0.156   0.160   0.166   0.185   0.219   0.233   0.255   0.261
  0.284   0.299   0.310   0.334   0.407   0.448   0.453   0.501
  0.522   0.546   0.555   0.559   0.583   0.586   0.588   0.606
  0.642   0.671   0.686   0.710   0.753   0.778   0.812   0.818
  0.859   0.876   0.893   0.913   0.931   1.015   1.018   1.085
  1.102   1.193   1.357   1.428   1.456   1.499   1.542   1.642
  1.716   1.768   1.843   1.888   1.933   1.992   2.025   2.037
  2.075   2.078   2.081   2.094   2.107   2.125   2.134   2.275
  2.301   2.350   2.410   2.505   2.568   2.595   2.598   2.641
  2.650   2.702   2.745   2.826   2.864   2.920   3.179   3.276
  3.384   3.409   3.456   3.522   4.210   4.233   4.233   4.255
  4.265   4.267   4.300   4.339   4.381   4.400   4.432   4.478
  4.609   5.421   5.490  89.583  89.828
 --------------------------------------------------------------
 
          Ground-State Mulliken Net Atomic Charges

     Atom                 Charge (a.u.)    Spin (a.u.)
  --------------------------------------------------------
      1 Se                   -0.116359       1.013160
      2 C                    -0.209968       0.930090
      3 C                    -0.151496      -0.111147
      4 C                    -0.310512       0.007879
      5 Se                   -0.095397       0.265828
      6 H                     0.059117      -0.006675
      7 H                     0.084043      -0.026744
      8 H                     0.125086      -0.041357
      9 H                     0.113543      -0.041564
     10 H                     0.138905       0.011349
     11 H                     0.114184      -0.000944
     12 H                     0.129783       0.001155
     13 H                     0.119070      -0.001030
  --------------------------------------------------------
  Sum of atomic charges =     0.000000
  Sum of spin   charges =     2.000000

 -----------------------------------------------------------------
                    Cartesian Multipole Moments
 -----------------------------------------------------------------
    Charge (ESU x 10^10)
                -0.0000
    Dipole Moment (Debye)
         X      -1.6371      Y      -2.3847      Z       0.3665
       Tot       2.9157
    Quadrupole Moments (Debye-Ang)
        XX     -63.0901     XY      -0.5849     YY     -57.2412
        XZ      -0.6498     YZ      -0.5908     ZZ     -56.6577
    Octopole Moments (Debye-Ang^2)
       XXX    -104.1842    XXY      -7.1499    XYY     -34.2641
       YYY      10.6985    XXZ      -4.7071    XYZ      -5.4778
       YYZ     -10.5884    XZZ     -36.6489    YZZ      -1.9104
       ZZZ     -26.4865
    Hexadecapole Moments (Debye-Ang^3)
      XXXX   -1668.3657   XXXY    -295.2885   XXYY    -386.1802
      XYYY    -285.9130   YYYY    -713.7709   XXXZ     -90.6054
      XXYZ     -13.8241   XYYZ     -45.7740   YYYZ     -24.6998
      XXZZ    -308.7719   XYZZ    -108.1159   YYZZ    -145.3164
      XZZZ    -117.1983   YZZZ     -24.7972   ZZZZ    -146.9770
 -----------------------------------------------------------------
 Calculating analytic gradient of the SCF energy
 Gradient of SCF Energy
            1           2           3           4           5           6
    1  -0.0032558   0.0037634  -0.0001102   0.0000340   0.0000480   0.0001249
    2  -0.0023336   0.0002399   0.0000388   0.0001318   0.0001741  -0.0000055
    3   0.0001471  -0.0018392   0.0000691  -0.0000104   0.0000048  -0.0000481
            7           8           9          10          11          12
    1   0.0025995  -0.0032018   0.0000311   0.0000144  -0.0000151  -0.0000344
    2   0.0019091  -0.0001590  -0.0000154  -0.0000622   0.0000380   0.0000100
    3  -0.0002827   0.0019802  -0.0000221   0.0000142  -0.0000007  -0.0000092
           13
    1   0.0000021
    2   0.0000340
    3  -0.0000030
 Max gradient component =       3.763E-03
 RMS gradient           =       1.224E-03
 Gradient time:  CPU 17.77 s  wall 1.56 s
 Geometry Optimization Parameters
   NAtoms,    NIC,     NZ,  NCons,   NDum,   NFix, NCnnct, MaxDiis
       13      77       0       1       0       0       0       0

 Cartesian Hessian Update
 Hessian Updated using BFGS Update


** CONSTRAINED OPTIMIZATION IN DELOCALIZED INTERNAL COORDINATES **
   Searching for a Minimum

   Optimization Cycle:   3

                       Coordinates (Angstroms)
     ATOM                X               Y               Z
      1  Se        3.3210045010    1.2028446780    0.5460291585
      2  C         0.4299337874   -1.9707353401    0.3008701001
      3  C        -0.7766908149   -1.5108590425   -0.3627474899
      4  C        -2.0925544670   -2.0565240199    0.1810170044
      5  Se       -0.8064584217    0.5992162652   -0.2530798903
      6  H        -0.9331027006    0.5980429595    1.2164280186
      7  H         2.0760163113    0.4128633798    0.5352474429
      8  H         1.3849130185   -1.9485961826   -0.2000050311
      9  H         0.4171972763   -2.1978224263    1.3627291169
     10  H        -0.7157345786   -1.6137952354   -1.4492741316
     11  H        -2.1851085860   -1.8658904923    1.2550240622
     12  H        -2.9518372718   -1.6061915237   -0.3204098805
     13  H        -2.1295780538   -3.1419570198    0.0296695196
   Point Group: c1    Number of degrees of freedom:    33


   Energy is  -4921.639980694

              Constraints and their Current Values
                                        Value     Constraint
   Distance(Angs):        1   2             4.300000     4.300000
 Hessian Updated using BFGS Update

 28 Hessian modes will be used to form the next step
  Hessian Eigenvalues:
     0.034574    0.044407    0.045000    0.045115    0.045505    0.049648
     0.072294    0.081494    0.082470    0.084076    0.108666    0.114842
     0.155965    0.159146    0.160000    0.161987    0.170568    0.180154
     0.201834    0.208834    0.299119    0.340596    0.342702    0.344572
     0.345570    0.347454    0.352869    0.385713

 Minimum Search - Taking Simple RFO Step
 Searching for Lamda that Minimizes Along All modes
 Value Taken    Lamda =  -0.00012785
 Step Taken.  Stepsize is  0.042646

                             Maximum     Tolerance    Cnvgd?
         Gradient           0.002562      0.000300      NO
         Displacement       0.018932      0.001200      NO
         Energy change     -0.000215      0.000001      NO


 New Cartesian Coordinates Obtained by Inverse Iteration

 Displacement from previous Coordinates is:  0.080846
 ----------------------------------------------------------------
             Standard Nuclear Orientation (Angstroms)
    I     Atom           X                Y                Z
 ----------------------------------------------------------------
    1      Se      3.3419855295     1.1930377835     0.5393728795
    2      C       0.4290968617    -1.9612324373     0.3034450316
    3      C      -0.7788482733    -1.5075163134    -0.3613266217
    4      C      -2.0928887384    -2.0601449598     0.1804426153
    5      Se     -0.8185426225     0.6011885681    -0.2525163105
    6      H      -0.9520964189     0.6010135059     1.2165177092
    7      H       2.0862557024     0.4016880614     0.5406454390
    8      H       1.3873412525    -1.9379545311    -0.2031717818
    9      H       0.4178864082    -2.1897242224     1.3650970296
   10      H      -0.7159595108    -1.6103646527    -1.4477690917
   11      H      -2.1883129607    -1.8700028680     1.2542785867
   12      H      -2.9531067687    -1.6135991406    -0.3226424743
   13      H      -2.1248104608    -3.1457927936     0.0291249891
 ----------------------------------------------------------------
 Nuclear Repulsion Energy =   496.3697038597 hartrees
 There are       48 alpha and       46 beta electrons

                       Distance Matrix (Angstroms)
             Se(  1)   C (  2)   C (  3)   C (  4)   Se(  5)   H (  6)
   C (  2)  4.300000
   C (  3)  5.008545  1.451520
   C (  4)  6.344280  2.526920  1.524997
   Se(  5)  4.276373  2.903739  2.111883  2.982299
   H (  6)  4.387272  3.050656  2.639224  3.075162  1.475092
   H (  7)  1.484282  2.895830  3.559134  4.863704  3.017741  3.118993
   H (  8)  3.764986  1.084175  2.214197  3.503440  3.363868  3.732941
   H (  9)  4.547005  1.086020  2.208647  2.779242  3.454652  3.112418
   H ( 10)  5.317398  2.121559  1.093110  2.179291  2.515973  3.470501
   H ( 11)  6.362194  2.786259  2.174435  1.094707  3.202107  2.763255
   H ( 12)  6.946112  3.457186  2.177189  1.092004  3.076779  3.358209
   H ( 13)  6.997976  2.828582  2.155926  1.096607  3.978131  4.101672
             H (  7)   H (  8)   H (  9)   H ( 10)   H ( 11)   H ( 12)
   H (  8)  2.552582
   H (  9)  3.190391  1.860833
   H ( 10)  3.981778  2.465809  3.087633
   H ( 11)  4.893035  3.861875  2.628075  3.088090
   H ( 12)  5.495618  4.354190  3.813657  2.504146  1.771252
   H ( 13)  5.529860  3.721296  3.027242  2.554137  1.769936  1.776917

 
 Applying Cartesian multipole field
    Component          Value
    ---------          -----
     (2,0,0)        1.00000E-11
     (0,2,0)        2.00000E-11
     (0,0,2)       -3.00000E-10
 Nucleus-field energy     =     0.0000000046 hartrees
 Requested basis set is 6-31G(d,p)
 There are 52 shells and 155 basis functions
 A cutoff of  1.0D-14 yielded   1195 shell pairs
 There are     10315 function pairs
 Smallest overlap matrix eigenvalue = 6.74E-04
 Guess from superposition of atomic densities
 Warning:  Energy on first SCF cycle will be non-variational
 SAD guess density has 93.936381 electrons

 -----------------------------------------------------------------------
  General SCF calculation program by
  Eric Jon Sundstrom, Paul Horn, Yuezhi Mao, Dmitri Zuev, Alec White,
  David Stuck, Shaama M.S., Shane Yost, Joonho Lee, David Small,
  Daniel Levine, Susi Lehtola, Hugh Burton, Evgeny Epifanovsky
 -----------------------------------------------------------------------
 Exchange:     0.2000 Hartree-Fock + 0.0800 Slater + 0.7200 B88
 Correlation:  0.1900 VWN1RPA + 0.8100 LYP
 Using SG-1 standard quadrature grid
 using 12 threads for integral computing
 -------------------------------------------------------
 OpenMP Integral computing Module                
 Release: version 1.0, May 2013, Q-Chem Inc. Pittsburgh 
 -------------------------------------------------------
 -------------------------------------------------------
 OpenMP BLAS3 based DFT computing Module                
 Release: version 1.0, May 2013, Q-Chem Inc. Pittsburgh 
 -------------------------------------------------------
 A unrestricted SCF calculation will be
 performed using DIIS
 SCF converges when DIIS error is below 1.0e-06
 Alpha HF Exchange    Energy = -18.84280758484019
 Beta HF Exchange     Energy = -18.84280758484019
 DFT Correlation      Energy =  -5.12704199945948
 DFT Exchange         Energy = -149.84887153296052
 One-Electron (alpha) Energy = -3914.01863436854455
 One-Electron (beta)  Energy = -3914.01863436854455
 Total Coulomb        Energy = 2596.90985609471545
 ---------------------------------------
  Cycle       Energy         DIIS error
 ---------------------------------------
    1   -4927.4192374802      1.50e-01  
 Alpha HF Exchange    Energy = -19.06298095487111
 Beta HF Exchange     Energy = -18.86330361938592
 DFT Correlation      Energy =  -5.17511866315700
 DFT Exchange         Energy = -151.00840371586935
 One-Electron (alpha) Energy = -3946.89097356473030
 One-Electron (beta)  Energy = -3900.12544010696229
 Total Coulomb        Energy = 2623.26832234579433
    2   -4921.4881944149      9.31e-03  
 Alpha HF Exchange    Energy = -18.92500974542521
 Beta HF Exchange     Energy = -18.75463736886149
 DFT Correlation      Energy =  -5.13156469112087
 DFT Exchange         Energy = -149.97647182476649
 One-Electron (alpha) Energy = -3933.09537058093292
 One-Electron (beta)  Energy = -3888.67136109157764
 Total Coulomb        Energy = 2596.67063485028848
    3   -4921.5140765881      3.57e-03  
 Alpha HF Exchange    Energy = -19.03907961700255
 Beta HF Exchange     Energy = -18.84302908199600
 DFT Correlation      Energy =  -5.16514605266313
 DFT Exchange         Energy = -150.81050577152166
 One-Electron (alpha) Energy = -3943.10483067460200
 One-Electron (beta)  Energy = -3896.65885191019152
 Total Coulomb        Energy = 2615.71978229365141
    4   -4921.5319569500      2.98e-03  
 Alpha HF Exchange    Energy = -19.00294978264406
 Beta HF Exchange     Energy = -18.82319671389541
 DFT Correlation      Energy =  -5.15224317234776
 DFT Exchange         Energy = -150.55275055341448
 One-Electron (alpha) Energy = -3940.98578115753890
 One-Electron (beta)  Energy = -3895.70757855192551
 Total Coulomb        Energy = 2612.22739844933631
    5   -4921.6273976181      9.79e-04  
 Alpha HF Exchange    Energy = -18.99594561568201
 Beta HF Exchange     Energy = -18.81476222394661
 DFT Correlation      Energy =  -5.15114988889667
 DFT Exchange         Energy = -150.49591114495604
 One-Electron (alpha) Energy = -3939.77329128555630
 One-Electron (beta)  Energy = -3894.40079392427333
 Total Coulomb        Energy = 2609.62254819505006
    6   -4921.6396020240      1.23e-04  
 Alpha HF Exchange    Energy = -18.99508674350161
 Beta HF Exchange     Energy = -18.81417888527875
 DFT Correlation      Energy =  -5.15041730692165
 DFT Exchange         Energy = -150.48864274954241
 One-Electron (alpha) Energy = -3939.63961354848743
 One-Electron (beta)  Energy = -3894.29160070590433
 Total Coulomb        Energy = 2609.36994593630970
    7   -4921.6398901390      8.61e-05  
 Alpha HF Exchange    Energy = -18.99557123336982
 Beta HF Exchange     Energy = -18.81482401353180
 DFT Correlation      Energy =  -5.15062609180727
 DFT Exchange         Energy = -150.49286196055317
 One-Electron (alpha) Energy = -3939.66277073803258
 One-Electron (beta)  Energy = -3894.33734159573896
 Total Coulomb        Energy = 2609.44427709952834
    8   -4921.6400146692      3.08e-05  
 Alpha HF Exchange    Energy = -18.99563178252614
 Beta HF Exchange     Energy = -18.81499727190092
 DFT Correlation      Energy =  -5.15057239794102
 DFT Exchange         Energy = -150.49334597607378
 One-Electron (alpha) Energy = -3939.67376735463677
 One-Electron (beta)  Energy = -3894.36382105887060
 Total Coulomb        Energy = 2609.48239958109343
    9   -4921.6400323965      9.77e-06  
 Alpha HF Exchange    Energy = -18.99564133638543
 Beta HF Exchange     Energy = -18.81509802635517
 DFT Correlation      Energy =  -5.15055794636015
 DFT Exchange         Energy = -150.49362600826365
 One-Electron (alpha) Energy = -3939.66997526615569
 One-Electron (beta)  Energy = -3894.36957175269254
 Total Coulomb        Energy = 2609.48473050492521
   10   -4921.6400359670      4.81e-06  
 Alpha HF Exchange    Energy = -18.99563435704613
 Beta HF Exchange     Energy = -18.81508989299617
 DFT Correlation      Energy =  -5.15054823474267
 DFT Exchange         Energy = -150.49352806694355
 One-Electron (alpha) Energy = -3939.66482658504128
 One-Electron (beta)  Energy = -3894.36695628257985
 Total Coulomb        Energy = 2609.47684276001746
   11   -4921.6400367950      1.78e-06  
 Alpha HF Exchange    Energy = -18.99563222097913
 Beta HF Exchange     Energy = -18.81510353384885
 DFT Correlation      Energy =  -5.15054485911326
 DFT Exchange         Energy = -150.49354598423042
 One-Electron (alpha) Energy = -3939.66436529472958
 One-Electron (beta)  Energy = -3894.36897838377854
 Total Coulomb        Energy = 2609.47842893297047
   12   -4921.6400374794      1.26e-06  
 Alpha HF Exchange    Energy = -18.99563232608691
 Beta HF Exchange     Energy = -18.81510374454215
 DFT Correlation      Energy =  -5.15054434173140
 DFT Exchange         Energy = -150.49354596619020
 One-Electron (alpha) Energy = -3939.66406162679505
 One-Electron (beta)  Energy = -3894.36906046060221
 Total Coulomb        Energy = 2609.47820660177194
   13   -4921.6400379999      1.21e-06  
 Alpha HF Exchange    Energy = -18.99563258224772
 Beta HF Exchange     Energy = -18.81510339363678
 DFT Correlation      Energy =  -5.15054482911402
 DFT Exchange         Energy = -150.49354745155654
 One-Electron (alpha) Energy = -3939.66398889879656
 One-Electron (beta)  Energy = -3894.36912016650695
 Total Coulomb        Energy = 2609.47819470532022
   14   -4921.6400387522      1.17e-06  
 Alpha HF Exchange    Energy = -18.99563385983184
 Beta HF Exchange     Energy = -18.81510353266884
 DFT Correlation      Energy =  -5.15054533160316
 DFT Exchange         Energy = -150.49355318005109
 One-Electron (alpha) Energy = -3939.66423925446225
 One-Electron (beta)  Energy = -3894.36951752507821
 Total Coulomb        Energy = 2609.47884792289142
   15   -4921.6400408965      1.07e-06  
 Alpha HF Exchange    Energy = -18.99563093425593
 Beta HF Exchange     Energy = -18.81510795456180
 DFT Correlation      Energy =  -5.15054599233502
 DFT Exchange         Energy = -150.49355299475144
 One-Electron (alpha) Energy = -3939.66382899878363
 One-Electron (beta)  Energy = -3894.37026024280749
 Total Coulomb        Energy = 2609.47917675413055
   16   -4921.6400464991      8.91e-07  Convergence criterion met
 ---------------------------------------
 SCF time:   CPU 73.71s  wall 7.00s 
<S^2> =          2.011138651
 Alpha HF Exchange    Energy = -18.99563093425593
 Beta HF Exchange     Energy = -18.81510795456180
 DFT Correlation      Energy =  -5.15054599233502
 DFT Exchange         Energy = -150.49355299475144
 One-Electron (alpha) Energy = -3939.66382899878363
 One-Electron (beta)  Energy = -3894.37026024280749
 Total Coulomb        Energy = 2609.47917675413055
 Nuclear repulsion Energy = 496.36970386430659
 SCF   energy in the final basis set =    -4921.6400464991
 Total energy in the final basis set =    -4921.6400464991
 
 --------------------------------------------------------------
 
                    Orbital Energies (a.u.)
 --------------------------------------------------------------
 
 Alpha MOs
 -- Occupied --
*******-453.900 -58.102 -58.095 -52.161 -52.158 -52.155 -52.153
-52.152 -52.149 -10.243 -10.211 -10.197  -7.835  -7.829  -5.784
 -5.777  -5.774  -5.771  -5.765  -5.761  -2.116  -2.115  -2.108
 -2.107  -2.106  -2.101  -2.099  -2.099  -2.097  -2.095  -0.818
 -0.702  -0.695  -0.692  -0.586  -0.483  -0.440  -0.432  -0.391
 -0.384  -0.380  -0.362  -0.337  -0.285  -0.244  -0.243  -0.207
 -- Virtual --
 -0.012   0.026   0.043   0.095   0.117   0.123   0.150   0.158
  0.164   0.179   0.213   0.229   0.247   0.257   0.271   0.288
  0.306   0.326   0.396   0.442   0.443   0.494   0.513   0.521
  0.539   0.542   0.542   0.552   0.569   0.580   0.630   0.666
  0.683   0.706   0.748   0.772   0.797   0.812   0.857   0.874
  0.891   0.906   0.929   0.999   1.017   1.076   1.097   1.186
[...]
  David Stuck, Shaama M.S., Shane Yost, Joonho Lee, David Small,
  Daniel Levine, Susi Lehtola, Hugh Burton, Evgeny Epifanovsky
 -----------------------------------------------------------------------
 Exchange:     0.2000 Hartree-Fock + 0.0800 Slater + 0.7200 B88
 Correlation:  0.1900 VWN1RPA + 0.8100 LYP
 Using SG-1 standard quadrature grid
 using 12 threads for integral computing
 -------------------------------------------------------
 OpenMP Integral computing Module                
 Release: version 1.0, May 2013, Q-Chem Inc. Pittsburgh 
 -------------------------------------------------------
 -------------------------------------------------------
 OpenMP BLAS3 based DFT computing Module                
 Release: version 1.0, May 2013, Q-Chem Inc. Pittsburgh 
 -------------------------------------------------------
 A unrestricted SCF calculation will be
 performed using DIIS
 SCF converges when DIIS error is below 1.0e-06
 Alpha HF Exchange    Energy = -18.84276833677644
 Beta HF Exchange     Energy = -18.84276833677644
 DFT Correlation      Energy =  -5.12689666955363
 DFT Exchange         Energy = -149.84883478653987
 One-Electron (alpha) Energy = -3912.05076121463662
 One-Electron (beta)  Energy = -3912.05076121463662
 Total Coulomb        Energy = 2594.94917578942614
 ---------------------------------------
  Cycle       Energy         DIIS error
 ---------------------------------------
    1   -4927.4127940374      1.50e-01  
 Alpha HF Exchange    Energy = -19.06301676272574
 Beta HF Exchange     Energy = -18.86340850167455
 DFT Correlation      Energy =  -5.17500343051525
 DFT Exchange         Energy = -151.00878102290488
 One-Electron (alpha) Energy = -3944.88933726790265
 One-Electron (beta)  Energy = -3898.19688659857593
 Total Coulomb        Energy = 2621.30634509167885
    2   -4921.4892677605      9.31e-03  
 Alpha HF Exchange    Energy = -18.92500645423106
 Beta HF Exchange     Energy = -18.75448292250313
 DFT Correlation      Energy =  -5.13139369222653
 DFT Exchange         Energy = -149.97580553935964
 One-Electron (alpha) Energy = -3931.08129968443518
 One-Electron (beta)  Energy = -3886.69116875668988
 Total Coulomb        Energy = 2594.64259237010265
    3   -4921.5157439473      3.56e-03  
 Alpha HF Exchange    Energy = -19.03928175172642
 Beta HF Exchange     Energy = -18.84383782293403
 DFT Correlation      Energy =  -5.16496289429071
 DFT Exchange         Energy = -150.81233597719523
 One-Electron (alpha) Energy = -3941.15240910821831
 One-Electron (beta)  Energy = -3894.81145728942602
 Total Coulomb        Energy = 2613.88313642465482
    4   -4921.5403276871      2.92e-03  
 Alpha HF Exchange    Energy = -19.00250323878582
 Beta HF Exchange     Energy = -18.82250545505134
 DFT Correlation      Energy =  -5.15195603186493
 DFT Exchange         Energy = -150.54827094230441
 One-Electron (alpha) Energy = -3938.92115659773663
 One-Electron (beta)  Energy = -3893.67275222794433
 Total Coulomb        Energy = 2610.08929828968894
    5   -4921.6290254719      9.20e-04  
 Alpha HF Exchange    Energy = -18.99598843197090
 Beta HF Exchange     Energy = -18.81471224475881
 DFT Correlation      Energy =  -5.15102007406225
 DFT Exchange         Energy = -150.49587433762090
 One-Electron (alpha) Energy = -3937.77552141041133
 One-Electron (beta)  Energy = -3892.44155880311337
 Total Coulomb        Energy = 2607.63414210668952
    6   -4921.6397124632      1.10e-04  
 Alpha HF Exchange    Energy = -18.99510309609534
 Beta HF Exchange     Energy = -18.81417076989197
 DFT Correlation      Energy =  -5.15028844656191
 DFT Exchange         Energy = -150.48860922567192
 One-Electron (alpha) Energy = -3937.63978727019867
 One-Electron (beta)  Energy = -3892.33664982626806
 Total Coulomb        Energy = 2607.38385135098588
    7   -4921.6399365516      7.82e-05  
 Alpha HF Exchange    Energy = -18.99558386919288
 Beta HF Exchange     Energy = -18.81480922183953
 DFT Correlation      Energy =  -5.15047591559941
 DFT Exchange         Energy = -150.49275117927013
 One-Electron (alpha) Energy = -3937.66834564730561
 One-Electron (beta)  Energy = -3892.38657644612704
 Total Coulomb        Energy = 2607.46768065871584
    8   -4921.6400408885      2.72e-05  
 Alpha HF Exchange    Energy = -18.99565468809929
 Beta HF Exchange     Energy = -18.81497713343629
 DFT Correlation      Energy =  -5.15043495546267
 DFT Exchange         Energy = -150.49329645905300
 One-Electron (alpha) Energy = -3937.67895874839678
 One-Electron (beta)  Energy = -3892.41118378639248
 Total Coulomb        Energy = 2607.50362987836434
    9   -4921.6400551604      8.86e-06  
 Alpha HF Exchange    Energy = -18.99566392183946
 Beta HF Exchange     Energy = -18.81506748360555
 DFT Correlation      Energy =  -5.15042001982289
 DFT Exchange         Energy = -150.49354345549713
 One-Electron (alpha) Energy = -3937.67533076411291
 One-Electron (beta)  Energy = -3892.41628615552418
 Total Coulomb        Energy = 2607.50543297741433
   10   -4921.6400580909      4.18e-06  
 Alpha HF Exchange    Energy = -18.99565546398570
 Beta HF Exchange     Energy = -18.81505812025893
 DFT Correlation      Energy =  -5.15041053820656
 DFT Exchange         Energy = -150.49343947379907
 One-Electron (alpha) Energy = -3937.67036036713944
 One-Electron (beta)  Energy = -3892.41364249377875
 Total Coulomb        Energy = 2607.49768697880836
   11   -4921.6400587463      1.64e-06  
 Alpha HF Exchange    Energy = -18.99565338533385
 Beta HF Exchange     Energy = -18.81506952753252
 DFT Correlation      Energy =  -5.15040741237332
 DFT Exchange         Energy = -150.49345310659527
 One-Electron (alpha) Energy = -3937.66997347402639
 One-Electron (beta)  Energy = -3892.41542744012531
 Total Coulomb        Energy = 2607.49910430234013
   12   -4921.6400593116      1.16e-06  
 Alpha HF Exchange    Energy = -18.99565418456346
 Beta HF Exchange     Energy = -18.81506979059344
 DFT Correlation      Energy =  -5.15040717553516
 DFT Exchange         Energy = -150.49345672462118
 One-Electron (alpha) Energy = -3937.66980140998294
 One-Electron (beta)  Energy = -3892.41555221477302
 Total Coulomb        Energy = 2607.49906100990484
   13   -4921.6400597581      1.12e-06  
 Alpha HF Exchange    Energy = -18.99565433551538
 Beta HF Exchange     Energy = -18.81506932585840
 DFT Correlation      Energy =  -5.15040759998347
 DFT Exchange         Energy = -150.49345736687152
 One-Electron (alpha) Energy = -3937.66971717651495
 One-Electron (beta)  Energy = -3892.41558446668341
 Total Coulomb        Energy = 2607.49900914737054
   14   -4921.6400603920      1.08e-06  
 Alpha HF Exchange    Energy = -18.99565535168779
 Beta HF Exchange     Energy = -18.81506920469778
 DFT Correlation      Energy =  -5.15040792678944
 DFT Exchange         Energy = -150.49346110883164
 One-Electron (alpha) Energy = -3937.66991207980482
 One-Electron (beta)  Energy = -3892.41592250887879
 Total Coulomb        Energy = 2607.49954518975346
   15   -4921.6400622589      9.81e-07  Convergence criterion met
 ---------------------------------------
 SCF time:   CPU 69.14s  wall 6.00s 
<S^2> =          2.011167716
 Alpha HF Exchange    Energy = -18.99565535168779
 Beta HF Exchange     Energy = -18.81506920469778
 DFT Correlation      Energy =  -5.15040792678944
 DFT Exchange         Energy = -150.49346110883164
 One-Electron (alpha) Energy = -3937.66991207980482
 One-Electron (beta)  Energy = -3892.41592250887879
 Total Coulomb        Energy = 2607.49954518975346
 Nuclear repulsion Energy = 494.40082073208384
 SCF   energy in the final basis set =    -4921.6400622589
 Total energy in the final basis set =    -4921.6400622589
 
 --------------------------------------------------------------
 
                    Orbital Energies (a.u.)
 --------------------------------------------------------------
 
 Alpha MOs
 -- Occupied --
*******-453.900 -58.102 -58.095 -52.162 -52.159 -52.156 -52.153
-52.152 -52.149 -10.243 -10.211 -10.197  -7.836  -7.828  -5.784
 -5.777  -5.773  -5.770  -5.766  -5.761  -2.117  -2.116  -2.107
 -2.107  -2.107  -2.102  -2.100  -2.099  -2.096  -2.095  -0.818
 -0.702  -0.696  -0.692  -0.585  -0.483  -0.439  -0.432  -0.391
 -0.384  -0.381  -0.362  -0.336  -0.286  -0.244  -0.243  -0.207
 -- Virtual --
 -0.012   0.026   0.043   0.095   0.118   0.123   0.150   0.158
  0.164   0.179   0.212   0.229   0.247   0.257   0.270   0.287
  0.305   0.325   0.392   0.442   0.444   0.493   0.513   0.519
  0.538   0.541   0.542   0.551   0.569   0.580   0.627   0.666
  0.682   0.709   0.749   0.772   0.799   0.812   0.857   0.874
  0.891   0.906   0.929   1.001   1.018   1.073   1.095   1.186
  1.342   1.427   1.434   1.482   1.524   1.636   1.710   1.767
  1.841   1.883   1.915   1.971   2.018   2.035   2.073   2.078
  2.081   2.087   2.104   2.120   2.127   2.270   2.300   2.347
  2.398   2.489   2.556   2.584   2.598   2.633   2.645   2.699
  2.742   2.821   2.863   2.916   3.178   3.270   3.379   3.406
  3.456   3.513   4.196   4.218   4.219   4.240   4.261   4.264
  4.297   4.338   4.374   4.395   4.425   4.475   4.606   5.405
  5.483  89.575  89.818
 
 Beta MOs
 -- Occupied --
*******-453.899 -58.101 -58.095 -52.158 -52.157 -52.155 -52.152
-52.151 -52.149 -10.244 -10.199 -10.197  -7.833  -7.827  -5.776
 -5.776  -5.772  -5.769  -5.765  -5.760  -2.111  -2.111  -2.106
 -2.105  -2.102  -2.101  -2.098  -2.098  -2.095  -2.094  -0.810
 -0.694  -0.674  -0.662  -0.577  -0.478  -0.437  -0.427  -0.388
 -0.380  -0.370  -0.359  -0.319  -0.235  -0.231
 -- Virtual --
 -0.162  -0.085  -0.002   0.031   0.055   0.098   0.120   0.131
  0.156   0.160   0.165   0.185   0.218   0.233   0.255   0.262
  0.283   0.298   0.309   0.333   0.401   0.447   0.453   0.500
  0.523   0.546   0.554   0.558   0.582   0.586   0.587   0.606
  0.637   0.671   0.685   0.714   0.753   0.778   0.814   0.817
  0.859   0.876   0.893   0.911   0.931   1.016   1.021   1.077
  1.100   1.192   1.358   1.428   1.454   1.499   1.540   1.641
  1.715   1.767   1.843   1.890   1.932   1.991   2.024   2.036
  2.074   2.078   2.080   2.092   2.105   2.121   2.133   2.276
  2.300   2.350   2.409   2.503   2.568   2.595   2.599   2.635
  2.646   2.702   2.744   2.823   2.864   2.918   3.179   3.272
  3.383   3.407   3.456   3.518   4.210   4.232   4.232   4.253
  4.263   4.266   4.301   4.340   4.380   4.399   4.434   4.479
  4.609   5.419   5.487  89.580  89.819
 --------------------------------------------------------------
 
          Ground-State Mulliken Net Atomic Charges

     Atom                 Charge (a.u.)    Spin (a.u.)
  --------------------------------------------------------
      1 Se                   -0.112625       1.015188
      2 C                    -0.210565       0.928666
      3 C                    -0.150809      -0.110763
      4 C                    -0.310825       0.007824
      5 Se                   -0.095852       0.265501
      6 H                     0.058607      -0.006722
      7 H                     0.082400      -0.027058
      8 H                     0.124545      -0.041511
      9 H                     0.113435      -0.041547
     10 H                     0.138765       0.011281
     11 H                     0.113983      -0.000933
     12 H                     0.129804       0.001130
     13 H                     0.119137      -0.001055
  --------------------------------------------------------
  Sum of atomic charges =     0.000000
  Sum of spin   charges =     2.000000

 -----------------------------------------------------------------
                    Cartesian Multipole Moments
 -----------------------------------------------------------------
    Charge (ESU x 10^10)
                 0.0000
    Dipole Moment (Debye)
         X      -1.5767      Y      -2.3559      Z       0.3849
       Tot       2.8609
    Quadrupole Moments (Debye-Ang)
        XX     -62.9577     XY      -0.4546     YY     -57.2261
        XZ      -0.7091     YZ      -0.5529     ZZ     -56.6823
    Octopole Moments (Debye-Ang^2)
       XXX    -103.9966    XXY      -6.4761    XYY     -34.3809
       YYY      11.5403    XXZ      -4.5398    XYZ      -5.6672
       YYZ     -10.6584    XZZ     -36.6659    YZZ      -1.7684
       ZZZ     -26.8175
    Hexadecapole Moments (Debye-Ang^3)
      XXXX   -1704.7312   XXXY    -292.0848   XXYY    -390.3968
      XYYY    -284.1554   YYYY    -706.1568   XXXZ     -99.2535
      XXYZ     -14.4654   XYYZ     -48.7582   YYYZ     -25.6090
      XXZZ    -315.7444   XYZZ    -107.9305   YYZZ    -145.2520
      XZZZ    -126.1747   YZZZ     -26.0856   ZZZZ    -152.8708
 -----------------------------------------------------------------
 Calculating analytic gradient of the SCF energy
 Gradient of SCF Energy
            1           2           3           4           5           6
    1  -0.0003217   0.0003411  -0.0000583   0.0000068   0.0000054   0.0000227
    2  -0.0003157   0.0004082  -0.0000122  -0.0000201  -0.0000163   0.0000119
    3  -0.0000279   0.0000491  -0.0000232  -0.0000123  -0.0000068  -0.0000174
            7           8           9          10          11          12
    1   0.0000599  -0.0000365  -0.0000179   0.0000156  -0.0000137  -0.0000020
    2  -0.0000523  -0.0000106  -0.0000331  -0.0000084   0.0000307   0.0000089
    3  -0.0000353   0.0000537   0.0000021   0.0000027  -0.0000014  -0.0000043
           13
    1  -0.0000016
    2   0.0000088
    3   0.0000209
 Max gradient component =       4.082E-04
 RMS gradient           =       1.144E-04
 Gradient time:  CPU 17.60 s  wall 1.55 s
 Geometry Optimization Parameters
   NAtoms,    NIC,     NZ,  NCons,   NDum,   NFix, NCnnct, MaxDiis
       13      77       0       1       0       0       0       0

 Cartesian Hessian Update
 Hessian Updated using BFGS Update


** CONSTRAINED OPTIMIZATION IN DELOCALIZED INTERNAL COORDINATES **
   Searching for a Minimum

   Optimization Cycle:   9

                       Coordinates (Angstroms)
     ATOM                X               Y               Z
      1  Se        3.3626496695    1.1840328344    0.5788157133
      2  C         0.4297761747   -1.9466632373    0.2838612477
      3  C        -0.7892434143   -1.5085776137   -0.3713922016
      4  C        -2.0924566198   -2.0648887288    0.1917047548
      5  Se       -0.8362617183    0.6009009683   -0.2806352059
      6  H        -0.9772527811    0.6128721203    1.1876685730
      7  H         2.1206152733    0.3731463182    0.5826700548
      8  H         1.3820465997   -1.9186585785   -0.2329905089
      9  H         0.4326509735   -2.1632838912    1.3479564028
     10  H        -0.7387921938   -1.6212550844   -1.4574639074
     11  H        -2.1747711544   -1.8670296037    1.2652529329
     12  H        -2.9623365754   -1.6281427241   -0.3033156981
     13  H        -2.1186242336   -3.1518567795    0.0493658424
   Point Group: c1    Number of degrees of freedom:    33


   Energy is  -4921.640062259

              Constraints and their Current Values
                                        Value     Constraint
   Distance(Angs):        1   2             4.300000     4.300000
 Hessian Updated using BFGS Update

 32 Hessian modes will be used to form the next step
  Hessian Eigenvalues:
     0.005072    0.018729    0.042050    0.045000    0.045084    0.045527
     0.048891    0.072635    0.081583    0.082285    0.084051    0.108846
     0.114536    0.145727    0.159228    0.159987    0.159999    0.160002
     0.160169    0.172092    0.179945    0.182395    0.201724    0.237759
     0.299155    0.340611    0.342703    0.344587    0.345785    0.350335
     0.354618    0.398361

 Minimum Search - Taking Simple RFO Step
 Searching for Lamda that Minimizes Along All modes
 Value Taken    Lamda =   0.00000000
 Step Taken.  Stepsize is  0.005075

                             Maximum     Tolerance    Cnvgd?
         Gradient           0.000080      0.000300     YES
         Displacement       0.001965      0.001200      NO
         Energy change     -0.000001      0.000001     YES


                       Distance Matrix (Angstroms)
             Se(  1)   C (  2)   C (  3)   C (  4)   Se(  5)   H (  6)
   C (  2)  4.300000
   C (  3)  5.038974  1.451649
   C (  4)  6.361095  2.526683  1.524770
   Se(  5)  4.325454  2.900274  2.111953  2.984554
   H (  6)  4.419466  3.057420  2.639426  3.066925  1.475106
   H (  7)  1.483308  2.886129  3.594217  4.883323  3.088736  3.165482
   H (  8)  3.769418  1.083854  2.214006  3.503416  3.357282  3.740750
   H (  9)  4.514532  1.085924  2.208580  2.778987  3.450097  3.117782
   H ( 10)  5.370093  2.122182  1.093066  2.179214  2.516427  3.470578
   H ( 11)  6.359497  2.784446  2.174116  1.094728  3.205005  2.754992
   H ( 12)  6.977961  3.457262  2.177444  1.092009  3.080478  3.344509
   H ( 13)  7.008896  2.828750  2.155147  1.096560  3.979516  4.095320
             H (  7)   H (  8)   H (  9)   H ( 10)   H ( 11)   H ( 12)
   H (  8)  2.542274
   H (  9)  3.141395  1.860265
   H ( 10)  4.039306  2.466929  3.088116
   H ( 11)  4.892305  3.859838  2.625501  3.087981
   H ( 12)  5.534124  4.354654  3.813006  2.505246  1.771365
   H ( 13)  5.539062  3.722257  3.028633  2.552883  1.769835  1.777059

 
 Final energy is   -4921.64006225885     


 ******************************
 **  OPTIMIZATION CONVERGED  **
 ******************************

                       Coordinates (Angstroms)
     ATOM                X               Y               Z
      1  Se        3.3626496695    1.1840328344    0.5788157133
      2  C         0.4297761747   -1.9466632373    0.2838612477
      3  C        -0.7892434143   -1.5085776137   -0.3713922016
      4  C        -2.0924566198   -2.0648887288    0.1917047548
      5  Se       -0.8362617183    0.6009009683   -0.2806352059
      6  H        -0.9772527811    0.6128721203    1.1876685730
      7  H         2.1206152733    0.3731463182    0.5826700548
      8  H         1.3820465997   -1.9186585785   -0.2329905089
      9  H         0.4326509735   -2.1632838912    1.3479564028
     10  H        -0.7387921938   -1.6212550844   -1.4574639074
     11  H        -2.1747711544   -1.8670296037    1.2652529329
     12  H        -2.9623365754   -1.6281427241   -0.3033156981
     13  H        -2.1186242336   -3.1518567795    0.0493658424

Z-matrix Print:
$molecule
0 3
Se
H  1 1.475106
C  1 2.111953 2 93.038598
H  3 1.093066 1 98.435078 2 177.059889 0
C  3 1.451649 1 107.501396 2 -66.317716 0
H  5 1.083854 3 120.980919 1 -80.101556 0
H  5 1.085924 3 120.313776 1 90.376350 0
C  3 1.524770 1 109.239863 2 60.532919 0
H  8 1.092009 3 111.562157 1 53.780601 0
H  8 1.094728 3 111.129581 1 -67.069040 0
H  8 1.096560 3 109.518823 1 174.015020 0
H  6 2.542274 5 97.212008 3 93.512231 0
Se 12 1.483308 6 137.327653 5 168.416251 0
$end

PES scan, value:    4.3000 energy: -4921.6400622589
------- Summary of potential scan: ------ 
    4.3000     -4921.6400622589
----------------------------------------- 
Archival summary:
1\1\hpc0248\JobtypUnspecified\ProcedureUnspecified\6-31G**\e238(3)\knomura\ThuMar1409:33:532019ThuMar1409:33:532019\0\\#,JobtypUnspecified,ProcedureUnspecified,6-31G**,\\0,3\Se\H,1,1.47511\C,1,2.11195,2,93.0386\H,3,1.09307,1,98.4351,2,177.06,0\C,3,1.45165,1,107.501,2,-66.3177,0\H,5,1.08385,3,120.981,1,-80.1016,0\H,5,1.08592,3,120.314,1,90.3764,0\C,3,1.52477,1,109.24,2,60.5329,0\H,8,1.09201,3,111.562,1,53.7806,0\H,8,1.09473,3,111.13,1,-67.069,0\H,8,1.09656,3,109.519,1,174.015,0\H,6,2.54227,5,97.212,3,93.5122,0\Se,12,1.48331,6,137.328,5,168.416,0\\\@

 Total job time:  74.51s(wall), 868.75s(cpu) 
 Thu Mar 14 09:33:53 2019

        *************************************************************
        *                                                           *
        *  Thank you very much for using Q-Chem.  Have a nice day.  *
        *                                                           *
        *************************************************************


