
Running Job 1 of 1 selenium/03/C-Se.xyz.data/inputs/bond_singlet_1.9.in
qchem selenium/03/C-Se.xyz.data/inputs/bond_singlet_1.9.in_9555.0 /staging/scratch/2868765/qchem9555/ 1
/usr/usc/qchem/5.1.1/exe/qcprog.exe_s selenium/03/C-Se.xyz.data/inputs/bond_singlet_1.9.in_9555.0 /staging/scratch/2868765/qchem9555/
Check license passed

                  Welcome to Q-Chem
     A Quantum Leap Into The Future Of Chemistry


 Q-Chem 5.1, Q-Chem, Inc., Pleasanton, CA (2018)

 Yihan Shao,  Zhengting Gan,  E. Epifanovsky,  A. T. B. Gilbert,  M. Wormit,  
 J. Kussmann,  A. W. Lange,  A. Behn,  Jia Deng,  Xintian Feng,  D. Ghosh,  
 M. Goldey,  P. R. Horn,  L. D. Jacobson,  I. Kaliman,  T. Kus,  A. Landau,  
 Jie Liu,  E. I. Proynov,  R. M. Richard,  R. P. Steele,  E. J. Sundstrom,  
 H. L. Woodcock III,  P. M. Zimmerman,  D. Zuev,  B. Albrecht,  E. Alguire,  
 S. A. Baeppler,  D. Barton,  Z. Benda,  Y. A. Bernard,  E. J. Berquist,  
 K. B. Bravaya,  H. Burton,  D. Casanova,  Chun-Min Chang,  Yunqing Chen,  
 A. Chien,  K. D. Closser,  M. P. Coons,  S. Coriani,  S. Dasgupta,  
 A. L. Dempwolff,  M. Diedenhofen,  Hainam Do,  R. G. Edgar,  Po-Tung Fang,  
 S. Faraji,  S. Fatehi,  Qingguo Feng,  K. D. Fenk,  J. Fosso-Tande,  
 Qinghui Ge,  A. Ghysels,  G. Gidofalvi,  J. Gomes,  J. Gonthier,  A. Gunina,  
 D. Hait,  M. W. D. Hanson-Heine,  P. H. P. Harbach,  A. W. Hauser,  
 J. E. Herr,  E. G. Hohenstein,  Z. C. Holden,  Kerwin Hui,  B. C. Huynh,  
 T.-C. Jagau,  Hyunjun Ji,  B. Kaduk,  K. Khistyaev,  Jaehoon Kim,  
 P. Klunzinger,  K. Koh,  D. Kosenkov,  L. Koulias,  T. Kowalczyk,  
 C. M. Krauter,  A. Kunitsa,  Ka Un Lao,  A. Laurent,  K. V. Lawler,  
 Joonho Lee,  D. Lefrancois,  S. Lehtola,  D. S. Levine,  Yi-Pei Li,  
 You-Sheng Lin,  Fenglai Liu,  E. Livshits,  A. Luenser,  P. Manohar,  
 E. Mansoor,  S. F. Manzer,  Shan-Ping Mao,  Yuezhi Mao,  N. Mardirossian,  
 A. V. Marenich,  T. Markovich,  L. A. Martinez-Martinez,  S. A. Maurer,  
 N. J. Mayhall,  S. C. McKenzie,  J.-M. Mewes,  A. F. Morrison,  
 J. W. Mullinax,  K. Nanda,  T. S. Nguyen-Beck,  R. Olivares-Amaya,  
 J. A. Parkhill,  T. M. Perrine,  F. Plasser,  P. Pokhilko,  S. Prager,  
 A. Prociuk,  E. Ramos,  D. R. Rehn,  F. Rob,  M. Schneider,  N. Sergueev,  
 S. M. Sharada,  S. Sharma,  D. W. Small,  T. Stauch,  T. Stein,  
 Yu-Chuan Su,  A. J. W. Thom,  A. Tkatchenko,  T. Tsuchimochi,  N. M. Tubman,  
 L. Vogt,  M. L. Vidal,  O. Vydrov,  M. A. Watson,  J. Wenzel,  
 M. de Wergifosse,  T. A. Wesolowski,  A. White,  J. Witte,  A. Yamada,  
 Jun Yang,  K. Yao,  S. Yeganeh,  S. R. Yost,  Zhi-Qiang You,  A. Zech,  
 Igor Ying Zhang,  Xing Zhang,  Yan Zhao,  Ying Zhu,  B. R. Brooks,  
 G. K. L. Chan,  C. J. Cramer,  M. S. Gordon,  W. J. Hehre,  A. Klamt,  
 M. W. Schmidt,  C. D. Sherrill,  D. G. Truhlar,  A. Aspuru-Guzik,  R. Baer,  
 A. T. Bell,  N. A. Besley,  Jeng-Da Chai,  A. E. DePrince, III,  
 R. A. DiStasio Jr.,  A. Dreuw,  B. D. Dunietz,  T. R. Furlani,  
 Chao-Ping Hsu,  Yousung Jung,  Jing Kong,  D. S. Lambrecht,  WanZhen Liang,  
 C. Ochsenfeld,  V. A. Rassolov,  L. V. Slipchenko,  J. E. Subotnik,  
 T. Van Voorhis,  J. M. Herbert,  A. I. Krylov,  P. M. W. Gill,  M. Head-Gordon

 Contributors to earlier versions of Q-Chem not listed above: 
 R. D. Adamson,  B. Austin,  J. Baker,  G. J. O. Beran,  K. Brandhorst,  
 S. T. Brown,  E. F. C. Byrd,  A. K. Chakraborty,  C.-L. Cheng,  
 Siu Hung Chien,  D. M. Chipman,  D. L. Crittenden,  H. Dachsel,  
 R. J. Doerksen,  A. D. Dutoi,  L. Fusti-Molnar,  W. A. Goddard III,  
 A. Golubeva-Zadorozhnaya,  S. R. Gwaltney,  G. Hawkins,  A. Heyden,  
 S. Hirata,  G. Kedziora,  F. J. Keil,  C. Kelley,  Jihan Kim,  R. A. King,  
 R. Z. Khaliullin,  P. P. Korambath,  W. Kurlancheek,  A. M. Lee,  M. S. Lee,  
 S. V. Levchenko,  Ching Yeh Lin,  D. Liotard,  R. C. Lochan,  I. Lotan,  
 P. E. Maslen,  N. Nair,  D. P. O'Neill,  D. Neuhauser,  E. Neuscamman,  
 C. M. Oana,  R. Olson,  B. Peters,  R. Peverati,  P. A. Pieniazek,  
 Y. M. Rhee,  J. Ritchie,  M. A. Rohrdanz,  E. Rosta,  N. J. Russ,  
 H. F. Schaefer III,  N. E. Schultz,  N. Shenvi,  A. C. Simmonett,  A. Sodt,  
 D. Stuck,  K. S. Thanthiriwatte,  V. Vanovschi,  Tao Wang,  A. Warshel,  
 C. F. Williams,  Q. Wu,  X. Xu,  W. Zhang

 Please cite Q-Chem as follows:
 Y. Shao et al., Mol. Phys. 113, 184-215 (2015)
 DOI: 10.1080/00268976.2014.952696

 Q-Chem 5.1.1 for Intel X86 EM64T Linux

 Parts of Q-Chem use Armadillo 8.300.2 (Tropical Shenanigans).
 http://arma.sourceforge.net/

 Q-Chem begins on Thu Mar 14 07:15:08 2019  

Host: 
0

     Scratch files written to /staging/scratch/2868765/qchem9555//
 Aug318 |scratch|qcdevops|jenkins|workspace|build_RNUM 6013   
Processing $rem in /usr/usc/qchem/5.1.1/config/preferences.
 MEM_TOTAL  2000 
Input Ideriv = 2
Curr. Ideriv = -1
Max.  Ideriv = 2

Checking the input file for inconsistencies... 	...done.

--------------------------------------------------------------
User input:
--------------------------------------------------------------

$comment
potential surface scanner
$end

$rem
JOBTYPE  PES_SCAN
UNRESTRICTED TRUE
SYM_IGNORE  TRUE
GEOM_OPT_MAX_CYCLES 400
SCF_MAX_CYCLES 400
METHOD   B3LYP
BASIS   6-31G**
PDB_PRINT 2
SCF_CONVERGENCE 6
THRESH 14
SCF_PRINT 1
$end
$molecule
0 1
Se 1.870900 0.175900 -0.051900
C 0.575300 -1.200000 0.467400
C -0.687000 -1.059800 -0.385600
C -1.647200 -2.208000 -0.068200
Se -1.558500 0.649900 0.013200
H -1.851500 0.486400 1.536700
H 3.049900 -0.144000 0.918300
H 1.011300 -2.186800 0.311700
H 0.318200 -1.078300 1.519600
H -0.417700 -1.092800 -1.441300
H -1.916600 -2.175000 0.987500
H -2.546500 -2.108100 -0.675900
H -1.162600 -3.158800 -0.290000
$end
$scan
stre 1 2 1.900000 1.901000 0.100000
$end
--------------------------------------------------------------
 ----------------------------------------------------------------
             Standard Nuclear Orientation (Angstroms)
    I     Atom           X                Y                Z
 ----------------------------------------------------------------
    1      Se      1.8709000000     0.1759000000    -0.0519000000
    2      C       0.5753000000    -1.2000000000     0.4674000000
    3      C      -0.6870000000    -1.0598000000    -0.3856000000
    4      C      -1.6472000000    -2.2080000000    -0.0682000000
    5      Se     -1.5585000000     0.6499000000     0.0132000000
    6      H      -1.8515000000     0.4864000000     1.5367000000
    7      H       3.0499000000    -0.1440000000     0.9183000000
    8      H       1.0113000000    -2.1868000000     0.3117000000
    9      H       0.3182000000    -1.0783000000     1.5196000000
   10      H      -0.4177000000    -1.0928000000    -1.4413000000
   11      H      -1.9166000000    -2.1750000000     0.9875000000
   12      H      -2.5465000000    -2.1081000000    -0.6759000000
   13      H      -1.1626000000    -3.1588000000    -0.2900000000
 ----------------------------------------------------------------
 Nuclear Repulsion Energy =   599.6345195519 hartrees
 There are       47 alpha and       47 beta electrons
 Requested basis set is 6-31G(d,p)
 There are 52 shells and 155 basis functions

 Total QAlloc Memory Limit   2000 MB
 Mega-Array Size       188 MB
 MEM_STATIC part       192 MB
A total of 1 constraints
  
            1
    1   1.0100000
    2   1.0100000
    3   2.0100000
    4   1.9000000
    5   1.9010000
    6   0.1000000
    7   0.0000000
    8   0.0000000
    9   0.0000000
   10   0.0000000

                       Distance Matrix (Angstroms)
             Se(  1)   C (  2)   C (  3)   C (  4)   Se(  5)   H (  6)
   C (  2)  1.959937
   C (  3)  2.860273  1.529924
   C (  4)  4.249738  2.498487  1.530062
   Se(  5)  3.462614  2.860337  1.960007  2.860435
   H (  6)  4.059104  3.142723  2.728009  3.142807  1.560011
   H (  7)  1.560021  2.728020  4.062421  5.224560  4.763070  4.980316
   H (  8)  2.540368  1.090006  2.154200  2.685590  3.839250  4.103931
   H (  9)  2.540375  1.089971  2.154195  2.767694  2.962755  2.675103
   H ( 10)  2.962722  2.154223  1.090006  2.154239  2.540472  3.663078
   H ( 11)  4.577362  2.725930  2.154296  1.090031  3.009577  2.718255
   H ( 12)  5.011931  3.446363  2.154286  1.089963  3.009579  3.479950
   H ( 13)  4.514315  2.725958  2.154330  1.089978  3.841206  4.135082
             H (  7)   H (  8)   H (  9)   H ( 10)   H ( 11)   H ( 12)
   H (  8)  2.949048
   H (  9)  2.949011  1.779939
   H ( 10)  4.300254  2.512347  3.051014
   H ( 11)  5.366179  3.004903  2.545626  3.052364
   H ( 12)  6.141568  3.693168  3.753294  2.479609  1.779930
   H ( 13)  5.319226  2.456149  3.129840  2.479662  1.779996  1.779907

 
 A cutoff of  1.0D-14 yielded   1254 shell pairs
 There are     11199 function pairs
 
 -------------------------------------------------------
 OpenMP Integral Computing Module                       
 Release: version 1.0, May 2013, Q-Chem Inc. Pittsburgh 
 -------------------------------------------------------
 Integral Job Info:
 Integral job number is                      11
 Integral operator is                         1
 short-range coefficients                     0
 long-range coefficients              100000000
 Omega coefficients                           0
 if combine SR and LR in K                    0
 Integral screening is                        0
 Integral computing path is                   2
 max size of driver memory is            800000
 size of driver memory is                593474
 size of scratch memory is             15267112
 max col of scratch BK array               1296
 max len of scratch array in speh3          155
 max len of scratch index in speh4           18
 max int batch size is                      520
 min int batch size is                       52
 fixed nKL is                                52
 max L of basis functions is                  2
 order of int derivative is                   0
 number of shells is                         52
 number of basis is                         155
 number of cartesian basis is               155
 number of contracted shell pairs          1254
 number of primitive shell pairs           5101
 maxK2 (contraction) of shell pair           36
 max number of K2 of shell pair               1
 max number of CS2 of shell pair             83
 max number of PS2 of shell pair            468
 mem total for path MDJ                  537180
 -------------------------------------------------------
 Smallest overlap matrix eigenvalue = 6.73E-04

 Scale SEOQF with 1.000000e-01/1.000000e-01/1.000000e+00

 Standard Electronic Orientation quadrupole field applied
 Nucleus-field energy     =     0.0000000027 hartrees
 Guess from superposition of atomic densities
 Warning:  Energy on first SCF cycle will be non-variational
 SAD guess density has 93.936381 electrons

 -----------------------------------------------------------------------
  General SCF calculation program by
  Eric Jon Sundstrom, Paul Horn, Yuezhi Mao, Dmitri Zuev, Alec White,
  David Stuck, Shaama M.S., Shane Yost, Joonho Lee, David Small,
  Daniel Levine, Susi Lehtola, Hugh Burton, Evgeny Epifanovsky
 -----------------------------------------------------------------------
 Exchange:     0.2000 Hartree-Fock + 0.0800 Slater + 0.7200 B88
 Correlation:  0.1900 VWN1RPA + 0.8100 LYP
 Using SG-1 standard quadrature grid
 using 12 threads for integral computing
 -------------------------------------------------------
 OpenMP Integral computing Module                
 Release: version 1.0, May 2013, Q-Chem Inc. Pittsburgh 
 -------------------------------------------------------
 -------------------------------------------------------
 OpenMP BLAS3 based DFT computing Module                
 Release: version 1.0, May 2013, Q-Chem Inc. Pittsburgh 
 -------------------------------------------------------
 A unrestricted SCF calculation will be
 performed using DIIS
 SCF converges when DIIS error is below 1.0e-06
 Alpha HF Exchange    Energy = -18.88026941503062
 Beta HF Exchange     Energy = -18.88026941503062
 DFT Correlation      Energy =  -5.14635274406645
 DFT Exchange         Energy = -149.91645329017530
 One-Electron (alpha) Energy = -4017.20485924312470
 One-Electron (beta)  Energy = -4017.20485924312470
 Total Coulomb        Energy = 2699.61762650801302
 ---------------------------------------
  Cycle       Energy         DIIS error
 ---------------------------------------
    1   -4927.9809172879      1.51e-01  
 Alpha HF Exchange    Energy = -18.97621814453280
 Beta HF Exchange     Energy = -18.97621814453280
 DFT Correlation      Energy =  -5.20062673724487
 DFT Exchange         Energy = -151.07181338282226
 One-Electron (alpha) Energy = -4028.56807304084259
 One-Electron (beta)  Energy = -4028.56807304084259
 Total Coulomb        Energy = 2730.15893590604537
    2   -4921.5675670302      9.37e-03  
 Alpha HF Exchange    Energy = -18.83630896761437
 Beta HF Exchange     Energy = -18.83630896761438
 DFT Correlation      Energy =  -5.15460273899013
 DFT Exchange         Energy = -149.94766336603351
 One-Electron (alpha) Energy = -4011.27251789637239
 One-Electron (beta)  Energy = -4011.27251789637285
 Total Coulomb        Energy = 2694.14062465242387
    3   -4921.5447756260      4.07e-03  
 Alpha HF Exchange    Energy = -18.95864874607871
 Beta HF Exchange     Energy = -18.95864874607867
 DFT Correlation      Energy =  -5.19535095843202
 DFT Exchange         Energy = -150.92335948717368
 One-Electron (alpha) Energy = -4026.52748092642014
 One-Electron (beta)  Energy = -4026.52748092641650
 Total Coulomb        Energy = 2725.85182686325652
    4   -4921.6046233727      3.18e-03  
 Alpha HF Exchange    Energy = -18.91261547939311
 Beta HF Exchange     Energy = -18.91261547939310
 DFT Correlation      Energy =  -5.17872523679691
 DFT Exchange         Energy = -150.55238123767330
 One-Electron (alpha) Energy = -4020.97257079325027
 One-Electron (beta)  Energy = -4020.97257079324800
 Total Coulomb        Energy = 2714.15624144829235
    5   -4921.7107180169      7.24e-04  
 Alpha HF Exchange    Energy = -18.90903811340610
 Beta HF Exchange     Energy = -18.90903811340611
 DFT Correlation      Energy =  -5.17890274601090
 DFT Exchange         Energy = -150.52737320609492
 One-Electron (alpha) Energy = -4020.51760784954286
 One-Electron (beta)  Energy = -4020.51760784954286
 Total Coulomb        Energy = 2713.20796290695444
    6   -4921.7170854164      9.72e-05  
 Alpha HF Exchange    Energy = -18.90853004285781
 Beta HF Exchange     Energy = -18.90853004285780
 DFT Correlation      Energy =  -5.17847659878375
 DFT Exchange         Energy = -150.52260362532783
 One-Electron (alpha) Energy = -4020.46364232246106
 One-Electron (beta)  Energy = -4020.46364232245969
 Total Coulomb        Energy = 2713.09371907335617
    7   -4921.7171863268      2.17e-05  
 Alpha HF Exchange    Energy = -18.90862765315435
 Beta HF Exchange     Energy = -18.90862765315437
 DFT Correlation      Energy =  -5.17851388052058
 DFT Exchange         Energy = -150.52344290936725
 One-Electron (alpha) Energy = -4020.46044564875410
 One-Electron (beta)  Energy = -4020.46044564875592
 Total Coulomb        Energy = 2713.08839154227417
    8   -4921.7171922968      6.93e-06  
 Alpha HF Exchange    Energy = -18.90866991993434
 Beta HF Exchange     Energy = -18.90866991993436
 DFT Correlation      Energy =  -5.17853018131672
 DFT Exchange         Energy = -150.52375791530221
 One-Electron (alpha) Energy = -4020.47295077858143
 One-Electron (beta)  Energy = -4020.47295077858280
 Total Coulomb        Energy = 2713.11381693214025
    9   -4921.7171930069      1.43e-06  
 Alpha HF Exchange    Energy = -18.90866896050326
 Beta HF Exchange     Energy = -18.90866896050329
 DFT Correlation      Energy =  -5.17853220753273
 DFT Exchange         Energy = -150.52375352275220
 One-Electron (alpha) Energy = -4020.47210234197109
 One-Electron (beta)  Energy = -4020.47210234197337
 Total Coulomb        Energy = 2713.11211574881690
   10   -4921.7171930318      4.57e-07  Convergence criterion met
 ---------------------------------------
 SCF time:   CPU 52.44s  wall 5.00s 
<S^2> =         -0.000000000
 Alpha HF Exchange    Energy = -18.90866896050326
 Beta HF Exchange     Energy = -18.90866896050329
 DFT Correlation      Energy =  -5.17853220753273
 DFT Exchange         Energy = -150.52375352275220
 One-Electron (alpha) Energy = -4020.47210234197109
 One-Electron (beta)  Energy = -4020.47210234197337
 Total Coulomb        Energy = 2713.11211574881690
 Nuclear repulsion Energy = 599.63451955460789
 SCF   energy in the final basis set =    -4921.7171930318
 Total energy in the final basis set =    -4921.7171930318
 
 --------------------------------------------------------------
 
                    Orbital Energies (a.u.)
 --------------------------------------------------------------
 
 Alpha MOs
 -- Occupied --
*******-453.894 -58.091 -58.089 -52.149 -52.148 -52.146 -52.145
-52.145 -52.142 -10.240 -10.226 -10.194  -7.825  -7.822  -5.770
 -5.767  -5.766  -5.763  -5.756  -5.753  -2.104  -2.103  -2.101
 -2.101  -2.095  -2.092  -2.092  -2.090  -2.089  -2.087  -0.832
 -0.735  -0.691  -0.644  -0.585  -0.475  -0.445  -0.438  -0.415
 -0.386  -0.367  -0.354  -0.319  -0.302  -0.236  -0.212
 -- Virtual --
 -0.005   0.016   0.024   0.035   0.092   0.116   0.136   0.153
  0.161   0.173   0.191   0.200   0.218   0.252   0.278   0.300
  0.310   0.322   0.335   0.353   0.440   0.469   0.475   0.504
  0.536   0.551   0.564   0.611   0.630   0.656   0.665   0.686
  0.711   0.756   0.771   0.800   0.841   0.854   0.878   0.883
  0.886   0.901   0.916   0.956   1.006   1.013   1.031   1.131
  1.351   1.366   1.404   1.534   1.588   1.610   1.656   1.775
  1.801   1.827   1.880   1.945   2.024   2.037   2.057   2.060
  2.069   2.081   2.086   2.101   2.118   2.165   2.254   2.280
  2.356   2.438   2.505   2.540   2.550   2.587   2.596   2.638
  2.701   2.741   2.823   2.873   2.893   3.203   3.251   3.311
  3.431   3.457   3.485   4.203   4.271   4.279   4.335   4.352
  4.354   4.364   4.399   4.415   4.467   4.499   4.561   4.633
  5.465   5.485  89.726  89.836
 
 Beta MOs
 -- Occupied --
*******-453.894 -58.091 -58.089 -52.149 -52.148 -52.146 -52.145
-52.145 -52.142 -10.240 -10.226 -10.194  -7.825  -7.822  -5.770
 -5.767  -5.766  -5.763  -5.756  -5.753  -2.104  -2.103  -2.101
 -2.101  -2.095  -2.092  -2.092  -2.090  -2.089  -2.087  -0.832
 -0.735  -0.691  -0.644  -0.585  -0.475  -0.445  -0.438  -0.415
 -0.386  -0.367  -0.354  -0.319  -0.302  -0.236  -0.212
 -- Virtual --
 -0.005   0.016   0.024   0.035   0.092   0.116   0.136   0.153
  0.161   0.173   0.191   0.200   0.218   0.252   0.278   0.300
  0.310   0.322   0.335   0.353   0.440   0.469   0.475   0.504
  0.536   0.551   0.564   0.611   0.630   0.656   0.665   0.686
  0.711   0.756   0.771   0.800   0.841   0.854   0.878   0.883
  0.886   0.901   0.916   0.956   1.006   1.013   1.031   1.131
  1.351   1.366   1.404   1.534   1.588   1.610   1.656   1.775
  1.801   1.827   1.880   1.945   2.024   2.037   2.057   2.060
  2.069   2.081   2.086   2.101   2.118   2.165   2.254   2.280
  2.356   2.438   2.505   2.540   2.550   2.587   2.596   2.638
  2.701   2.741   2.823   2.873   2.893   3.203   3.251   3.311
  3.431   3.457   3.485   4.203   4.271   4.279   4.335   4.352
  4.354   4.364   4.399   4.415   4.467   4.499   4.561   4.633
  5.465   5.485  89.726  89.836
 --------------------------------------------------------------
 
          Ground-State Mulliken Net Atomic Charges

     Atom                 Charge (a.u.)    Spin (a.u.)
  --------------------------------------------------------
      1 Se                   -0.070318       0.000000
      2 C                    -0.240098       0.000000
      3 C                    -0.177367      -0.000000
      4 C                    -0.301999      -0.000000
      5 Se                   -0.060213       0.000000
      6 H                     0.044522      -0.000000
      7 H                     0.041259       0.000000
      8 H                     0.132260      -0.000000
      9 H                     0.132117      -0.000000
     10 H                     0.148451      -0.000000
     11 H                     0.112826      -0.000000
     12 H                     0.132100      -0.000000
     13 H                     0.106459       0.000000
  --------------------------------------------------------
  Sum of atomic charges =     0.000000
  Sum of spin   charges =     0.000000

 -----------------------------------------------------------------
                    Cartesian Multipole Moments
 -----------------------------------------------------------------
    Charge (ESU x 10^10)
                 0.0000
    Dipole Moment (Debye)
         X      -0.2484      Y      -2.5009      Z       1.0789
       Tot       2.7350
    Quadrupole Moments (Debye-Ang)
        XX     -59.5129     XY       0.5926     YY     -56.5206
        XZ       0.8480     YZ      -0.1819     ZZ     -55.0373
    Octopole Moments (Debye-Ang^2)
       XXX      31.7114    XXY      16.2905    XYY       4.2165
       YYY      42.2965    XXZ       9.7511    XYZ      -4.1335
       YYZ      -2.7678    XZZ       0.7548    YZZ      15.3492
       ZZZ      -2.9837
    Hexadecapole Moments (Debye-Ang^3)
      XXXX    -945.5015   XXXY     -28.5674   XXYY    -231.5580
      XYYY     -46.4141   YYYY    -457.0576   XXXZ       8.1088
      XXYZ       0.5713   XYYZ      -3.2978   YYYZ       2.1843
      XXZZ    -173.7883   XYZZ     -14.0746   YYZZ     -96.8025
      XZZZ      -6.9663   YZZZ      -0.6802   ZZZZ    -114.6231
 -----------------------------------------------------------------
 Calculating analytic gradient of the SCF energy
 Gradient of SCF Energy
            1           2           3           4           5           6
    1  -0.0288527  -0.0011221  -0.0034173  -0.0025841   0.0162335  -0.0084504
    2  -0.0057772   0.0048652   0.0137252  -0.0037086  -0.0193279   0.0047296
    3  -0.0103705  -0.0023914  -0.0225046   0.0054728  -0.0107339   0.0262328
            7           8           9          10          11          12
    1   0.0225768  -0.0021074  -0.0011567   0.0031644   0.0024828   0.0026506
    2   0.0000075   0.0019594   0.0010722  -0.0086586   0.0030397   0.0026018
    3   0.0149775  -0.0002246  -0.0017092   0.0040608  -0.0015958  -0.0010463
           13
    1   0.0005826
    2   0.0054716
    3  -0.0001675
 Max gradient component =       2.885E-02
 RMS gradient           =       1.039E-02
 Gradient time:  CPU 20.87 s  wall 1.78 s
 Geometry Optimization Parameters
   NAtoms,    NIC,     NZ,  NCons,   NDum,   NFix, NCnnct, MaxDiis
       13      82       0       1       0       0       0       0


** CONSTRAINED OPTIMIZATION IN DELOCALIZED INTERNAL COORDINATES **
   Searching for a Minimum

   Optimization Cycle:   1

                       Coordinates (Angstroms)
     ATOM                X               Y               Z
      1  Se        1.8709000000    0.1759000000   -0.0519000000
      2  C         0.5753000000   -1.2000000000    0.4674000000
      3  C        -0.6870000000   -1.0598000000   -0.3856000000
      4  C        -1.6472000000   -2.2080000000   -0.0682000000
      5  Se       -1.5585000000    0.6499000000    0.0132000000
      6  H        -1.8515000000    0.4864000000    1.5367000000
      7  H         3.0499000000   -0.1440000000    0.9183000000
      8  H         1.0113000000   -2.1868000000    0.3117000000
      9  H         0.3182000000   -1.0783000000    1.5196000000
     10  H        -0.4177000000   -1.0928000000   -1.4413000000
     11  H        -1.9166000000   -2.1750000000    0.9875000000
     12  H        -2.5465000000   -2.1081000000   -0.6759000000
     13  H        -1.1626000000   -3.1588000000   -0.2900000000
   Point Group: c1    Number of degrees of freedom:    33


   Energy is  -4921.717193032

              Constraints and their Current Values
                                        Value     Constraint
   Distance(Angs):        1   2             1.959937     1.900000

 Attempting to Generate Delocalized Internal Coordinates

   Using Lagrange Multiplier Algorithm


 34 Hessian modes will be used to form the next step
  Hessian Eigenvalues:
    -0.919994    0.045000    0.045000    0.045000    0.045000    0.077213
     0.079658    0.080532    0.084997    0.085002    0.085773    0.092694
     0.123008    0.142294    0.144769    0.144772    0.160000    0.160000
     0.160000    0.160000    0.160000    0.166939    0.174126    0.202568
     0.221167    0.294177    0.294305    0.348090    0.348119    0.348120
     0.348151    0.348160    0.348169    1.086964

 Minimum Search - Taking P-RFO Step
 Searching for Lamda that Maximizes Along the Constraint modes Only
 Value Taken    Lamda =   0.00866463
 Searching for Lamda that Minimizes Along All other modes
 Value Taken    Lamda =  -0.02394148
 Calculated Step too Large.  Step scaled by  0.821621
 Step Taken.  Stepsize is  0.300000

                             Maximum     Tolerance    Cnvgd?
         Gradient            0.113264       0.000300      NO
         Displacement        0.113195       0.001200      NO
         Energy change     *********       0.000001      NO


 New Cartesian Coordinates Obtained by Inverse Iteration

 Displacement from previous Coordinates is:  0.525471
 ----------------------------------------------------------------
             Standard Nuclear Orientation (Angstroms)
    I     Atom           X                Y                Z
 ----------------------------------------------------------------
    1      Se      1.8889440010     0.1614067321    -0.0257506535
    2      C       0.5988993579    -1.1586651133     0.4708907967
    3      C      -0.6931949575    -1.0191176477    -0.3590077615
    4      C      -1.6259746057    -2.2036562223    -0.0479074888
    5      Se     -1.6350887142     0.7005675428    -0.0207249739
    6      H      -1.8528356882     0.4367839356     1.4310988697
    7      H       2.9609737331    -0.2939413909     0.9068829441
    8      H       1.0310968396    -2.1458317719     0.2878287605
    9      H       0.3735389293    -1.0598254287     1.5341802563
   10      H      -0.4419912786    -1.0248332111    -1.4230994446
   11      H      -1.9022539890    -2.2047895137     1.0090007055
   12      H      -2.5380273360    -2.1369518328    -0.6439941466
   13      H      -1.1260862917    -3.1505460783    -0.2778978638
 ----------------------------------------------------------------
 Nuclear Repulsion Energy =   594.2557313796 hartrees
 There are       47 alpha and       47 beta electrons

                       Distance Matrix (Angstroms)
             Se(  1)   C (  2)   C (  3)   C (  4)   Se(  5)   H (  6)
   C (  2)  1.911402
   C (  3)  2.858695  1.541983
   C (  4)  4.236587  2.512215  1.539478
   Se(  5)  3.565042  2.947734  1.989703  2.904365
   H (  6)  4.024818  3.078711  2.582421  3.034938  1.491572
   H (  7)  1.492111  2.552887  3.934629  5.059519  4.793046  4.897093
   H (  8)  2.481448  1.093071  2.158950  2.678823  3.912255  4.036587
   H (  9)  2.494242  1.091394  2.173416  2.794531  3.090518  2.684625
   H ( 10)  2.965301  2.165309  1.093356  2.163930  2.523320  3.503321
   H ( 11)  4.587241  2.764002  2.176945  1.092422  3.093996  2.675541
   H ( 12)  5.026207  3.469917  2.175816  1.091608  3.042249  3.376332
   H ( 13)  4.485869  2.739316  2.176456  1.095164  3.893109  4.039526
             H (  7)   H (  8)   H (  9)   H ( 10)   H ( 11)   H ( 12)
   H (  8)  2.745387
   H (  9)  2.770361  1.779096
   H ( 10)  4.188459  2.520695  3.067869
   H ( 11)  5.226160  3.021277  2.601152  3.072422
   H ( 12)  6.003409  3.688769  3.792343  2.497435  1.772344
   H ( 13)  5.125227  2.446004  3.147001  2.509607  1.775669  1.776226

 
 Applying Cartesian multipole field
    Component          Value
    ---------          -----
     (2,0,0)        1.00000E-11
     (0,2,0)        2.00000E-11
     (0,0,2)       -3.00000E-10
 Nucleus-field energy     =     0.0000000037 hartrees
 Requested basis set is 6-31G(d,p)
 There are 52 shells and 155 basis functions
 A cutoff of  1.0D-14 yielded   1252 shell pairs
 There are     11154 function pairs
 Smallest overlap matrix eigenvalue = 6.74E-04
 Guess from superposition of atomic densities
 Warning:  Energy on first SCF cycle will be non-variational
 SAD guess density has 93.936381 electrons

 -----------------------------------------------------------------------
  General SCF calculation program by
  Eric Jon Sundstrom, Paul Horn, Yuezhi Mao, Dmitri Zuev, Alec White,
  David Stuck, Shaama M.S., Shane Yost, Joonho Lee, David Small,
  Daniel Levine, Susi Lehtola, Hugh Burton, Evgeny Epifanovsky
 -----------------------------------------------------------------------
 Exchange:     0.2000 Hartree-Fock + 0.0800 Slater + 0.7200 B88
 Correlation:  0.1900 VWN1RPA + 0.8100 LYP
 Using SG-1 standard quadrature grid
 using 12 threads for integral computing
 -------------------------------------------------------
 OpenMP Integral computing Module                
 Release: version 1.0, May 2013, Q-Chem Inc. Pittsburgh 
 -------------------------------------------------------
 -------------------------------------------------------
 OpenMP BLAS3 based DFT computing Module                
 Release: version 1.0, May 2013, Q-Chem Inc. Pittsburgh 
 -------------------------------------------------------
 A unrestricted SCF calculation will be
 performed using DIIS
 SCF converges when DIIS error is below 1.0e-06
 Alpha HF Exchange    Energy = -18.88336635797016
 Beta HF Exchange     Energy = -18.88336635797016
 DFT Correlation      Energy =  -5.14709843947908
 DFT Exchange         Energy = -149.92527459423206
 One-Electron (alpha) Energy = -4011.78857086869039
 One-Electron (beta)  Energy = -4011.78857086869039
 Total Coulomb        Energy = 2694.15561012566604
 ---------------------------------------
  Cycle       Energy         DIIS error
 ---------------------------------------
    1   -4928.0049059781      1.51e-01  
 Alpha HF Exchange    Energy = -18.97850195203592
 Beta HF Exchange     Energy = -18.97850195203594
 DFT Correlation      Energy =  -5.20117324159145
 DFT Exchange         Energy = -151.08588410044476
 One-Electron (alpha) Energy = -4022.95227703278670
 One-Electron (beta)  Energy = -4022.95227703278852
 Total Coulomb        Energy = 2724.31028646671257
    2   -4921.5825974617      9.35e-03  
 Alpha HF Exchange    Energy = -18.84113030195777
 Beta HF Exchange     Energy = -18.84113030195777
 DFT Correlation      Energy =  -5.15685032914389
 DFT Exchange         Energy = -149.98067821241600
 One-Electron (alpha) Energy = -4006.55752086249504
 One-Electron (beta)  Energy = -4006.55752086249458
 Total Coulomb        Energy = 2690.10466448984880
    3   -4921.5744349974      3.89e-03  
 Alpha HF Exchange    Energy = -18.95932941079546
 Beta HF Exchange     Energy = -18.95932941079544
 DFT Correlation      Energy =  -5.19515328207774
 DFT Exchange         Energy = -150.92450987928993
 One-Electron (alpha) Energy = -4020.58676010638919
 One-Electron (beta)  Energy = -4020.58676010638555
 Total Coulomb        Energy = 2719.32653511928356
    4   -4921.6295756932      3.00e-03  
 Alpha HF Exchange    Energy = -18.91529159883059
 Beta HF Exchange     Energy = -18.91529159883062
 DFT Correlation      Energy =  -5.17971934715824
 DFT Exchange         Energy = -150.56869137490247
 One-Electron (alpha) Energy = -4015.63415502161342
 One-Electron (beta)  Energy = -4015.63415502161752
 Total Coulomb        Energy = 2708.87205051154979
    5   -4921.7195220682      6.92e-04  
 Alpha HF Exchange    Energy = -18.91190908583847
 Beta HF Exchange     Energy = -18.91190908583848
 DFT Correlation      Energy =  -5.17991308075693
 DFT Exchange         Energy = -150.54517894225722
 One-Electron (alpha) Energy = -4015.17757627700530
 One-Electron (beta)  Energy = -4015.17757627700666
 Total Coulomb        Energy = 2707.92300035453263
    6   -4921.7253310109      8.50e-05  
 Alpha HF Exchange    Energy = -18.91126374993047
 Beta HF Exchange     Energy = -18.91126374993048
 DFT Correlation      Energy =  -5.17947889576645
 DFT Exchange         Energy = -150.53945171233130
 One-Electron (alpha) Energy = -4015.09309826428034
 One-Electron (beta)  Energy = -4015.09309826428080
 Total Coulomb        Energy = 2707.74651031786925
    7   -4921.7254129354      1.80e-05  
 Alpha HF Exchange    Energy = -18.91138402856648
 Beta HF Exchange     Energy = -18.91138402856646
 DFT Correlation      Energy =  -5.17950981424862
 DFT Exchange         Energy = -150.54041812479042
 One-Electron (alpha) Energy = -4015.10370376177798
 One-Electron (beta)  Energy = -4015.10370376177616
 Total Coulomb        Energy = 2707.76895515680098
    8   -4921.7254169797      7.34e-06  
 Alpha HF Exchange    Energy = -18.91140066140812
 Beta HF Exchange     Energy = -18.91140066140809
 DFT Correlation      Energy =  -5.17952249681347
 DFT Exchange         Energy = -150.54055100355396
 One-Electron (alpha) Energy = -4015.10849286001940
 One-Electron (beta)  Energy = -4015.10849286001621
 Total Coulomb        Energy = 2707.77871157539084
    9   -4921.7254175846      1.41e-06  
 Alpha HF Exchange    Energy = -18.91140543111113
 Beta HF Exchange     Energy = -18.91140543111112
 DFT Correlation      Energy =  -5.17952523199432
 DFT Exchange         Energy = -150.54058823785567
 One-Electron (alpha) Energy = -4015.10928171343085
 One-Electron (beta)  Energy = -4015.10928171342857
 Total Coulomb        Energy = 2707.78033876774134
   10   -4921.7254176079      4.64e-07  Convergence criterion met
 ---------------------------------------
 SCF time:   CPU 50.36s  wall 4.00s 
<S^2> =          0.000000000
 Alpha HF Exchange    Energy = -18.91140543111113
 Beta HF Exchange     Energy = -18.91140543111112
 DFT Correlation      Energy =  -5.17952523199432
 DFT Exchange         Energy = -150.54058823785567
 One-Electron (alpha) Energy = -4015.10928171343085
 One-Electron (beta)  Energy = -4015.10928171342857
 Total Coulomb        Energy = 2707.78033876774134
 Nuclear repulsion Energy = 594.25573138324660
 SCF   energy in the final basis set =    -4921.7254176079
 Total energy in the final basis set =    -4921.7254176079
 
 --------------------------------------------------------------
 
                    Orbital Energies (a.u.)
 --------------------------------------------------------------
 
 Alpha MOs
 -- Occupied --
*******-453.892 -58.091 -58.087 -52.148 -52.147 -52.145 -52.145
-52.144 -52.141 -10.241 -10.224 -10.194  -7.824  -7.821  -5.770
 -5.767  -5.766  -5.763  -5.756  -5.753  -2.104  -2.103  -2.101
 -2.100  -2.095  -2.091  -2.091  -2.090  -2.088  -2.087  -0.826
 -0.742  -0.693  -0.645  -0.584  -0.472  -0.443  -0.439  -0.413
 -0.388  -0.363  -0.354  -0.324  -0.309  -0.235  -0.215
 -- Virtual --
 -0.007   0.023   0.041   0.055   0.092   0.115   0.135   0.153
  0.161   0.173   0.187   0.200   0.213   0.253   0.278   0.293
  0.311   0.315   0.332   0.359   0.437   0.462   0.475   0.505
  0.533   0.550   0.565   0.618   0.620   0.663   0.672   0.682
  0.704   0.753   0.768   0.804   0.844   0.850   0.879   0.885
  0.888   0.906   0.922   0.962   1.030   1.044   1.051   1.114
  1.361   1.364   1.409   1.523   1.599   1.607   1.671   1.768
  1.770   1.812   1.868   1.933   2.030   2.042   2.061   2.067
  2.080   2.083   2.097   2.115   2.121   2.186   2.253   2.282
  2.351   2.438   2.502   2.566   2.591   2.599   2.616   2.645
  2.713   2.730   2.821   2.865   2.884   3.189   3.248   3.313
  3.429   3.452   3.477   4.194   4.274   4.282   4.330   4.349
  4.361   4.375   4.392   4.404   4.455   4.491   4.546   4.622
  5.467   5.484  89.739  89.827
 
 Beta MOs
 -- Occupied --
*******-453.892 -58.091 -58.087 -52.148 -52.147 -52.145 -52.145
-52.144 -52.141 -10.241 -10.224 -10.194  -7.824  -7.821  -5.770
 -5.767  -5.766  -5.763  -5.756  -5.753  -2.104  -2.103  -2.101
 -2.100  -2.095  -2.091  -2.091  -2.090  -2.088  -2.087  -0.826
 -0.742  -0.693  -0.645  -0.584  -0.472  -0.443  -0.439  -0.413
 -0.388  -0.363  -0.354  -0.324  -0.309  -0.235  -0.215
 -- Virtual --
 -0.007   0.023   0.041   0.055   0.092   0.115   0.135   0.153
  0.161   0.173   0.187   0.200   0.213   0.253   0.278   0.293
  0.311   0.315   0.332   0.359   0.437   0.462   0.475   0.505
  0.533   0.550   0.565   0.618   0.620   0.663   0.672   0.682
  0.704   0.753   0.768   0.804   0.844   0.850   0.879   0.885
  0.888   0.906   0.922   0.962   1.030   1.044   1.051   1.114
  1.361   1.364   1.409   1.523   1.599   1.607   1.671   1.768
  1.770   1.812   1.868   1.933   2.030   2.042   2.061   2.067
  2.080   2.083   2.097   2.115   2.121   2.186   2.253   2.282
  2.351   2.438   2.502   2.566   2.591   2.599   2.616   2.645
  2.713   2.730   2.821   2.865   2.884   3.189   3.248   3.313
  3.429   3.452   3.477   4.194   4.274   4.282   4.330   4.349
  4.361   4.375   4.392   4.404   4.455   4.491   4.546   4.622
  5.467   5.484  89.739  89.827
 --------------------------------------------------------------
 
          Ground-State Mulliken Net Atomic Charges

     Atom                 Charge (a.u.)    Spin (a.u.)
  --------------------------------------------------------
      1 Se                   -0.070718      -0.000000
      2 C                    -0.238398      -0.000000
      3 C                    -0.174940       0.000000
      4 C                    -0.306863      -0.000000
      5 Se                   -0.060077      -0.000000
      6 H                     0.048299       0.000000
      7 H                     0.045209       0.000000
      8 H                     0.133171       0.000000
      9 H                     0.130999      -0.000000
     10 H                     0.143310      -0.000000
     11 H                     0.111987      -0.000000
     12 H                     0.130789       0.000000
     13 H                     0.107233      -0.000000
  --------------------------------------------------------
  Sum of atomic charges =    -0.000000
  Sum of spin   charges =    -0.000000

 -----------------------------------------------------------------
                    Cartesian Multipole Moments
 -----------------------------------------------------------------
    Charge (ESU x 10^10)
                -0.0000
    Dipole Moment (Debye)
         X      -0.1710      Y      -2.4973      Z       1.0936
       Tot       2.7316
    Quadrupole Moments (Debye-Ang)
        XX     -59.2063     XY       0.1008     YY     -56.5312
        XZ       0.8810     YZ      -0.5572     ZZ     -55.1314
    Octopole Moments (Debye-Ang^2)
       XXX      34.8123    XXY      14.3452    XYY       5.0574
       YYY      39.3810    XXZ       9.6815    XYZ      -4.1215
       YYZ      -2.7143    XZZ       2.0009    YZZ      14.4843
       ZZZ      -3.0333
    Hexadecapole Moments (Debye-Ang^3)
      XXXX    -971.1728   XXXY     -22.3829   XXYY    -234.0149
      XYYY     -35.8269   YYYY    -457.5360   XXXZ       1.3717
      XXYZ       0.2435   XYYZ      -4.7963   YYYZ       4.7179
      XXZZ    -178.0835   XYZZ     -11.0548   YYZZ     -96.6955
      XZZZ     -11.2262   YZZZ       1.3594   ZZZZ    -111.7709
 -----------------------------------------------------------------
 Calculating analytic gradient of the SCF energy
 Gradient of SCF Energy
            1           2           3           4           5           6
    1  -0.0239034   0.0161840  -0.0019954  -0.0015785   0.0027928  -0.0018386
    2  -0.0204099   0.0128158   0.0125705  -0.0042796  -0.0032853   0.0001950
    3   0.0026840  -0.0026707  -0.0128533   0.0046989  -0.0003144   0.0055672
            7           8           9          10          11          12
    1   0.0042771   0.0015305   0.0010144   0.0018407   0.0007616   0.0009406
    2   0.0005999   0.0012990   0.0015674  -0.0043133   0.0010925   0.0009552
    3   0.0048774  -0.0006581  -0.0008774   0.0012078  -0.0009867  -0.0005077
           13
    1  -0.0000258
    2   0.0011927
    3  -0.0001670
 Max gradient component =       2.390E-02
 RMS gradient           =       7.039E-03
 Gradient time:  CPU 20.66 s  wall 1.78 s
 Geometry Optimization Parameters
   NAtoms,    NIC,     NZ,  NCons,   NDum,   NFix, NCnnct, MaxDiis
       13      82       0       1       0       0       0       0

 Cartesian Hessian Update
 Hessian Updated using BFGS Update


** CONSTRAINED OPTIMIZATION IN DELOCALIZED INTERNAL COORDINATES **
   Searching for a Minimum

   Optimization Cycle:   2

                       Coordinates (Angstroms)
     ATOM                X               Y               Z
      1  Se        1.8889440010    0.1614067321   -0.0257506535
      2  C         0.5988993579   -1.1586651133    0.4708907967
      3  C        -0.6931949575   -1.0191176477   -0.3590077615
      4  C        -1.6259746057   -2.2036562223   -0.0479074888
      5  Se       -1.6350887142    0.7005675428   -0.0207249739
      6  H        -1.8528356882    0.4367839356    1.4310988697
      7  H         2.9609737331   -0.2939413909    0.9068829441
      8  H         1.0310968396   -2.1458317719    0.2878287605
      9  H         0.3735389293   -1.0598254287    1.5341802563
     10  H        -0.4419912786   -1.0248332111   -1.4230994446
     11  H        -1.9022539890   -2.2047895137    1.0090007055
     12  H        -2.5380273360   -2.1369518328   -0.6439941466
     13  H        -1.1260862917   -3.1505460783   -0.2778978638
   Point Group: c1    Number of degrees of freedom:    33


   Energy is  -4921.725417608

              Constraints and their Current Values
                                        Value     Constraint
   Distance(Angs):        1   2             1.911402     1.900000
 Hessian Updated using BFGS Update

   Using Lagrange Multiplier Algorithm


 29 Hessian modes will be used to form the next step
  Hessian Eigenvalues:
    -0.916193    0.044317    0.045075    0.075297    0.078149    0.079715
     0.084996    0.085003    0.085670    0.092777    0.122930    0.140912
     0.144767    0.149240    0.159231    0.164837    0.170711    0.176465
     0.206770    0.219604    0.294226    0.302758    0.347619    0.348115
     0.348127    0.348133    0.348168    0.348436    1.091820

 Minimum Search - Taking P-RFO Step
 Searching for Lamda that Maximizes Along the Constraint modes Only
 Value Taken    Lamda =   0.00028249
 Searching for Lamda that Minimizes Along All other modes
 Value Taken    Lamda =  -0.00267549
 Step Taken.  Stepsize is  0.178504

                             Maximum     Tolerance    Cnvgd?
         Gradient            0.021547       0.000300      NO
         Displacement        0.066803       0.001200      NO
         Energy change     -0.008225       0.000001      NO


 New Cartesian Coordinates Obtained by Inverse Iteration

 Displacement from previous Coordinates is:  0.257539
 ----------------------------------------------------------------
             Standard Nuclear Orientation (Angstroms)
    I     Atom           X                Y                Z
 ----------------------------------------------------------------
    1      Se      1.8979057087     0.1782770666     0.0048141346
    2      C       0.6066149096    -1.1318853325     0.4803108832
    3      C      -0.6945351375    -1.0127975010    -0.3321102493
    4      C      -1.6159630804    -2.2070931048    -0.0429904719
    5      Se     -1.6640848687     0.7091473170    -0.0430454438
    6      H      -1.8646452508     0.4493798154     1.3889043414
    7      H       2.9536378505    -0.3715747780     0.8658009413
    8      H       1.0215813185    -2.1232666792     0.2764796427
    9      H       0.3875566839    -1.0603336035     1.5489856912
   10      H      -0.4517160010    -0.9950916522    -1.3994266604
   11      H      -1.9047312775    -2.2318364365     1.0125068673
   12      H      -2.5286388586    -2.1533525973    -0.6410451540
   13      H      -1.1049819968    -3.1489725140    -0.2776845224
 ----------------------------------------------------------------
 Nuclear Repulsion Energy =   592.2452725559 hartrees
 There are       47 alpha and       47 beta electrons

                       Distance Matrix (Angstroms)
             Se(  1)   C (  2)   C (  3)   C (  4)   Se(  5)   H (  6)
   C (  2)  1.900014
   C (  3)  2.872791  1.538571
   C (  4)  4.247299  2.523840  1.535891
   Se(  5)  3.601651  2.969744  1.997168  2.916637
   H (  6)  4.018208  3.071330  2.543425  3.028038  1.469076
   H (  7)  1.469083  2.497037  3.892984  5.007622  4.828802  4.915634
   H (  8)  2.477670  1.093884  2.132740  2.658144  3.916308  4.023220
   H (  9)  2.489935  1.093239  2.170646  2.804200  3.142429  2.716114
   H ( 10)  2.978155  2.161525  1.094732  2.159708  2.492797  3.443495
   H ( 11)  4.613474  2.792845  2.181427  1.094566  3.133925  2.707804
   H ( 12)  5.044594  3.482908  2.181798  1.092490  3.049420  3.366868
   H ( 13)  4.490850  2.751865  2.175930  1.096959  3.905476  4.037666
             H (  7)   H (  8)   H (  9)   H ( 10)   H ( 11)   H ( 12)
   H (  8)  2.673680
   H (  9)  2.743338  1.775130
   H ( 10)  4.137205  2.500409  3.066231
   H ( 11)  5.204406  3.019409  2.629603  3.075421
   H ( 12)  5.958244  3.666991  3.807246  2.496061  1.769083
   H ( 13)  5.049148  2.425168  3.150684  2.514809  1.773508  1.774849

 
 Applying Cartesian multipole field
    Component          Value
    ---------          -----
     (2,0,0)        1.00000E-11
     (0,2,0)        2.00000E-11
     (0,0,2)       -3.00000E-10
 Nucleus-field energy     =     0.0000000041 hartrees
 Requested basis set is 6-31G(d,p)
 There are 52 shells and 155 basis functions
 A cutoff of  1.0D-14 yielded   1245 shell pairs
 There are     11041 function pairs
 Smallest overlap matrix eigenvalue = 6.74E-04
 Guess from superposition of atomic densities
 Warning:  Energy on first SCF cycle will be non-variational
 SAD guess density has 93.936381 electrons

 -----------------------------------------------------------------------
  General SCF calculation program by
  Eric Jon Sundstrom, Paul Horn, Yuezhi Mao, Dmitri Zuev, Alec White,
  David Stuck, Shaama M.S., Shane Yost, Joonho Lee, David Small,
  Daniel Levine, Susi Lehtola, Hugh Burton, Evgeny Epifanovsky
 -----------------------------------------------------------------------
 Exchange:     0.2000 Hartree-Fock + 0.0800 Slater + 0.7200 B88
 Correlation:  0.1900 VWN1RPA + 0.8100 LYP
 Using SG-1 standard quadrature grid
 using 12 threads for integral computing
 -------------------------------------------------------
 OpenMP Integral computing Module                
 Release: version 1.0, May 2013, Q-Chem Inc. Pittsburgh 
 -------------------------------------------------------
 -------------------------------------------------------
 OpenMP BLAS3 based DFT computing Module                
 Release: version 1.0, May 2013, Q-Chem Inc. Pittsburgh 
 -------------------------------------------------------
 A unrestricted SCF calculation will be
 performed using DIIS
 SCF converges when DIIS error is below 1.0e-06
 Alpha HF Exchange    Energy = -18.88577054411670
 Beta HF Exchange     Energy = -18.88577054411670
 DFT Correlation      Energy =  -5.14757341955378
 DFT Exchange         Energy = -149.93125887177609
 One-Electron (alpha) Energy = -4009.75850699593502
 One-Electron (beta)  Energy = -4009.75850699593502
 Total Coulomb        Energy = 2692.09618121609446
 ---------------------------------------
  Cycle       Energy         DIIS error
 ---------------------------------------
    1   -4928.0259335953      1.51e-01  
 Alpha HF Exchange    Energy = -18.97972625725394
 Beta HF Exchange     Energy = -18.97972625725393
 DFT Correlation      Energy =  -5.20165595354287
 DFT Exchange         Energy = -151.09462588129449
 One-Electron (alpha) Energy = -4020.87472530111927
 One-Electron (beta)  Energy = -4020.87472530111927
 Total Coulomb        Energy = 2722.17491686300673
    2   -4921.5849955286      9.35e-03  
 Alpha HF Exchange    Energy = -18.84286229574034
 Beta HF Exchange     Energy = -18.84286229574035
 DFT Correlation      Energy =  -5.15768110556860
 DFT Exchange         Energy = -149.99308409720499
 One-Electron (alpha) Energy = -4004.69827841982442
 One-Electron (beta)  Energy = -4004.69827841982442
 Total Coulomb        Energy = 2688.40791825439692
    3   -4921.5798558195      3.85e-03  
 Alpha HF Exchange    Energy = -18.96006056310815
 Beta HF Exchange     Energy = -18.96006056310816
 DFT Correlation      Energy =  -5.19544447130817
 DFT Exchange         Energy = -150.92936029319932
 One-Electron (alpha) Energy = -4018.41974372166078
 One-Electron (beta)  Energy = -4018.41974372165942
 Total Coulomb        Energy = 2717.00559434121260
    4   -4921.6335464328      2.97e-03  
 Alpha HF Exchange    Energy = -18.91661624296971
 Beta HF Exchange     Energy = -18.91661624296970
 DFT Correlation      Energy =  -5.18029005285760
 DFT Exchange         Energy = -150.57799347182356
 One-Electron (alpha) Energy = -4013.63386256110743
 One-Electron (beta)  Energy = -4013.63386256110698
 Total Coulomb        Energy = 2706.89354139531906
    5   -4921.7204271775      6.90e-04  
 Alpha HF Exchange    Energy = -18.91319437197527
 Beta HF Exchange     Energy = -18.91319437197525
 DFT Correlation      Energy =  -5.18047458925564
 DFT Exchange         Energy = -150.55418949426991
 One-Electron (alpha) Energy = -4013.16372728779379
 One-Electron (beta)  Energy = -4013.16372728779288
 Total Coulomb        Energy = 2705.91704230102550
    6   -4921.7261925420      8.30e-05  
 Alpha HF Exchange    Energy = -18.91251842319473
 Beta HF Exchange     Energy = -18.91251842319477
 DFT Correlation      Energy =  -5.18003877865241
 DFT Exchange         Energy = -150.54824625334197
 One-Electron (alpha) Energy = -4013.07403360147737
 One-Electron (beta)  Energy = -4013.07403360147919
 Total Coulomb        Energy = 2705.72984517042596
    7   -4921.7262713509      1.83e-05  
 Alpha HF Exchange    Energy = -18.91263978255151
 Beta HF Exchange     Energy = -18.91263978255147
 DFT Correlation      Energy =  -5.18006693711760
 DFT Exchange         Energy = -150.54921167419977
 One-Electron (alpha) Energy = -4013.08629402741099
 One-Electron (beta)  Energy = -4013.08629402740598
 Total Coulomb        Energy = 2705.75559837928995
    8   -4921.7262752919      8.25e-06  
 Alpha HF Exchange    Energy = -18.91265505878508
 Beta HF Exchange     Energy = -18.91265505878504
 DFT Correlation      Energy =  -5.18007957000916
 DFT Exchange         Energy = -150.54933659574729
 One-Electron (alpha) Energy = -4013.09025238679033
 One-Electron (beta)  Energy = -4013.09025238678441
 Total Coulomb        Energy = 2705.76368245902222
    9   -4921.7262760379      1.42e-06  
 Alpha HF Exchange    Energy = -18.91266010574899
 Beta HF Exchange     Energy = -18.91266010574901
 DFT Correlation      Energy =  -5.18008259407611
 DFT Exchange         Energy = -150.54937613709680
 One-Electron (alpha) Energy = -4013.09118178080917
 One-Electron (beta)  Energy = -4013.09118178081098
 Total Coulomb        Energy = 2705.76559388145324
   10   -4921.7262760628      4.44e-07  Convergence criterion met
 ---------------------------------------
 SCF time:   CPU 50.50s  wall 5.00s 
<S^2> =         -0.000000000
 Alpha HF Exchange    Energy = -18.91266010574899
 Beta HF Exchange     Energy = -18.91266010574901
 DFT Correlation      Energy =  -5.18008259407611
 DFT Exchange         Energy = -150.54937613709680
 One-Electron (alpha) Energy = -4013.09118178080917
 One-Electron (beta)  Energy = -4013.09118178081098
 Total Coulomb        Energy = 2705.76559388145324
 Nuclear repulsion Energy = 592.24527256001249
 SCF   energy in the final basis set =    -4921.7262760628
 Total energy in the final basis set =    -4921.7262760628
 
 --------------------------------------------------------------
 
                    Orbital Energies (a.u.)
 --------------------------------------------------------------
 
 Alpha MOs
 -- Occupied --
*******-453.892 -58.090 -58.088 -52.147 -52.146 -52.145 -52.144
-52.144 -52.142 -10.240 -10.224 -10.195  -7.823  -7.822  -5.769
 -5.767  -5.765  -5.763  -5.755  -5.753  -2.103  -2.102  -2.102
 -2.100  -2.094  -2.092  -2.091  -2.089  -2.089  -2.087  -0.826
 -0.745  -0.694  -0.647  -0.582  -0.470  -0.445  -0.440  -0.412
 -0.389  -0.361  -0.355  -0.326  -0.310  -0.234  -0.217
 -- Virtual --
 -0.007   0.022   0.048   0.061   0.092   0.115   0.135   0.151
  0.162   0.173   0.188   0.201   0.212   0.252   0.278   0.290
  0.310   0.314   0.331   0.362   0.435   0.461   0.477   0.506
  0.529   0.550   0.566   0.611   0.624   0.668   0.675   0.682
  0.704   0.751   0.767   0.806   0.844   0.848   0.876   0.886
  0.889   0.906   0.923   0.963   1.026   1.056   1.062   1.107
  1.355   1.372   1.414   1.518   1.598   1.605   1.682   1.755
  1.775   1.818   1.868   1.925   2.032   2.045   2.064   2.070
  2.084   2.085   2.101   2.119   2.124   2.190   2.247   2.289
  2.351   2.437   2.498   2.566   2.601   2.603   2.633   2.656
  2.717   2.732   2.822   2.863   2.883   3.182   3.246   3.313
  3.430   3.450   3.476   4.192   4.275   4.281   4.331   4.346
  4.362   4.379   4.387   4.402   4.452   4.488   4.539   4.621
  5.467   5.485  89.747  89.826
 
 Beta MOs
 -- Occupied --
*******-453.892 -58.090 -58.088 -52.147 -52.146 -52.145 -52.144
-52.144 -52.142 -10.240 -10.224 -10.195  -7.823  -7.822  -5.769
 -5.767  -5.765  -5.763  -5.755  -5.753  -2.103  -2.102  -2.102
 -2.100  -2.094  -2.092  -2.091  -2.089  -2.089  -2.087  -0.826
 -0.745  -0.694  -0.647  -0.582  -0.470  -0.445  -0.440  -0.412
 -0.389  -0.361  -0.355  -0.326  -0.310  -0.234  -0.217
 -- Virtual --
 -0.007   0.022   0.048   0.061   0.092   0.115   0.135   0.151
  0.162   0.173   0.188   0.201   0.212   0.252   0.278   0.290
  0.310   0.314   0.331   0.362   0.435   0.461   0.477   0.506
  0.529   0.550   0.566   0.611   0.624   0.668   0.675   0.682
  0.704   0.751   0.767   0.806   0.844   0.848   0.876   0.886
  0.889   0.906   0.923   0.963   1.026   1.056   1.062   1.107
  1.355   1.372   1.414   1.518   1.598   1.605   1.682   1.755
  1.775   1.818   1.868   1.925   2.032   2.045   2.064   2.070
  2.084   2.085   2.101   2.119   2.124   2.190   2.247   2.289
  2.351   2.437   2.498   2.566   2.601   2.603   2.633   2.656
  2.717   2.732   2.822   2.863   2.883   3.182   3.246   3.313
  3.430   3.450   3.476   4.192   4.275   4.281   4.331   4.346
  4.362   4.379   4.387   4.402   4.452   4.488   4.539   4.621
  5.467   5.485  89.747  89.826
 --------------------------------------------------------------
 
          Ground-State Mulliken Net Atomic Charges

     Atom                 Charge (a.u.)    Spin (a.u.)
  --------------------------------------------------------
      1 Se                   -0.067116       0.000000
      2 C                    -0.237199      -0.000000
      3 C                    -0.173329       0.000000
      4 C                    -0.308305      -0.000000
      5 Se                   -0.065620      -0.000000
      6 H                     0.050500       0.000000
      7 H                     0.046794      -0.000000
      8 H                     0.132030      -0.000000
      9 H                     0.130348      -0.000000
     10 H                     0.141284      -0.000000
     11 H                     0.111909       0.000000
     12 H                     0.131420       0.000000
     13 H                     0.107284       0.000000
  --------------------------------------------------------
  Sum of atomic charges =     0.000000
  Sum of spin   charges =     0.000000

 -----------------------------------------------------------------
                    Cartesian Multipole Moments
 -----------------------------------------------------------------
    Charge (ESU x 10^10)
                 0.0000
    Dipole Moment (Debye)
         X      -0.1056      Y      -2.5347      Z       1.0648
       Tot       2.7513
    Quadrupole Moments (Debye-Ang)
        XX     -58.8884     XY      -0.1229     YY     -56.4352
        XZ       0.7296     YZ      -0.6627     ZZ     -55.3854
    Octopole Moments (Debye-Ang^2)
       XXX      36.6408    XXY      12.9802    XYY       5.3267
       YYY      37.6299    XXZ       8.9568    XYZ      -4.1767
       YYZ      -3.0103    XZZ       2.1610    YZZ      13.8499
       ZZZ      -4.0320
    Hexadecapole Moments (Debye-Ang^3)
      XXXX    -978.8253   XXXY     -24.1796   XXYY    -234.7897
      XYYY     -34.6025   YYYY    -458.1930   XXXZ      -4.9081
      XXYZ       0.4176   XYYZ      -6.4943   YYYZ       6.0059
      XXZZ    -180.5721   XYZZ     -11.1715   YYZZ     -96.7733
      XZZZ     -16.0043   YZZZ       2.4551   ZZZZ    -111.0678
 -----------------------------------------------------------------
 Calculating analytic gradient of the SCF energy
 Gradient of SCF Energy
            1           2           3           4           5           6
    1  -0.0195502   0.0224679  -0.0007005  -0.0005830  -0.0005425   0.0004728
    2  -0.0252151   0.0193616   0.0060121  -0.0017151  -0.0006710  -0.0006441
    3   0.0084943  -0.0052873  -0.0031535   0.0013855   0.0030929  -0.0025269
            7           8           9          10          11          12
    1  -0.0024299  -0.0003073   0.0007419   0.0006267   0.0000081  -0.0001979
    2   0.0025248   0.0005611   0.0010348  -0.0016241   0.0003932  -0.0001182
    3  -0.0004602  -0.0013074  -0.0001216   0.0003839  -0.0001984  -0.0001417
           13
    1  -0.0000060
    2   0.0000999
    3  -0.0001597
 Max gradient component =       2.522E-02
 RMS gradient           =       7.315E-03
 Gradient time:  CPU 20.66 s  wall 1.76 s
 Geometry Optimization Parameters
   NAtoms,    NIC,     NZ,  NCons,   NDum,   NFix, NCnnct, MaxDiis
       13      82       0       1       0       0       0       0

 Cartesian Hessian Update
 Hessian Updated using BFGS Update


** CONSTRAINED OPTIMIZATION IN DELOCALIZED INTERNAL COORDINATES **
   Searching for a Minimum

   Optimization Cycle:   3

                       Coordinates (Angstroms)
     ATOM                X               Y               Z
      1  Se        1.8979057087    0.1782770666    0.0048141346
      2  C         0.6066149096   -1.1318853325    0.4803108832
      3  C        -0.6945351375   -1.0127975010   -0.3321102493
      4  C        -1.6159630804   -2.2070931048   -0.0429904719
      5  Se       -1.6640848687    0.7091473170   -0.0430454438
      6  H        -1.8646452508    0.4493798154    1.3889043414
      7  H         2.9536378505   -0.3715747780    0.8658009413
      8  H         1.0215813185   -2.1232666792    0.2764796427
      9  H         0.3875566839   -1.0603336035    1.5489856912
     10  H        -0.4517160010   -0.9950916522   -1.3994266604
     11  H        -1.9047312775   -2.2318364365    1.0125068673
     12  H        -2.5286388586   -2.1533525973   -0.6410451540
     13  H        -1.1049819968   -3.1489725140   -0.2776845224
   Point Group: c1    Number of degrees of freedom:    33


   Energy is  -4921.726276063

              Constraints and their Current Values
                                        Value     Constraint
   Distance(Angs):        1   2             1.900014     1.900000
 Hessian Updated using BFGS Update

   Using Lagrange Multiplier Algorithm


 31 Hessian modes will be used to form the next step
  Hessian Eigenvalues:
    -0.916123    0.032227    0.045004    0.045099    0.066813    0.078023
     0.079808    0.084998    0.085002    0.085449    0.092826    0.124384
     0.142380    0.144850    0.154065    0.156789    0.160651    0.167343
     0.173140    0.201647    0.217627    0.225814    0.294234    0.307441
     0.347368    0.348115    0.348127    0.348152    0.348402    0.348613
     1.092471

 Minimum Search - Taking P-RFO Step
 Searching for Lamda that Maximizes Along the Constraint modes Only
 Value Taken    Lamda =   0.00000004
 Searching for Lamda that Minimizes Along All other modes
 Value Taken    Lamda =  -0.00067955
 Step Taken.  Stepsize is  0.126957

                             Maximum     Tolerance    Cnvgd?
         Gradient            0.003058       0.000300      NO
         Displacement        0.058979       0.001200      NO
         Energy change     -0.000858       0.000001      NO


 New Cartesian Coordinates Obtained by Inverse Iteration

 Displacement from previous Coordinates is:  0.180989
 ----------------------------------------------------------------
             Standard Nuclear Orientation (Angstroms)
    I     Atom           X                Y                Z
 ----------------------------------------------------------------
    1      Se      1.8943369084     0.1997426918     0.0269431195
    2      C       0.6070160371    -1.1201004286     0.4860958625
    3      C      -0.6960901215    -1.0153850229    -0.3187477199
    4      C      -1.6090604547    -2.2144035369    -0.0425605602
    5      Se     -1.6761470383     0.7129249996    -0.0579035572
    6      H      -1.8817124742     0.4910928373     1.3822033920
    7      H       2.9605990345    -0.4224939504     0.8325815162
    8      H       1.0251480360    -2.1099499380     0.2761701438
    9      H       0.3878852814    -1.0687152488     1.5567298320
   10      H      -0.4576406368    -0.9816213920    -1.3875872048
   11      H      -1.9048661935    -2.2535732512     1.0114567081
   12      H      -2.5196398323    -2.1639827713    -0.6437513937
   13      H      -1.0918285459    -3.1529349886    -0.2801301384
 ----------------------------------------------------------------
 Nuclear Repulsion Energy =   591.1343509486 hartrees
 There are       47 alpha and       47 beta electrons

                       Distance Matrix (Angstroms)
             Se(  1)   C (  2)   C (  3)   C (  4)   Se(  5)   H (  6)
   C (  2)  1.900001
   C (  3)  2.882074  1.535195
   C (  4)  4.255200  2.527444  1.532136
   Se(  5)  3.608173  2.978045  2.003898  2.928137
   H (  6)  4.022457  3.097212  2.562891  3.069854  1.471521
   H (  7)  1.474160  2.479125  3.879234  4.985840  4.856084  4.958297
   H (  8)  2.480380  1.094854  2.124773  2.655476  3.921380  4.054451
   H (  9)  2.493718  1.094036  2.166856  2.803235  3.168835  2.759445
   H ( 10)  2.988029  2.159481  1.095635  2.157456  2.474733  3.445085
   H ( 11)  4.628387  2.805409  2.182589  1.095440  3.161638  2.769690
   H ( 12)  5.051754  3.484569  2.179504  1.092304  3.054717  3.400128
   H ( 13)  4.500214  2.757824  2.174217  1.097638  3.916080  4.082427
             H (  7)   H (  8)   H (  9)   H ( 10)   H ( 11)   H ( 12)
   H (  8)  2.627370
   H (  9)  2.749700  1.769211
   H ( 10)  4.114138  2.497974  3.064556
   H ( 11)  5.201692  3.024278  2.637787  3.076968
   H ( 12)  5.936780  3.662608  3.807287  2.490605  1.767961
   H ( 13)  5.011547  2.424640  3.147631  2.518583  1.771462  1.774512

 
 Applying Cartesian multipole field
    Component          Value
    ---------          -----
     (2,0,0)        1.00000E-11
     (0,2,0)        2.00000E-11
     (0,0,2)       -3.00000E-10
 Nucleus-field energy     =     0.0000000042 hartrees
 Requested basis set is 6-31G(d,p)
 There are 52 shells and 155 basis functions
 A cutoff of  1.0D-14 yielded   1243 shell pairs
 There are     11019 function pairs
 Smallest overlap matrix eigenvalue = 6.74E-04
 Guess from superposition of atomic densities
 Warning:  Energy on first SCF cycle will be non-variational
 SAD guess density has 93.936381 electrons

 -----------------------------------------------------------------------
  General SCF calculation program by
  Eric Jon Sundstrom, Paul Horn, Yuezhi Mao, Dmitri Zuev, Alec White,
  David Stuck, Shaama M.S., Shane Yost, Joonho Lee, David Small,
  Daniel Levine, Susi Lehtola, Hugh Burton, Evgeny Epifanovsky
 -----------------------------------------------------------------------
 Exchange:     0.2000 Hartree-Fock + 0.0800 Slater + 0.7200 B88
 Correlation:  0.1900 VWN1RPA + 0.8100 LYP
 Using SG-1 standard quadrature grid
 using 12 threads for integral computing
 -------------------------------------------------------
 OpenMP Integral computing Module                
 Release: version 1.0, May 2013, Q-Chem Inc. Pittsburgh 
 -------------------------------------------------------
 -------------------------------------------------------
 OpenMP BLAS3 based DFT computing Module                
 Release: version 1.0, May 2013, Q-Chem Inc. Pittsburgh 
 -------------------------------------------------------
 A unrestricted SCF calculation will be
 performed using DIIS
 SCF converges when DIIS error is below 1.0e-06
 Alpha HF Exchange    Energy = -18.88523707550981
 Beta HF Exchange     Energy = -18.88523707550981
 DFT Correlation      Energy =  -5.14729354936899
 DFT Exchange         Energy = -149.93005220040112
 One-Electron (alpha) Energy = -4008.65297935545323
 One-Electron (beta)  Energy = -4008.65297935545323
 Total Coulomb        Energy = 2691.00068779070398
 ---------------------------------------
  Cycle       Energy         DIIS error
 ---------------------------------------
    1   -4928.0187398681      1.51e-01  
 Alpha HF Exchange    Energy = -18.97931902304034
 Beta HF Exchange     Energy = -18.97931902304034
 DFT Correlation      Energy =  -5.20140157696330
 DFT Exchange         Energy = -151.09212968935833
 One-Electron (alpha) Energy = -4019.76088364231828
 One-Electron (beta)  Energy = -4019.76088364231964
 Total Coulomb        Energy = 2721.05433280680745
    2   -4921.5852528374      9.35e-03  
 Alpha HF Exchange    Energy = -18.84242569391596
 Beta HF Exchange     Energy = -18.84242569391595
 DFT Correlation      Energy =  -5.15734166520566
 DFT Exchange         Energy = -149.99027173815682
 One-Electron (alpha) Energy = -4003.56116308450646
 One-Electron (beta)  Energy = -4003.56116308450510
 Total Coulomb        Energy = 2687.24069716101621
    3   -4921.5797428463      3.85e-03  
 Alpha HF Exchange    Energy = -18.95970501343649
 Beta HF Exchange     Energy = -18.95970501343651
 DFT Correlation      Energy =  -5.19519666386286
 DFT Exchange         Energy = -150.92727949516146
 One-Electron (alpha) Energy = -4017.31546060827395
 One-Electron (beta)  Energy = -4017.31546060827532
 Total Coulomb        Energy = 2715.90464802939869
    4   -4921.6338084202      2.97e-03  
 Alpha HF Exchange    Energy = -18.91621207410341
 Beta HF Exchange     Energy = -18.91621207410341
 DFT Correlation      Energy =  -5.18000640546616
 DFT Exchange         Energy = -150.57549034200497
 One-Electron (alpha) Energy = -4012.51729001872218
 One-Electron (beta)  Energy = -4012.51729001872218
 Total Coulomb        Energy = 2705.76731319454711
    5   -4921.7208367857      6.91e-04  
 Alpha HF Exchange    Energy = -18.91278937320691
 Beta HF Exchange     Energy = -18.91278937320692
 DFT Correlation      Energy =  -5.18018783882000
 DFT Exchange         Energy = -150.55170311628461
 One-Electron (alpha) Energy = -4012.04273604318678
 One-Electron (beta)  Energy = -4012.04273604318632
 Total Coulomb        Energy = 2704.78196361494747
    6   -4921.7266272201      8.36e-05  
 Alpha HF Exchange    Energy = -18.91211740958252
 Beta HF Exchange     Energy = -18.91211740958253
 DFT Correlation      Energy =  -5.17975210267203
 DFT Exchange         Energy = -150.54578367891287
 One-Electron (alpha) Energy = -4011.95580304607438
 One-Electron (beta)  Energy = -4011.95580304607302
 Total Coulomb        Energy = 2704.60031868723809
    7   -4921.7267070528      1.87e-05  
 Alpha HF Exchange    Energy = -18.91223563488778
 Beta HF Exchange     Energy = -18.91223563488778
 DFT Correlation      Energy =  -5.17977981448680
 DFT Exchange         Energy = -150.54672699661111
 One-Electron (alpha) Energy = -4011.96647316176359
 One-Electron (beta)  Energy = -4011.96647316176450
 Total Coulomb        Energy = 2704.62286235450711
    8   -4921.7267110970      8.40e-06  
 Alpha HF Exchange    Energy = -18.91225337332947
 Beta HF Exchange     Energy = -18.91225337332944
 DFT Correlation      Energy =  -5.17979282198553
 DFT Exchange         Energy = -150.54687014609277
 One-Electron (alpha) Energy = -4011.97113720303196
 One-Electron (beta)  Energy = -4011.97113720303014
 Total Coulomb        Energy = 2704.63238128706735
    9   -4921.7267118809      1.45e-06  
 Alpha HF Exchange    Energy = -18.91225829593249
 Beta HF Exchange     Energy = -18.91225829593248
 DFT Correlation      Energy =  -5.17979594488762
 DFT Exchange         Energy = -150.54690885258856
 One-Electron (alpha) Energy = -4011.97206877041071
 One-Electron (beta)  Energy = -4011.97206877040981
 Total Coulomb        Energy = 2704.63429607046055
   10   -4921.7267119068      4.38e-07  Convergence criterion met
 ---------------------------------------
 SCF time:   CPU 50.57s  wall 4.00s 
<S^2> =          0.000000000
 Alpha HF Exchange    Energy = -18.91225829593249
 Beta HF Exchange     Energy = -18.91225829593248
 DFT Correlation      Energy =  -5.17979594488762
 DFT Exchange         Energy = -150.54690885258856
 One-Electron (alpha) Energy = -4011.97206877041071
 One-Electron (beta)  Energy = -4011.97206877040981
 Total Coulomb        Energy = 2704.63429607046055
 Nuclear repulsion Energy = 591.13435095285820
 SCF   energy in the final basis set =    -4921.7267119068
 Total energy in the final basis set =    -4921.7267119068
 
 --------------------------------------------------------------
 
                    Orbital Energies (a.u.)
 --------------------------------------------------------------
 
 Alpha MOs
 -- Occupied --
*******-453.893 -58.090 -58.088 -52.147 -52.146 -52.146 -52.145
-52.144 -52.142 -10.240 -10.224 -10.195  -7.823  -7.822  -5.769
 -5.768  -5.765  -5.764  -5.755  -5.754  -2.103  -2.102  -2.102
 -2.101  -2.094  -2.093  -2.091  -2.090  -2.089  -2.088  -0.826
 -0.745  -0.694  -0.648  -0.582  -0.470  -0.445  -0.440  -0.411
 -0.389  -0.360  -0.355  -0.327  -0.309  -0.234  -0.218
 -- Virtual --
 -0.007   0.020   0.047   0.061   0.091   0.115   0.135   0.151
  0.162   0.173   0.190   0.203   0.212   0.251   0.278   0.290
  0.310   0.314   0.330   0.363   0.434   0.463   0.478   0.507
  0.527   0.550   0.566   0.607   0.627   0.670   0.674   0.681
  0.705   0.748   0.766   0.807   0.843   0.847   0.873   0.885
  0.891   0.906   0.923   0.963   1.020   1.052   1.059   1.105
  1.352   1.377   1.416   1.514   1.597   1.605   1.689   1.749
  1.777   1.822   1.868   1.923   2.033   2.044   2.065   2.070
  2.083   2.085   2.101   2.121   2.122   2.187   2.242   2.290
  2.352   2.436   2.497   2.563   2.601   2.605   2.632   2.657
  2.719   2.733   2.824   2.863   2.885   3.180   3.245   3.311
  3.431   3.450   3.475   4.191   4.274   4.280   4.333   4.347
  4.362   4.379   4.384   4.399   4.450   4.487   4.538   4.622
  5.466   5.485  89.745  89.825
 
 Beta MOs
 -- Occupied --
*******-453.893 -58.090 -58.088 -52.147 -52.146 -52.146 -52.145
-52.144 -52.142 -10.240 -10.224 -10.195  -7.823  -7.822  -5.769
 -5.768  -5.765  -5.764  -5.755  -5.754  -2.103  -2.102  -2.102
 -2.101  -2.094  -2.093  -2.091  -2.090  -2.089  -2.088  -0.826
 -0.745  -0.694  -0.648  -0.582  -0.470  -0.445  -0.440  -0.411
 -0.389  -0.360  -0.355  -0.327  -0.309  -0.234  -0.218
 -- Virtual --
 -0.007   0.020   0.047   0.061   0.091   0.115   0.135   0.151
  0.162   0.173   0.190   0.203   0.212   0.251   0.278   0.290
  0.310   0.314   0.330   0.363   0.434   0.463   0.478   0.507
  0.527   0.550   0.566   0.607   0.627   0.670   0.674   0.681
  0.705   0.748   0.766   0.807   0.843   0.847   0.873   0.885
  0.891   0.906   0.923   0.963   1.020   1.052   1.059   1.105
  1.352   1.377   1.416   1.514   1.597   1.605   1.689   1.749
  1.777   1.822   1.868   1.923   2.033   2.044   2.065   2.070
  2.083   2.085   2.101   2.121   2.122   2.187   2.242   2.290
  2.352   2.436   2.497   2.563   2.601   2.605   2.632   2.657
  2.719   2.733   2.824   2.863   2.885   3.180   3.245   3.311
  3.431   3.450   3.475   4.191   4.274   4.280   4.333   4.347
  4.362   4.379   4.384   4.399   4.450   4.487   4.538   4.622
  5.466   5.485  89.745  89.825
 --------------------------------------------------------------
 
          Ground-State Mulliken Net Atomic Charges

     Atom                 Charge (a.u.)    Spin (a.u.)
  --------------------------------------------------------
      1 Se                   -0.063176      -0.000000
      2 C                    -0.237855      -0.000000
      3 C                    -0.171446       0.000000
      4 C                    -0.308634      -0.000000
      5 Se                   -0.069565      -0.000000
      6 H                     0.051099       0.000000
      7 H                     0.045606      -0.000000
      8 H                     0.131256      -0.000000
      9 H                     0.130364      -0.000000
     10 H                     0.140787      -0.000000
     11 H                     0.112382       0.000000
     12 H                     0.131665      -0.000000
     13 H                     0.107516       0.000000
  --------------------------------------------------------
  Sum of atomic charges =     0.000000
  Sum of spin   charges =    -0.000000

 -----------------------------------------------------------------
                    Cartesian Multipole Moments
 -----------------------------------------------------------------
    Charge (ESU x 10^10)
                 0.0000
    Dipole Moment (Debye)
         X      -0.0849      Y      -2.5645      Z       1.0281
       Tot       2.7642
    Quadrupole Moments (Debye-Ang)
        XX     -58.7803     XY      -0.2879     YY     -56.3143
        XZ       0.5345     YZ      -0.6666     ZZ     -55.6087
    Octopole Moments (Debye-Ang^2)
       XXX      37.8262    XXY      12.0080    XYY       5.6461
       YYY      36.2109    XXZ       8.2601    XYZ      -4.2762
       YYZ      -3.1422    XZZ       2.1258    YZZ      13.2937
       ZZZ      -4.8075
    Hexadecapole Moments (Debye-Ang^3)
      XXXX    -980.0479   XXXY     -26.8865   XXYY    -234.8156
      XYYY     -35.1778   YYYY    -460.5203   XXXZ      -9.9288
      XXYZ       0.6363   XYYZ      -7.8464   YYYZ       6.4386
      XXZZ    -181.6791   XYZZ     -11.7640   YYZZ     -97.2679
      XZZZ     -19.7414   YZZZ       2.9729   ZZZZ    -111.4483
 -----------------------------------------------------------------
 Calculating analytic gradient of the SCF energy
 Gradient of SCF Energy
            1           2           3           4           5           6
    1  -0.0200151   0.0232612  -0.0001523   0.0003525  -0.0010850   0.0001851
    2  -0.0230719   0.0216798   0.0016988  -0.0002527   0.0008231  -0.0005598
    3   0.0070851  -0.0066386   0.0006680  -0.0003364   0.0009260  -0.0013300
            7           8           9          10          11          12
    1  -0.0016680  -0.0009167   0.0005267   0.0000345  -0.0002430  -0.0002272
    2   0.0006477  -0.0001978   0.0002046  -0.0002712  -0.0000719  -0.0002692
    3   0.0002973  -0.0008981   0.0001078  -0.0001073   0.0001391   0.0000594
           13
    1  -0.0000528
    2  -0.0003596
    3   0.0000277
 Max gradient component =       2.326E-02
 RMS gradient           =       7.255E-03
 Gradient time:  CPU 20.62 s  wall 1.77 s
 Geometry Optimization Parameters
   NAtoms,    NIC,     NZ,  NCons,   NDum,   NFix, NCnnct, MaxDiis
       13      82       0       1       0       0       0       0

 Cartesian Hessian Update
 Hessian Updated using BFGS Update


** CONSTRAINED OPTIMIZATION IN DELOCALIZED INTERNAL COORDINATES **
   Searching for a Minimum

   Optimization Cycle:   4

                       Coordinates (Angstroms)
     ATOM                X               Y               Z
      1  Se        1.8943369084    0.1997426918    0.0269431195
      2  C         0.6070160371   -1.1201004286    0.4860958625
      3  C        -0.6960901215   -1.0153850229   -0.3187477199
      4  C        -1.6090604547   -2.2144035369   -0.0425605602
      5  Se       -1.6761470383    0.7129249996   -0.0579035572
      6  H        -1.8817124742    0.4910928373    1.3822033920
      7  H         2.9605990345   -0.4224939504    0.8325815162
      8  H         1.0251480360   -2.1099499380    0.2761701438
      9  H         0.3878852814   -1.0687152488    1.5567298320
     10  H        -0.4576406368   -0.9816213920   -1.3875872048
     11  H        -1.9048661935   -2.2535732512    1.0114567081
     12  H        -2.5196398323   -2.1639827713   -0.6437513937
     13  H        -1.0918285459   -3.1529349886   -0.2801301384
   Point Group: c1    Number of degrees of freedom:    33


   Energy is  -4921.726711907

              Constraints and their Current Values
                                        Value     Constraint
   Distance(Angs):        1   2             1.900001     1.900000
 Hessian Updated using BFGS Update

   Using Lagrange Multiplier Algorithm


 33 Hessian modes will be used to form the next step
  Hessian Eigenvalues:
    -0.917318    0.019650    0.045001    0.045019    0.045276    0.070316
     0.079238    0.081866    0.085001    0.085013    0.085853    0.093056
     0.124796    0.144170    0.144797    0.154065    0.159645    0.160189
     0.165160    0.169845    0.183184    0.196569    0.211401    0.230134
     0.294186    0.296681    0.347922    0.348117    0.348142    0.348201
     0.348287    0.348745    1.090485

 Minimum Search - Taking P-RFO Step
 Searching for Lamda that Maximizes Along the Constraint modes Only
 Value Taken    Lamda =   0.00000047
 Searching for Lamda that Minimizes Along All other modes
 Value Taken    Lamda =  -0.00031953
 Step Taken.  Stepsize is  0.106798

                             Maximum     Tolerance    Cnvgd?
         Gradient            0.002113       0.000300      NO
         Displacement        0.048823       0.001200      NO
         Energy change     -0.000436       0.000001      NO


 New Cartesian Coordinates Obtained by Inverse Iteration

 Displacement from previous Coordinates is:  0.135708
 ----------------------------------------------------------------
             Standard Nuclear Orientation (Angstroms)
    I     Atom           X                Y                Z
 ----------------------------------------------------------------
    1      Se      1.8754150811     0.2188669798     0.0488337842
    2      C       0.6029872661    -1.1200652989     0.4940166879
    3      C      -0.6961921014    -1.0257031491    -0.3122787666
    4      C      -1.6113820736    -2.2213962755    -0.0458119849
    5      Se     -1.6663211406     0.7110798990    -0.0641958454
    6      H      -1.8720734905     0.5223185528     1.3832374569
    7      H       2.9730004402    -0.4277178301     0.7979798253
    8      H       1.0378312098    -2.1038367015     0.2871599958
    9      H       0.3772390206    -1.0807197110     1.5641436611
   10      H      -0.4572873565    -0.9812296013    -1.3808575801
   11      H      -1.9124091902    -2.2667168233     1.0065015330
   12      H      -2.5182714727    -2.1648604240    -0.6516140986
   13      H      -1.0945361924    -3.1594196169    -0.2856146687
 ----------------------------------------------------------------
 Nuclear Repulsion Energy =   592.6124068823 hartrees
 There are       47 alpha and       47 beta electrons

                       Distance Matrix (Angstroms)
             Se(  1)   C (  2)   C (  3)   C (  4)   Se(  5)   H (  6)
   C (  2)  1.900000
   C (  3)  2.879674  1.531954
   C (  4)  4.256947  2.531359  1.529137
   Se(  5)  3.577561  2.968915  2.004772  2.933048
   H (  6)  3.989535  3.100655  2.579505  3.104531  1.474119
   H (  7)  1.477831  2.487710  3.879850  4.994580  4.854226  4.971905
   H (  8)  2.480584  1.095301  2.128036  2.672643  3.919138  4.070089
   H (  9)  2.495921  1.094387  2.162462  2.801377  3.168308  2.768007
   H ( 10)  2.987599  2.158382  1.095862  2.156918  2.461559  3.450000
   H ( 11)  4.630644  2.811524  2.181394  1.095461  3.173992  2.814654
   H ( 12)  5.047501  3.485158  2.175500  1.092081  3.056454  3.432073
[...]
 There are       47 alpha and       47 beta electrons

                       Distance Matrix (Angstroms)
             Se(  1)   C (  2)   C (  3)   C (  4)   Se(  5)   H (  6)
   C (  2)  1.900000
   C (  3)  2.869681  1.531707
   C (  4)  4.257564  2.536750  1.528861
   Se(  5)  3.480566  2.944948  2.005326  2.932775
   H (  6)  3.846455  3.051947  2.575389  3.108079  1.475028
   H (  7)  1.479762  2.497797  3.832447  4.976376  4.837079  5.016469
   H (  8)  2.475989  1.094912  2.141508  2.731251  3.909943  4.052443
   H (  9)  2.498228  1.094549  2.159548  2.772671  3.164106  2.732073
   H ( 10)  3.001795  2.156543  1.094769  2.163381  2.471067  3.451657
   H ( 11)  4.604774  2.808587  2.180089  1.094874  3.167351  2.813346
   H ( 12)  5.042206  3.488836  2.174672  1.092244  3.060345  3.449001
   H ( 13)  4.547106  2.780202  2.169004  1.097408  3.918173  4.114744
             H (  7)   H (  8)   H (  9)   H ( 10)   H ( 11)   H ( 12)
   H (  8)  2.501311
   H (  9)  2.946107  1.763886
   H ( 10)  3.960342  2.495404  3.060043
   H ( 11)  5.267856  3.102446  2.597631  3.080653
   H ( 12)  5.897324  3.731878  3.778020  2.496461  1.769098
   H ( 13)  4.978617  2.520199  3.117455  2.522146  1.771837  1.774642

 
 Applying Cartesian multipole field
    Component          Value
    ---------          -----
     (2,0,0)        1.00000E-11
     (0,2,0)        2.00000E-11
     (0,0,2)       -3.00000E-10
 Nucleus-field energy     =     0.0000000024 hartrees
 Requested basis set is 6-31G(d,p)
 There are 52 shells and 155 basis functions
 A cutoff of  1.0D-14 yielded   1252 shell pairs
 There are     11160 function pairs
 Smallest overlap matrix eigenvalue = 6.73E-04
 Guess from superposition of atomic densities
 Warning:  Energy on first SCF cycle will be non-variational
 SAD guess density has 93.936381 electrons

 -----------------------------------------------------------------------
  General SCF calculation program by
  Eric Jon Sundstrom, Paul Horn, Yuezhi Mao, Dmitri Zuev, Alec White,
  David Stuck, Shaama M.S., Shane Yost, Joonho Lee, David Small,
  Daniel Levine, Susi Lehtola, Hugh Burton, Evgeny Epifanovsky
 -----------------------------------------------------------------------
 Exchange:     0.2000 Hartree-Fock + 0.0800 Slater + 0.7200 B88
 Correlation:  0.1900 VWN1RPA + 0.8100 LYP
 Using SG-1 standard quadrature grid
 using 12 threads for integral computing
 -------------------------------------------------------
 OpenMP Integral computing Module                
 Release: version 1.0, May 2013, Q-Chem Inc. Pittsburgh 
 -------------------------------------------------------
 -------------------------------------------------------
 OpenMP BLAS3 based DFT computing Module                
 Release: version 1.0, May 2013, Q-Chem Inc. Pittsburgh 
 -------------------------------------------------------
 A unrestricted SCF calculation will be
 performed using DIIS
 SCF converges when DIIS error is below 1.0e-06
 Alpha HF Exchange    Energy = -18.88592387595736
 Beta HF Exchange     Energy = -18.88592387595736
 DFT Correlation      Energy =  -5.14767125840756
 DFT Exchange         Energy = -149.93117476283811
 One-Electron (alpha) Energy = -4015.41556702664229
 One-Electron (beta)  Energy = -4015.41556702664229
 Total Coulomb        Energy = 2697.73284041269653
 ---------------------------------------
  Cycle       Energy         DIIS error
 ---------------------------------------
    1   -4928.0468587803      1.51e-01  
 Alpha HF Exchange    Energy = -18.97937909843941
 Beta HF Exchange     Energy = -18.97937909843941
 DFT Correlation      Energy =  -5.20183408146963
 DFT Exchange         Energy = -151.09307295451492
 One-Electron (alpha) Energy = -4026.58967484751565
 One-Electron (beta)  Energy = -4026.58967484751520
 Total Coulomb        Energy = 2727.94552148119965
    2   -4921.5853648133      9.35e-03  
 Alpha HF Exchange    Energy = -18.84208304484029
 Beta HF Exchange     Energy = -18.84208304484029
 DFT Correlation      Energy =  -5.15752028855460
 DFT Exchange         Energy = -149.98806554089811
 One-Electron (alpha) Energy = -4010.17870663342865
 One-Electron (beta)  Energy = -4010.17870663342865
 Total Coulomb        Energy = 2693.70735919949084
    3   -4921.5776773531      3.88e-03  
 Alpha HF Exchange    Energy = -18.96008129179468
 Beta HF Exchange     Energy = -18.96008129179468
 DFT Correlation      Energy =  -5.19577703430313
 DFT Exchange         Energy = -150.93064458435674
 One-Electron (alpha) Energy = -4024.21175476916324
 One-Electron (beta)  Energy = -4024.21175476916278
 Total Coulomb        Energy = 2722.93436969135428
    4   -4921.6335954158      2.99e-03  
 Alpha HF Exchange    Energy = -18.91614895195098
 Beta HF Exchange     Energy = -18.91614895195098
 DFT Correlation      Energy =  -5.18038597966492
 DFT Exchange         Energy = -150.57541237525012
 One-Electron (alpha) Energy = -4019.27228422543340
 One-Electron (beta)  Energy = -4019.27228422543567
 Total Coulomb        Energy = 2712.50823061584833
    5   -4921.7223054604      6.83e-04  
 Alpha HF Exchange    Energy = -18.91277406033852
 Beta HF Exchange     Energy = -18.91277406033852
 DFT Correlation      Energy =  -5.18057097106001
 DFT Exchange         Energy = -150.55203928841806
 One-Electron (alpha) Energy = -4018.80040874538872
 One-Electron (beta)  Energy = -4018.80040874538918
 Total Coulomb        Energy = 2711.52886972576562
    6   -4921.7279775117      8.63e-05  
 Alpha HF Exchange    Energy = -18.91214004541968
 Beta HF Exchange     Energy = -18.91214004541967
 DFT Correlation      Energy =  -5.18014201184360
 DFT Exchange         Energy = -150.54639068733974
 One-Electron (alpha) Energy = -4018.72418562232542
 One-Electron (beta)  Energy = -4018.72418562232542
 Total Coulomb        Energy = 2711.36899348046745
    7   -4921.7280619208      1.94e-05  
 Alpha HF Exchange    Energy = -18.91224721286409
 Beta HF Exchange     Energy = -18.91224721286408
 DFT Correlation      Energy =  -5.18016911180050
 DFT Exchange         Energy = -150.54725446123183
 One-Electron (alpha) Energy = -4018.73032078945926
 One-Electron (beta)  Energy = -4018.73032078945744
 Total Coulomb        Energy = 2711.38236482207003
    8   -4921.7280661222      8.84e-06  
 Alpha HF Exchange    Energy = -18.91227060306697
 Beta HF Exchange     Energy = -18.91227060306695
 DFT Correlation      Energy =  -5.18018234714253
 DFT Exchange         Energy = -150.54743867697198
 One-Electron (alpha) Energy = -4018.73653689302910
 One-Electron (beta)  Energy = -4018.73653689302728
 Total Coulomb        Energy = 2711.39504037628831
    9   -4921.7280670066      1.44e-06  
 Alpha HF Exchange    Energy = -18.91227566079631
 Beta HF Exchange     Energy = -18.91227566079631
 DFT Correlation      Energy =  -5.18018582242403
 DFT Exchange         Energy = -150.54747867848349
 One-Electron (alpha) Energy = -4018.73761026559350
 One-Electron (beta)  Energy = -4018.73761026559305
 Total Coulomb        Energy = 2711.39724068776059
   10   -4921.7280670325      4.24e-07  Convergence criterion met
 ---------------------------------------
 SCF time:   CPU 51.62s  wall 5.00s 
<S^2> =         -0.000000000
 Alpha HF Exchange    Energy = -18.91227566079631
 Beta HF Exchange     Energy = -18.91227566079631
 DFT Correlation      Energy =  -5.18018582242403
 DFT Exchange         Energy = -150.54747867848349
 One-Electron (alpha) Energy = -4018.73761026559350
 One-Electron (beta)  Energy = -4018.73761026559305
 Total Coulomb        Energy = 2711.39724068776059
 Nuclear repulsion Energy = 597.90212863343402
 SCF   energy in the final basis set =    -4921.7280670325
 Total energy in the final basis set =    -4921.7280670325
 
 --------------------------------------------------------------
 
                    Orbital Energies (a.u.)
 --------------------------------------------------------------
 
 Alpha MOs
 -- Occupied --
*******-453.892 -58.091 -58.087 -52.149 -52.148 -52.145 -52.145
-52.144 -52.141 -10.239 -10.224 -10.195  -7.824  -7.821  -5.770
 -5.767  -5.766  -5.763  -5.757  -5.753  -2.104  -2.103  -2.101
 -2.100  -2.095  -2.092  -2.092  -2.091  -2.089  -2.087  -0.827
 -0.744  -0.695  -0.647  -0.581  -0.472  -0.445  -0.439  -0.411
 -0.388  -0.360  -0.356  -0.328  -0.306  -0.233  -0.221
 -- Virtual --
 -0.007   0.023   0.045   0.059   0.094   0.117   0.132   0.153
  0.165   0.171   0.192   0.206   0.222   0.243   0.279   0.292
  0.311   0.317   0.331   0.372   0.432   0.461   0.476   0.509
  0.525   0.552   0.564   0.598   0.635   0.665   0.680   0.687
  0.700   0.748   0.763   0.811   0.841   0.849   0.871   0.884
  0.892   0.905   0.923   0.959   1.014   1.046   1.070   1.122
  1.364   1.378   1.406   1.517   1.589   1.615   1.683   1.749
  1.777   1.827   1.869   1.924   2.032   2.043   2.062   2.077
  2.082   2.090   2.101   2.111   2.131   2.184   2.243   2.288
  2.353   2.437   2.494   2.565   2.599   2.611   2.626   2.656
  2.716   2.738   2.825   2.863   2.888   3.181   3.240   3.313
  3.430   3.452   3.476   4.193   4.274   4.280   4.345   4.347
  4.359   4.375   4.391   4.401   4.449   4.489   4.542   4.623
  5.466   5.488  89.735  89.846
 
 Beta MOs
 -- Occupied --
*******-453.892 -58.091 -58.087 -52.149 -52.148 -52.145 -52.145
-52.144 -52.141 -10.239 -10.224 -10.195  -7.824  -7.821  -5.770
 -5.767  -5.766  -5.763  -5.757  -5.753  -2.104  -2.103  -2.101
 -2.100  -2.095  -2.092  -2.092  -2.091  -2.089  -2.087  -0.827
 -0.744  -0.695  -0.647  -0.581  -0.472  -0.445  -0.439  -0.411
 -0.388  -0.360  -0.356  -0.328  -0.306  -0.233  -0.221
 -- Virtual --
 -0.007   0.023   0.045   0.059   0.094   0.117   0.132   0.153
  0.165   0.171   0.192   0.206   0.222   0.243   0.279   0.292
  0.311   0.317   0.331   0.372   0.432   0.461   0.476   0.509
  0.525   0.552   0.564   0.598   0.635   0.665   0.680   0.687
  0.700   0.748   0.763   0.811   0.841   0.849   0.871   0.884
  0.892   0.905   0.923   0.959   1.014   1.046   1.070   1.122
  1.364   1.378   1.406   1.517   1.589   1.615   1.683   1.749
  1.777   1.827   1.869   1.924   2.032   2.043   2.062   2.077
  2.082   2.090   2.101   2.111   2.131   2.184   2.243   2.288
  2.353   2.437   2.494   2.565   2.599   2.611   2.626   2.656
  2.716   2.738   2.825   2.863   2.888   3.181   3.240   3.313
  3.430   3.452   3.476   4.193   4.274   4.280   4.345   4.347
  4.359   4.375   4.391   4.401   4.449   4.489   4.542   4.623
  5.466   5.488  89.735  89.846
 --------------------------------------------------------------
 
          Ground-State Mulliken Net Atomic Charges

     Atom                 Charge (a.u.)    Spin (a.u.)
  --------------------------------------------------------
      1 Se                   -0.057076       0.000000
      2 C                    -0.243733       0.000000
      3 C                    -0.164595      -0.000000
      4 C                    -0.307972       0.000000
      5 Se                   -0.072582       0.000000
      6 H                     0.052491      -0.000000
      7 H                     0.038315       0.000000
      8 H                     0.130256      -0.000000
      9 H                     0.130184      -0.000000
     10 H                     0.143080      -0.000000
     11 H                     0.112898      -0.000000
     12 H                     0.131370      -0.000000
     13 H                     0.107364      -0.000000
  --------------------------------------------------------
  Sum of atomic charges =    -0.000000
  Sum of spin   charges =     0.000000

 -----------------------------------------------------------------
                    Cartesian Multipole Moments
 -----------------------------------------------------------------
    Charge (ESU x 10^10)
                -0.0000
    Dipole Moment (Debye)
         X      -0.0889      Y      -2.7044      Z       0.7524
       Tot       2.8085
    Quadrupole Moments (Debye-Ang)
        XX     -58.1515     XY      -0.9209     YY     -55.8399
        XZ      -0.6355     YZ      -0.3495     ZZ     -56.4898
    Octopole Moments (Debye-Ang^2)
       XXX      42.2311    XXY       8.7067    XYY       7.3406
       YYY      32.1956    XXZ       2.0844    XYZ      -3.7480
       YYZ      -5.5740    XZZ       1.5765    YZZ      10.9650
       ZZZ     -13.8491
    Hexadecapole Moments (Debye-Ang^3)
      XXXX    -925.2444   XXXY     -42.6318   XXYY    -226.4070
      XYYY     -46.3071   YYYY    -466.9547   XXXZ     -35.5387
      XXYZ       1.7617   XYYZ     -13.6219   YYYZ       5.4945
      XXZZ    -178.0019   XYZZ     -16.5273   YYZZ     -99.7537
      XZZZ     -39.5731   YZZZ       1.9918   ZZZZ    -118.1268
 -----------------------------------------------------------------
 Calculating analytic gradient of the SCF energy
 Gradient of SCF Energy
            1           2           3           4           5           6
    1  -0.0203655   0.0204611  -0.0000366  -0.0000179  -0.0000209   0.0001069
    2  -0.0237367   0.0236030   0.0000285   0.0000186   0.0000144   0.0000264
    3   0.0060097  -0.0059864  -0.0000224  -0.0000479   0.0000835   0.0000761
            7           8           9          10          11          12
    1  -0.0000035  -0.0000394   0.0000206   0.0000201  -0.0000346  -0.0000374
    2  -0.0000958  -0.0000550  -0.0000274   0.0000872   0.0000249   0.0000794
    3  -0.0000211  -0.0000212  -0.0000057   0.0000175  -0.0000198  -0.0000143
           13
    1  -0.0000529
    2   0.0000325
    3  -0.0000481
 Max gradient component =       2.374E-02
 RMS gradient           =       7.207E-03
 Gradient time:  CPU 20.76 s  wall 1.82 s
 Geometry Optimization Parameters
   NAtoms,    NIC,     NZ,  NCons,   NDum,   NFix, NCnnct, MaxDiis
       13      82       0       1       0       0       0       0

 Cartesian Hessian Update
 Hessian Updated using BFGS Update


** CONSTRAINED OPTIMIZATION IN DELOCALIZED INTERNAL COORDINATES **
   Searching for a Minimum

   Optimization Cycle:  15

                       Coordinates (Angstroms)
     ATOM                X               Y               Z
      1  Se        1.8048693659    0.2981934868    0.1858357809
      2  C         0.5855890325   -1.1144358608    0.5433743170
      3  C        -0.6849305631   -1.0401611377   -0.3089097268
      4  C        -1.6168345407   -2.2242961944   -0.0504598974
      5  Se       -1.6409299511    0.7081896223   -0.0838159407
      6  H        -1.8485778270    0.5325692567    1.3659247945
      7  H         3.0011167277   -0.4795953996    0.5779227386
      8  H         1.0832381006   -2.0659492001    0.3293656518
      9  H         0.3145078513   -1.1193064516    1.6038127273
     10  H        -0.4080554808   -1.0059444510   -1.3675359787
     11  H        -1.9411113841   -2.2546614291    0.9948496238
     12  H        -2.5086114986   -2.1657133695   -0.6783929494
     13  H        -1.1022698324   -3.1682888719   -0.2704711410
   Point Group: c1    Number of degrees of freedom:    33


   Energy is  -4921.728067032

              Constraints and their Current Values
                                        Value     Constraint
   Distance(Angs):        1   2             1.900000     1.900000
 Hessian Updated using BFGS Update

 32 Hessian modes will be used to form the next step
  Hessian Eigenvalues:
     0.009114    0.011543    0.044359    0.045075    0.058909    0.079053
     0.081753    0.084953    0.084995    0.086093    0.092691    0.123756
     0.143567    0.151242    0.158809    0.159304    0.160583    0.166853
     0.167178    0.177117    0.193091    0.207131    0.225186    0.230158
     0.297034    0.311912    0.347774    0.348090    0.348140    0.348212
     0.348413    0.349064

 Minimum Search - Taking Simple RFO Step
 Searching for Lamda that Minimizes Along All modes
 Value Taken    Lamda =  -0.00000117
 Step Taken.  Stepsize is  0.010666

                             Maximum     Tolerance    Cnvgd?
         Gradient           0.000063      0.000300     YES
         Displacement       0.005260      0.001200      NO
         Energy change     -0.000001      0.000001     YES


                       Distance Matrix (Angstroms)
             Se(  1)   C (  2)   C (  3)   C (  4)   Se(  5)   H (  6)
   C (  2)  1.900000
   C (  3)  2.869681  1.531707
   C (  4)  4.257564  2.536750  1.528861
   Se(  5)  3.480566  2.944948  2.005326  2.932775
   H (  6)  3.846455  3.051947  2.575389  3.108079  1.475028
   H (  7)  1.479762  2.497797  3.832447  4.976376  4.837079  5.016469
   H (  8)  2.475989  1.094912  2.141508  2.731251  3.909943  4.052443
   H (  9)  2.498228  1.094549  2.159548  2.772671  3.164106  2.732073
   H ( 10)  3.001795  2.156543  1.094769  2.163381  2.471067  3.451657
   H ( 11)  4.604774  2.808587  2.180089  1.094874  3.167351  2.813346
   H ( 12)  5.042206  3.488836  2.174672  1.092244  3.060345  3.449001
   H ( 13)  4.547106  2.780202  2.169004  1.097408  3.918173  4.114744
             H (  7)   H (  8)   H (  9)   H ( 10)   H ( 11)   H ( 12)
   H (  8)  2.501311
   H (  9)  2.946107  1.763886
   H ( 10)  3.960342  2.495404  3.060043
   H ( 11)  5.267856  3.102446  2.597631  3.080653
   H ( 12)  5.897324  3.731878  3.778020  2.496461  1.769098
   H ( 13)  4.978617  2.520199  3.117455  2.522146  1.771837  1.774642

 
 Final energy is   -4921.72806703249     


 ******************************
 **  OPTIMIZATION CONVERGED  **
 ******************************

                       Coordinates (Angstroms)
     ATOM                X               Y               Z
      1  Se        1.8048693659    0.2981934868    0.1858357809
      2  C         0.5855890325   -1.1144358608    0.5433743170
      3  C        -0.6849305631   -1.0401611377   -0.3089097268
      4  C        -1.6168345407   -2.2242961944   -0.0504598974
      5  Se       -1.6409299511    0.7081896223   -0.0838159407
      6  H        -1.8485778270    0.5325692567    1.3659247945
      7  H         3.0011167277   -0.4795953996    0.5779227386
      8  H         1.0832381006   -2.0659492001    0.3293656518
      9  H         0.3145078513   -1.1193064516    1.6038127273
     10  H        -0.4080554808   -1.0059444510   -1.3675359787
     11  H        -1.9411113841   -2.2546614291    0.9948496238
     12  H        -2.5086114986   -2.1657133695   -0.6783929494
     13  H        -1.1022698324   -3.1682888719   -0.2704711410

Z-matrix Print:
$molecule
0 1
Se
H  1 1.475028
C  1 2.005326 2 94.222544
H  3 1.094769 1 101.645815 2 -176.438361 0
C  3 1.528861 1 111.451096 2 66.433965 0
H  5 1.092244 3 111.035144 1 54.640070 0
H  5 1.094874 3 111.309600 1 -65.681063 0
H  5 1.097408 3 110.276145 1 174.665688 0
C  3 1.531707 1 112.040236 2 -59.905500 0
H  9 1.094549 3 109.503838 1 66.512411 0
H  9 1.094912 3 108.082740 1 -176.853611 0
Se 9 1.900000 3 113.050276 1 -56.714641 0
H  12 1.479762 9 94.480699 3 -152.390808 0
$end

PES scan, value:    1.9000 energy: -4921.7280670325
------- Summary of potential scan: ------ 
    1.9000     -4921.7280670325
----------------------------------------- 
Archival summary:
1\1\hpc0248\JobtypUnspecified\ProcedureUnspecified\6-31G**\e238\knomura\ThuMar1407:16:502019ThuMar1407:16:502019\0\\#,JobtypUnspecified,ProcedureUnspecified,6-31G**,\\0,1\Se\H,1,1.47503\C,1,2.00533,2,94.2225\H,3,1.09477,1,101.646,2,-176.438,0\C,3,1.52886,1,111.451,2,66.434,0\H,5,1.09224,3,111.035,1,54.6401,0\H,5,1.09487,3,111.31,1,-65.6811,0\H,5,1.09741,3,110.276,1,174.666,0\C,3,1.53171,1,112.04,2,-59.9055,0\H,9,1.09455,3,109.504,1,66.5124,0\H,9,1.09491,3,108.083,1,-176.854,0\Se,9,1.9,3,113.05,1,-56.7146,0\H,12,1.47976,9,94.4807,3,-152.391,0\\\@

 Total job time:  101.55s(wall), 1163.62s(cpu) 
 Thu Mar 14 07:16:50 2019

        *************************************************************
        *                                                           *
        *  Thank you very much for using Q-Chem.  Have a nice day.  *
        *                                                           *
        *************************************************************


