
Running Job 1 of 1 selenium/03/C-Se.xyz.data/inputs/bond_singlet_1.5.in
qchem selenium/03/C-Se.xyz.data/inputs/bond_singlet_1.5.in_8022.0 /staging/scratch/2868765/qchem8022/ 1
/usr/usc/qchem/5.1.1/exe/qcprog.exe_s selenium/03/C-Se.xyz.data/inputs/bond_singlet_1.5.in_8022.0 /staging/scratch/2868765/qchem8022/
Check license passed

                  Welcome to Q-Chem
     A Quantum Leap Into The Future Of Chemistry


 Q-Chem 5.1, Q-Chem, Inc., Pleasanton, CA (2018)

 Yihan Shao,  Zhengting Gan,  E. Epifanovsky,  A. T. B. Gilbert,  M. Wormit,  
 J. Kussmann,  A. W. Lange,  A. Behn,  Jia Deng,  Xintian Feng,  D. Ghosh,  
 M. Goldey,  P. R. Horn,  L. D. Jacobson,  I. Kaliman,  T. Kus,  A. Landau,  
 Jie Liu,  E. I. Proynov,  R. M. Richard,  R. P. Steele,  E. J. Sundstrom,  
 H. L. Woodcock III,  P. M. Zimmerman,  D. Zuev,  B. Albrecht,  E. Alguire,  
 S. A. Baeppler,  D. Barton,  Z. Benda,  Y. A. Bernard,  E. J. Berquist,  
 K. B. Bravaya,  H. Burton,  D. Casanova,  Chun-Min Chang,  Yunqing Chen,  
 A. Chien,  K. D. Closser,  M. P. Coons,  S. Coriani,  S. Dasgupta,  
 A. L. Dempwolff,  M. Diedenhofen,  Hainam Do,  R. G. Edgar,  Po-Tung Fang,  
 S. Faraji,  S. Fatehi,  Qingguo Feng,  K. D. Fenk,  J. Fosso-Tande,  
 Qinghui Ge,  A. Ghysels,  G. Gidofalvi,  J. Gomes,  J. Gonthier,  A. Gunina,  
 D. Hait,  M. W. D. Hanson-Heine,  P. H. P. Harbach,  A. W. Hauser,  
 J. E. Herr,  E. G. Hohenstein,  Z. C. Holden,  Kerwin Hui,  B. C. Huynh,  
 T.-C. Jagau,  Hyunjun Ji,  B. Kaduk,  K. Khistyaev,  Jaehoon Kim,  
 P. Klunzinger,  K. Koh,  D. Kosenkov,  L. Koulias,  T. Kowalczyk,  
 C. M. Krauter,  A. Kunitsa,  Ka Un Lao,  A. Laurent,  K. V. Lawler,  
 Joonho Lee,  D. Lefrancois,  S. Lehtola,  D. S. Levine,  Yi-Pei Li,  
 You-Sheng Lin,  Fenglai Liu,  E. Livshits,  A. Luenser,  P. Manohar,  
 E. Mansoor,  S. F. Manzer,  Shan-Ping Mao,  Yuezhi Mao,  N. Mardirossian,  
 A. V. Marenich,  T. Markovich,  L. A. Martinez-Martinez,  S. A. Maurer,  
 N. J. Mayhall,  S. C. McKenzie,  J.-M. Mewes,  A. F. Morrison,  
 J. W. Mullinax,  K. Nanda,  T. S. Nguyen-Beck,  R. Olivares-Amaya,  
 J. A. Parkhill,  T. M. Perrine,  F. Plasser,  P. Pokhilko,  S. Prager,  
 A. Prociuk,  E. Ramos,  D. R. Rehn,  F. Rob,  M. Schneider,  N. Sergueev,  
 S. M. Sharada,  S. Sharma,  D. W. Small,  T. Stauch,  T. Stein,  
 Yu-Chuan Su,  A. J. W. Thom,  A. Tkatchenko,  T. Tsuchimochi,  N. M. Tubman,  
 L. Vogt,  M. L. Vidal,  O. Vydrov,  M. A. Watson,  J. Wenzel,  
 M. de Wergifosse,  T. A. Wesolowski,  A. White,  J. Witte,  A. Yamada,  
 Jun Yang,  K. Yao,  S. Yeganeh,  S. R. Yost,  Zhi-Qiang You,  A. Zech,  
 Igor Ying Zhang,  Xing Zhang,  Yan Zhao,  Ying Zhu,  B. R. Brooks,  
 G. K. L. Chan,  C. J. Cramer,  M. S. Gordon,  W. J. Hehre,  A. Klamt,  
 M. W. Schmidt,  C. D. Sherrill,  D. G. Truhlar,  A. Aspuru-Guzik,  R. Baer,  
 A. T. Bell,  N. A. Besley,  Jeng-Da Chai,  A. E. DePrince, III,  
 R. A. DiStasio Jr.,  A. Dreuw,  B. D. Dunietz,  T. R. Furlani,  
 Chao-Ping Hsu,  Yousung Jung,  Jing Kong,  D. S. Lambrecht,  WanZhen Liang,  
 C. Ochsenfeld,  V. A. Rassolov,  L. V. Slipchenko,  J. E. Subotnik,  
 T. Van Voorhis,  J. M. Herbert,  A. I. Krylov,  P. M. W. Gill,  M. Head-Gordon

 Contributors to earlier versions of Q-Chem not listed above: 
 R. D. Adamson,  B. Austin,  J. Baker,  G. J. O. Beran,  K. Brandhorst,  
 S. T. Brown,  E. F. C. Byrd,  A. K. Chakraborty,  C.-L. Cheng,  
 Siu Hung Chien,  D. M. Chipman,  D. L. Crittenden,  H. Dachsel,  
 R. J. Doerksen,  A. D. Dutoi,  L. Fusti-Molnar,  W. A. Goddard III,  
 A. Golubeva-Zadorozhnaya,  S. R. Gwaltney,  G. Hawkins,  A. Heyden,  
 S. Hirata,  G. Kedziora,  F. J. Keil,  C. Kelley,  Jihan Kim,  R. A. King,  
 R. Z. Khaliullin,  P. P. Korambath,  W. Kurlancheek,  A. M. Lee,  M. S. Lee,  
 S. V. Levchenko,  Ching Yeh Lin,  D. Liotard,  R. C. Lochan,  I. Lotan,  
 P. E. Maslen,  N. Nair,  D. P. O'Neill,  D. Neuhauser,  E. Neuscamman,  
 C. M. Oana,  R. Olson,  B. Peters,  R. Peverati,  P. A. Pieniazek,  
 Y. M. Rhee,  J. Ritchie,  M. A. Rohrdanz,  E. Rosta,  N. J. Russ,  
 H. F. Schaefer III,  N. E. Schultz,  N. Shenvi,  A. C. Simmonett,  A. Sodt,  
 D. Stuck,  K. S. Thanthiriwatte,  V. Vanovschi,  Tao Wang,  A. Warshel,  
 C. F. Williams,  Q. Wu,  X. Xu,  W. Zhang

 Please cite Q-Chem as follows:
 Y. Shao et al., Mol. Phys. 113, 184-215 (2015)
 DOI: 10.1080/00268976.2014.952696

 Q-Chem 5.1.1 for Intel X86 EM64T Linux

 Parts of Q-Chem use Armadillo 8.300.2 (Tropical Shenanigans).
 http://arma.sourceforge.net/

 Q-Chem begins on Thu Mar 14 05:45:13 2019  

Host: 
0

     Scratch files written to /staging/scratch/2868765/qchem8022//
 Aug318 |scratch|qcdevops|jenkins|workspace|build_RNUM 6013   
Processing $rem in /usr/usc/qchem/5.1.1/config/preferences.
 MEM_TOTAL  2000 
Input Ideriv = 2
Curr. Ideriv = -1
Max.  Ideriv = 2

Checking the input file for inconsistencies... 	...done.

--------------------------------------------------------------
User input:
--------------------------------------------------------------

$comment
potential surface scanner
$end

$rem
JOBTYPE  PES_SCAN
UNRESTRICTED TRUE
SYM_IGNORE  TRUE
GEOM_OPT_MAX_CYCLES 400
SCF_MAX_CYCLES 400
METHOD   B3LYP
BASIS   6-31G**
PDB_PRINT 2
SCF_CONVERGENCE 6
THRESH 14
SCF_PRINT 1
$end
$molecule
0 1
Se 1.870900 0.175900 -0.051900
C 0.575300 -1.200000 0.467400
C -0.687000 -1.059800 -0.385600
C -1.647200 -2.208000 -0.068200
Se -1.558500 0.649900 0.013200
H -1.851500 0.486400 1.536700
H 3.049900 -0.144000 0.918300
H 1.011300 -2.186800 0.311700
H 0.318200 -1.078300 1.519600
H -0.417700 -1.092800 -1.441300
H -1.916600 -2.175000 0.987500
H -2.546500 -2.108100 -0.675900
H -1.162600 -3.158800 -0.290000
$end
$scan
stre 1 2 1.500000 1.501000 0.100000
$end
--------------------------------------------------------------
 ----------------------------------------------------------------
             Standard Nuclear Orientation (Angstroms)
    I     Atom           X                Y                Z
 ----------------------------------------------------------------
    1      Se      1.8709000000     0.1759000000    -0.0519000000
    2      C       0.5753000000    -1.2000000000     0.4674000000
    3      C      -0.6870000000    -1.0598000000    -0.3856000000
    4      C      -1.6472000000    -2.2080000000    -0.0682000000
    5      Se     -1.5585000000     0.6499000000     0.0132000000
    6      H      -1.8515000000     0.4864000000     1.5367000000
    7      H       3.0499000000    -0.1440000000     0.9183000000
    8      H       1.0113000000    -2.1868000000     0.3117000000
    9      H       0.3182000000    -1.0783000000     1.5196000000
   10      H      -0.4177000000    -1.0928000000    -1.4413000000
   11      H      -1.9166000000    -2.1750000000     0.9875000000
   12      H      -2.5465000000    -2.1081000000    -0.6759000000
   13      H      -1.1626000000    -3.1588000000    -0.2900000000
 ----------------------------------------------------------------
 Nuclear Repulsion Energy =   599.6345195519 hartrees
 There are       47 alpha and       47 beta electrons
 Requested basis set is 6-31G(d,p)
 There are 52 shells and 155 basis functions

 Total QAlloc Memory Limit   2000 MB
 Mega-Array Size       188 MB
 MEM_STATIC part       192 MB
A total of 1 constraints
  
            1
    1   1.0100000
    2   1.0100000
    3   2.0100000
    4   1.5000000
    5   1.5010000
    6   0.1000000
    7   0.0000000
    8   0.0000000
    9   0.0000000
   10   0.0000000

                       Distance Matrix (Angstroms)
             Se(  1)   C (  2)   C (  3)   C (  4)   Se(  5)   H (  6)
   C (  2)  1.959937
   C (  3)  2.860273  1.529924
   C (  4)  4.249738  2.498487  1.530062
   Se(  5)  3.462614  2.860337  1.960007  2.860435
   H (  6)  4.059104  3.142723  2.728009  3.142807  1.560011
   H (  7)  1.560021  2.728020  4.062421  5.224560  4.763070  4.980316
   H (  8)  2.540368  1.090006  2.154200  2.685590  3.839250  4.103931
   H (  9)  2.540375  1.089971  2.154195  2.767694  2.962755  2.675103
   H ( 10)  2.962722  2.154223  1.090006  2.154239  2.540472  3.663078
   H ( 11)  4.577362  2.725930  2.154296  1.090031  3.009577  2.718255
   H ( 12)  5.011931  3.446363  2.154286  1.089963  3.009579  3.479950
   H ( 13)  4.514315  2.725958  2.154330  1.089978  3.841206  4.135082
             H (  7)   H (  8)   H (  9)   H ( 10)   H ( 11)   H ( 12)
   H (  8)  2.949048
   H (  9)  2.949011  1.779939
   H ( 10)  4.300254  2.512347  3.051014
   H ( 11)  5.366179  3.004903  2.545626  3.052364
   H ( 12)  6.141568  3.693168  3.753294  2.479609  1.779930
   H ( 13)  5.319226  2.456149  3.129840  2.479662  1.779996  1.779907

 
 A cutoff of  1.0D-14 yielded   1254 shell pairs
 There are     11199 function pairs
 
 -------------------------------------------------------
 OpenMP Integral Computing Module                       
 Release: version 1.0, May 2013, Q-Chem Inc. Pittsburgh 
 -------------------------------------------------------
 Integral Job Info:
 Integral job number is                      11
 Integral operator is                         1
 short-range coefficients                     0
 long-range coefficients              100000000
 Omega coefficients                           0
 if combine SR and LR in K                    0
 Integral screening is                        0
 Integral computing path is                   2
 max size of driver memory is            800000
 size of driver memory is                593474
 size of scratch memory is             15267112
 max col of scratch BK array               1296
 max len of scratch array in speh3          155
 max len of scratch index in speh4           18
 max int batch size is                      520
 min int batch size is                       52
 fixed nKL is                                52
 max L of basis functions is                  2
 order of int derivative is                   0
 number of shells is                         52
 number of basis is                         155
 number of cartesian basis is               155
 number of contracted shell pairs          1254
 number of primitive shell pairs           5101
 maxK2 (contraction) of shell pair           36
 max number of K2 of shell pair               1
 max number of CS2 of shell pair             83
 max number of PS2 of shell pair            468
 mem total for path MDJ                  537180
 -------------------------------------------------------
 Smallest overlap matrix eigenvalue = 6.73E-04

 Scale SEOQF with 1.000000e-01/1.000000e-01/1.000000e+00

 Standard Electronic Orientation quadrupole field applied
 Nucleus-field energy     =     0.0000000027 hartrees
 Guess from superposition of atomic densities
 Warning:  Energy on first SCF cycle will be non-variational
 SAD guess density has 93.936381 electrons

 -----------------------------------------------------------------------
  General SCF calculation program by
  Eric Jon Sundstrom, Paul Horn, Yuezhi Mao, Dmitri Zuev, Alec White,
  David Stuck, Shaama M.S., Shane Yost, Joonho Lee, David Small,
  Daniel Levine, Susi Lehtola, Hugh Burton, Evgeny Epifanovsky
 -----------------------------------------------------------------------
 Exchange:     0.2000 Hartree-Fock + 0.0800 Slater + 0.7200 B88
 Correlation:  0.1900 VWN1RPA + 0.8100 LYP
 Using SG-1 standard quadrature grid
 using 12 threads for integral computing
 -------------------------------------------------------
 OpenMP Integral computing Module                
 Release: version 1.0, May 2013, Q-Chem Inc. Pittsburgh 
 -------------------------------------------------------
 -------------------------------------------------------
 OpenMP BLAS3 based DFT computing Module                
 Release: version 1.0, May 2013, Q-Chem Inc. Pittsburgh 
 -------------------------------------------------------
 A unrestricted SCF calculation will be
 performed using DIIS
 SCF converges when DIIS error is below 1.0e-06
 Alpha HF Exchange    Energy = -18.88026941503062
 Beta HF Exchange     Energy = -18.88026941503062
 DFT Correlation      Energy =  -5.14635274406645
 DFT Exchange         Energy = -149.91645329017533
 One-Electron (alpha) Energy = -4017.20485924312470
 One-Electron (beta)  Energy = -4017.20485924312470
 Total Coulomb        Energy = 2699.61762650801302
 ---------------------------------------
  Cycle       Energy         DIIS error
 ---------------------------------------
    1   -4927.9809172879      1.51e-01  
 Alpha HF Exchange    Energy = -18.97621814453280
 Beta HF Exchange     Energy = -18.97621814453279
 DFT Correlation      Energy =  -5.20062673724487
 DFT Exchange         Energy = -151.07181338282220
 One-Electron (alpha) Energy = -4028.56807304084168
 One-Electron (beta)  Energy = -4028.56807304084032
 Total Coulomb        Energy = 2730.15893590604492
    2   -4921.5675670302      9.37e-03  
 Alpha HF Exchange    Energy = -18.83630896761438
 Beta HF Exchange     Energy = -18.83630896761434
 DFT Correlation      Energy =  -5.15460273899013
 DFT Exchange         Energy = -149.94766336603351
 One-Electron (alpha) Energy = -4011.27251789637148
 One-Electron (beta)  Energy = -4011.27251789636966
 Total Coulomb        Energy = 2694.14062465242114
    3   -4921.5447756260      4.07e-03  
 Alpha HF Exchange    Energy = -18.95864874607865
 Beta HF Exchange     Energy = -18.95864874607866
 DFT Correlation      Energy =  -5.19535095843201
 DFT Exchange         Energy = -150.92335948717346
 One-Electron (alpha) Energy = -4026.52748092641559
 One-Electron (beta)  Energy = -4026.52748092641559
 Total Coulomb        Energy = 2725.85182686325243
    4   -4921.6046233727      3.18e-03  
 Alpha HF Exchange    Energy = -18.91261547939311
 Beta HF Exchange     Energy = -18.91261547939309
 DFT Correlation      Energy =  -5.17872523679690
 DFT Exchange         Energy = -150.55238123767333
 One-Electron (alpha) Energy = -4020.97257079325072
 One-Electron (beta)  Energy = -4020.97257079324845
 Total Coulomb        Energy = 2714.15624144829098
    5   -4921.7107180169      7.24e-04  
 Alpha HF Exchange    Energy = -18.90903811340614
 Beta HF Exchange     Energy = -18.90903811340614
 DFT Correlation      Energy =  -5.17890274601091
 DFT Exchange         Energy = -150.52737320609515
 One-Electron (alpha) Energy = -4020.51760784954422
 One-Electron (beta)  Energy = -4020.51760784954558
 Total Coulomb        Energy = 2713.20796290695853
    6   -4921.7170854164      9.72e-05  
 Alpha HF Exchange    Energy = -18.90853004285779
 Beta HF Exchange     Energy = -18.90853004285781
 DFT Correlation      Energy =  -5.17847659878375
 DFT Exchange         Energy = -150.52260362532778
 One-Electron (alpha) Energy = -4020.46364232245833
 One-Electron (beta)  Energy = -4020.46364232246106
 Total Coulomb        Energy = 2713.09371907335708
    7   -4921.7171863268      2.17e-05  
 Alpha HF Exchange    Energy = -18.90862765315434
 Beta HF Exchange     Energy = -18.90862765315433
 DFT Correlation      Energy =  -5.17851388052057
 DFT Exchange         Energy = -150.52344290936716
 One-Electron (alpha) Energy = -4020.46044564875319
 One-Electron (beta)  Energy = -4020.46044564875274
 Total Coulomb        Energy = 2713.08839154227462
    8   -4921.7171922968      6.93e-06  
 Alpha HF Exchange    Energy = -18.90866991993435
 Beta HF Exchange     Energy = -18.90866991993432
 DFT Correlation      Energy =  -5.17853018131672
 DFT Exchange         Energy = -150.52375791530221
 One-Electron (alpha) Energy = -4020.47295077858416
 One-Electron (beta)  Energy = -4020.47295077858007
 Total Coulomb        Energy = 2713.11381693214253
    9   -4921.7171930069      1.43e-06  
 Alpha HF Exchange    Energy = -18.90866896050327
 Beta HF Exchange     Energy = -18.90866896050326
 DFT Correlation      Energy =  -5.17853220753273
 DFT Exchange         Energy = -150.52375352275217
 One-Electron (alpha) Energy = -4020.47210234197291
 One-Electron (beta)  Energy = -4020.47210234197019
 Total Coulomb        Energy = 2713.11211574881509
   10   -4921.7171930318      4.57e-07  Convergence criterion met
 ---------------------------------------
 SCF time:   CPU 51.00s  wall 4.00s 
<S^2> =         -0.000000000
 Alpha HF Exchange    Energy = -18.90866896050327
 Beta HF Exchange     Energy = -18.90866896050326
 DFT Correlation      Energy =  -5.17853220753273
 DFT Exchange         Energy = -150.52375352275217
 One-Electron (alpha) Energy = -4020.47210234197291
 One-Electron (beta)  Energy = -4020.47210234197019
 Total Coulomb        Energy = 2713.11211574881509
 Nuclear repulsion Energy = 599.63451955460789
 SCF   energy in the final basis set =    -4921.7171930318
 Total energy in the final basis set =    -4921.7171930318
 
 --------------------------------------------------------------
 
                    Orbital Energies (a.u.)
 --------------------------------------------------------------
 
 Alpha MOs
 -- Occupied --
*******-453.894 -58.091 -58.089 -52.149 -52.148 -52.146 -52.145
-52.145 -52.142 -10.240 -10.226 -10.194  -7.825  -7.822  -5.770
 -5.767  -5.766  -5.763  -5.756  -5.753  -2.104  -2.103  -2.101
 -2.101  -2.095  -2.092  -2.092  -2.090  -2.089  -2.087  -0.832
 -0.735  -0.691  -0.644  -0.585  -0.475  -0.445  -0.438  -0.415
 -0.386  -0.367  -0.354  -0.319  -0.302  -0.236  -0.212
 -- Virtual --
 -0.005   0.016   0.024   0.035   0.092   0.116   0.136   0.153
  0.161   0.173   0.191   0.200   0.218   0.252   0.278   0.300
  0.310   0.322   0.335   0.353   0.440   0.469   0.475   0.504
  0.536   0.551   0.564   0.611   0.630   0.656   0.665   0.686
  0.711   0.756   0.771   0.800   0.841   0.854   0.878   0.883
  0.886   0.901   0.916   0.956   1.006   1.013   1.031   1.131
  1.351   1.366   1.404   1.534   1.588   1.610   1.656   1.775
  1.801   1.827   1.880   1.945   2.024   2.037   2.057   2.060
  2.069   2.081   2.086   2.101   2.118   2.165   2.254   2.280
  2.356   2.438   2.505   2.540   2.550   2.587   2.596   2.638
  2.701   2.741   2.823   2.873   2.893   3.203   3.251   3.311
  3.431   3.457   3.485   4.203   4.271   4.279   4.335   4.352
  4.354   4.364   4.399   4.415   4.467   4.499   4.561   4.633
  5.465   5.485  89.726  89.836
 
 Beta MOs
 -- Occupied --
*******-453.894 -58.091 -58.089 -52.149 -52.148 -52.146 -52.145
-52.145 -52.142 -10.240 -10.226 -10.194  -7.825  -7.822  -5.770
 -5.767  -5.766  -5.763  -5.756  -5.753  -2.104  -2.103  -2.101
 -2.101  -2.095  -2.092  -2.092  -2.090  -2.089  -2.087  -0.832
 -0.735  -0.691  -0.644  -0.585  -0.475  -0.445  -0.438  -0.415
 -0.386  -0.367  -0.354  -0.319  -0.302  -0.236  -0.212
 -- Virtual --
 -0.005   0.016   0.024   0.035   0.092   0.116   0.136   0.153
  0.161   0.173   0.191   0.200   0.218   0.252   0.278   0.300
  0.310   0.322   0.335   0.353   0.440   0.469   0.475   0.504
  0.536   0.551   0.564   0.611   0.630   0.656   0.665   0.686
  0.711   0.756   0.771   0.800   0.841   0.854   0.878   0.883
  0.886   0.901   0.916   0.956   1.006   1.013   1.031   1.131
  1.351   1.366   1.404   1.534   1.588   1.610   1.656   1.775
  1.801   1.827   1.880   1.945   2.024   2.037   2.057   2.060
  2.069   2.081   2.086   2.101   2.118   2.165   2.254   2.280
  2.356   2.438   2.505   2.540   2.550   2.587   2.596   2.638
  2.701   2.741   2.823   2.873   2.893   3.203   3.251   3.311
  3.431   3.457   3.485   4.203   4.271   4.279   4.335   4.352
  4.354   4.364   4.399   4.415   4.467   4.499   4.561   4.633
  5.465   5.485  89.726  89.836
 --------------------------------------------------------------
 
          Ground-State Mulliken Net Atomic Charges

     Atom                 Charge (a.u.)    Spin (a.u.)
  --------------------------------------------------------
      1 Se                   -0.070318      -0.000000
      2 C                    -0.240098       0.000000
      3 C                    -0.177367      -0.000000
      4 C                    -0.301999      -0.000000
      5 Se                   -0.060213      -0.000000
      6 H                     0.044522       0.000000
      7 H                     0.041259       0.000000
      8 H                     0.132260      -0.000000
      9 H                     0.132117       0.000000
     10 H                     0.148451      -0.000000
     11 H                     0.112826       0.000000
     12 H                     0.132100       0.000000
     13 H                     0.106459       0.000000
  --------------------------------------------------------
  Sum of atomic charges =     0.000000
  Sum of spin   charges =    -0.000000

 -----------------------------------------------------------------
                    Cartesian Multipole Moments
 -----------------------------------------------------------------
    Charge (ESU x 10^10)
                 0.0000
    Dipole Moment (Debye)
         X      -0.2484      Y      -2.5009      Z       1.0789
       Tot       2.7350
    Quadrupole Moments (Debye-Ang)
        XX     -59.5129     XY       0.5926     YY     -56.5206
        XZ       0.8480     YZ      -0.1819     ZZ     -55.0373
    Octopole Moments (Debye-Ang^2)
       XXX      31.7114    XXY      16.2905    XYY       4.2165
       YYY      42.2965    XXZ       9.7511    XYZ      -4.1335
       YYZ      -2.7678    XZZ       0.7548    YZZ      15.3492
       ZZZ      -2.9837
    Hexadecapole Moments (Debye-Ang^3)
      XXXX    -945.5015   XXXY     -28.5674   XXYY    -231.5580
      XYYY     -46.4141   YYYY    -457.0576   XXXZ       8.1088
      XXYZ       0.5713   XYYZ      -3.2978   YYYZ       2.1843
      XXZZ    -173.7883   XYZZ     -14.0746   YYZZ     -96.8025
      XZZZ      -6.9663   YZZZ      -0.6802   ZZZZ    -114.6231
 -----------------------------------------------------------------
 Calculating analytic gradient of the SCF energy
 Gradient of SCF Energy
            1           2           3           4           5           6
    1  -0.0288527  -0.0011221  -0.0034173  -0.0025841   0.0162335  -0.0084504
    2  -0.0057772   0.0048652   0.0137252  -0.0037086  -0.0193279   0.0047296
    3  -0.0103705  -0.0023914  -0.0225046   0.0054728  -0.0107339   0.0262328
            7           8           9          10          11          12
    1   0.0225768  -0.0021074  -0.0011567   0.0031644   0.0024828   0.0026506
    2   0.0000075   0.0019594   0.0010722  -0.0086586   0.0030397   0.0026018
    3   0.0149775  -0.0002246  -0.0017092   0.0040608  -0.0015958  -0.0010463
           13
    1   0.0005826
    2   0.0054716
    3  -0.0001675
 Max gradient component =       2.885E-02
 RMS gradient           =       1.039E-02
 Gradient time:  CPU 20.41 s  wall 1.74 s
 Geometry Optimization Parameters
   NAtoms,    NIC,     NZ,  NCons,   NDum,   NFix, NCnnct, MaxDiis
       13      82       0       1       0       0       0       0


** CONSTRAINED OPTIMIZATION IN DELOCALIZED INTERNAL COORDINATES **
   Searching for a Minimum

   Optimization Cycle:   1

                       Coordinates (Angstroms)
     ATOM                X               Y               Z
      1  Se        1.8709000000    0.1759000000   -0.0519000000
      2  C         0.5753000000   -1.2000000000    0.4674000000
      3  C        -0.6870000000   -1.0598000000   -0.3856000000
      4  C        -1.6472000000   -2.2080000000   -0.0682000000
      5  Se       -1.5585000000    0.6499000000    0.0132000000
      6  H        -1.8515000000    0.4864000000    1.5367000000
      7  H         3.0499000000   -0.1440000000    0.9183000000
      8  H         1.0113000000   -2.1868000000    0.3117000000
      9  H         0.3182000000   -1.0783000000    1.5196000000
     10  H        -0.4177000000   -1.0928000000   -1.4413000000
     11  H        -1.9166000000   -2.1750000000    0.9875000000
     12  H        -2.5465000000   -2.1081000000   -0.6759000000
     13  H        -1.1626000000   -3.1588000000   -0.2900000000
   Point Group: c1    Number of degrees of freedom:    33


   Energy is  -4921.717193032

              Constraints and their Current Values
                                        Value     Constraint
   Distance(Angs):        1   2             1.959937     1.500000

 Attempting to Generate Delocalized Internal Coordinates
**WARNING** Constraint Gradient Reduced for constraint   1

   Using Lagrange Multiplier Algorithm


 34 Hessian modes will be used to form the next step
  Hessian Eigenvalues:
    -0.919994    0.045000    0.045000    0.045000    0.045000    0.077213
     0.079658    0.080532    0.084997    0.085002    0.085773    0.092694
     0.123008    0.142294    0.144769    0.144772    0.160000    0.160000
     0.160000    0.160000    0.160000    0.166939    0.174126    0.202568
     0.221167    0.294177    0.294305    0.348090    0.348119    0.348120
     0.348151    0.348160    0.348169    1.086964

 Minimum Search - Taking P-RFO Step
 Searching for Lamda that Maximizes Along the Constraint modes Only
 Value Taken    Lamda =   0.05301763


 ********************************************
 ** ERROR IN DETERMINING Lamda IN CONFormD **
 ********************************************


 ** Scaling Hessian by  2.356339 **


 34 Hessian modes will be used to form the next step
  Hessian Eigenvalues:
    -0.822447    0.106035    0.106035    0.106035    0.106035    0.181939
     0.187702    0.189761    0.200282    0.200293    0.202111    0.218420
     0.289848    0.335292    0.341124    0.341132    0.377014    0.377014
     0.377014    0.377014    0.377014    0.393366    0.410301    0.477319
     0.521145    0.693180    0.693482    0.820219    0.820286    0.820288
     0.820362    0.820384    0.820404    1.215884

 Minimum Search - Taking P-RFO Step
 Searching for Lamda that Maximizes Along the Constraint modes Only
 Value Taken    Lamda =   0.06373508
 Searching for Lamda that Minimizes Along All other modes
 Value Taken    Lamda =  -0.03563356
 Calculated Step too Large.  Step scaled by  0.926068
 Step Taken.  Stepsize is  0.300000

                             Maximum     Tolerance    Cnvgd?
         Gradient            0.300000       0.000300      NO
         Displacement        0.262525       0.001200      NO
         Energy change     *********       0.000001      NO


 New Cartesian Coordinates Obtained by Inverse Iteration

 Displacement from previous Coordinates is:  0.455943
 ----------------------------------------------------------------
             Standard Nuclear Orientation (Angstroms)
    I     Atom           X                Y                Z
 ----------------------------------------------------------------
    1      Se      1.8065072802     0.1138859011    -0.0274907611
    2      C       0.6002444301    -1.1602644489     0.4599162282
    3      C      -0.6822090984    -1.0300635476    -0.3750786262
    4      C      -1.6202872784    -2.2015622985    -0.0543180122
    5      Se     -1.5972557537     0.6809025304    -0.0069576963
    6      H      -1.8447515221     0.4677799238     1.4831358892
    7      H       2.9406705526    -0.2680499726     0.9189222530
    8      H       1.0394454030    -2.1450117690     0.2903161747
    9      H       0.3642172952    -1.0492619039     1.5189377207
   10      H      -0.4271417688    -1.0497665340    -1.4363263220
   11      H      -1.8884863487    -2.1853964747     1.0032883580
   12      H      -2.5294736154    -2.1247324139    -0.6520261314
   13      H      -1.1234795755    -3.1478589921    -0.2808190746
 ----------------------------------------------------------------
 Nuclear Repulsion Energy =   606.8157379269 hartrees
 There are       47 alpha and       47 beta electrons

                       Distance Matrix (Angstroms)
             Se(  1)   C (  2)   C (  3)   C (  4)   Se(  5)   H (  6)
   C (  2)  1.821015
   C (  3)  2.761005  1.535857
   C (  4)  4.135812  2.505893  1.534695
   Se(  5)  3.450729  2.904630  1.974900  2.882946
   H (  6)  3.967231  3.110549  2.654807  3.088614  1.525469
   H (  7)  1.525745  2.546434  3.921780  5.048564  4.727636  4.874428
   H (  8)  2.406658  1.091508  2.156375  2.682564  3.876384  4.070392
   H (  9)  2.413411  1.090668  2.163949  2.782299  3.028069  2.679970
   H ( 10)  2.885843  2.159506  1.091647  2.158744  2.531299  3.582712
   H ( 11)  4.472380  2.745893  2.165593  1.091203  3.053045  2.696574
   H ( 12)  4.919572  3.458576  2.165037  1.090769  3.026009  3.427664
   H ( 13)  4.391808  2.733212  2.165332  1.092519  3.867671  4.087128
             H (  7)   H (  8)   H (  9)   H ( 10)   H ( 11)   H ( 12)
   H (  8)  2.744593
   H (  9)  2.758337  1.779357
   H ( 10)  4.183352  2.516294  3.059385
   H ( 11)  5.196546  3.013759  2.575145  3.062173
   H ( 12)  5.986454  3.691287  3.774012  2.488067  1.776122
   H ( 13)  5.123475  2.451559  3.139503  2.494409  1.777780  1.778033

 
 Applying Cartesian multipole field
    Component          Value
    ---------          -----
     (2,0,0)        1.00000E-11
     (0,2,0)        2.00000E-11
     (0,0,2)       -3.00000E-10
 Nucleus-field energy     =     0.0000000029 hartrees
 Requested basis set is 6-31G(d,p)
 There are 52 shells and 155 basis functions
 A cutoff of  1.0D-14 yielded   1260 shell pairs
 There are     11235 function pairs
 Smallest overlap matrix eigenvalue = 6.73E-04
 Guess from superposition of atomic densities
 Warning:  Energy on first SCF cycle will be non-variational
 SAD guess density has 93.936381 electrons

 -----------------------------------------------------------------------
  General SCF calculation program by
  Eric Jon Sundstrom, Paul Horn, Yuezhi Mao, Dmitri Zuev, Alec White,
  David Stuck, Shaama M.S., Shane Yost, Joonho Lee, David Small,
  Daniel Levine, Susi Lehtola, Hugh Burton, Evgeny Epifanovsky
 -----------------------------------------------------------------------
 Exchange:     0.2000 Hartree-Fock + 0.0800 Slater + 0.7200 B88
 Correlation:  0.1900 VWN1RPA + 0.8100 LYP
 Using SG-1 standard quadrature grid
 using 12 threads for integral computing
 -------------------------------------------------------
 OpenMP Integral computing Module                
 Release: version 1.0, May 2013, Q-Chem Inc. Pittsburgh 
 -------------------------------------------------------
 -------------------------------------------------------
 OpenMP BLAS3 based DFT computing Module                
 Release: version 1.0, May 2013, Q-Chem Inc. Pittsburgh 
 -------------------------------------------------------
 A unrestricted SCF calculation will be
 performed using DIIS
 SCF converges when DIIS error is below 1.0e-06
 Alpha HF Exchange    Energy = -18.89337429233656
 Beta HF Exchange     Energy = -18.89337429233656
 DFT Correlation      Energy =  -5.14991134206976
 DFT Exchange         Energy = -149.94419480718460
 One-Electron (alpha) Energy = -4024.31158790225118
 One-Electron (beta)  Energy = -4024.31158790225118
 Total Coulomb        Energy = 2706.55350485200233
 ---------------------------------------
  Cycle       Energy         DIIS error
 ---------------------------------------
    1   -4928.1347877567      1.51e-01  
 Alpha HF Exchange    Energy = -18.98251727982695
 Beta HF Exchange     Energy = -18.98251727982694
 DFT Correlation      Energy =  -5.20454492903912
 DFT Exchange         Energy = -151.11517333703472
 One-Electron (alpha) Energy = -4035.72614397246161
 One-Electron (beta)  Energy = -4035.72614397246116
 Total Coulomb        Energy = 2737.35974666975380
    2   -4921.5615561711      9.39e-03  
 Alpha HF Exchange    Energy = -18.84154292340777
 Beta HF Exchange     Energy = -18.84154292340779
 DFT Correlation      Energy =  -5.15820548613604
 DFT Exchange         Energy = -149.98188381555815
 One-Electron (alpha) Energy = -4018.48792730519108
 One-Electron (beta)  Energy = -4018.48792730519381
 Total Coulomb        Energy = 2701.44478799173294
    3   -4921.5385038374      4.11e-03  
 Alpha HF Exchange    Energy = -18.96382662157637
 Beta HF Exchange     Energy = -18.96382662157633
 DFT Correlation      Energy =  -5.19891532475936
 DFT Exchange         Energy = -150.95802301102100
 One-Electron (alpha) Energy = -4033.55176245499933
 One-Electron (beta)  Energy = -4033.55176245499388
 Total Coulomb        Energy = 2732.77086562217164
    4   -4921.6015129370      3.18e-03  
 Alpha HF Exchange    Energy = -18.91853439939643
 Beta HF Exchange     Energy = -18.91853439939643
 DFT Correlation      Energy =  -5.18255770928088
 DFT Exchange         Energy = -150.59248002230424
 One-Electron (alpha) Energy = -4028.13222597936283
 One-Electron (beta)  Energy = -4028.13222597936192
 Total Coulomb        Energy = 2721.35350489605025
    5   -4921.7073156633      7.09e-04  
 Alpha HF Exchange    Energy = -18.91476419668556
 Beta HF Exchange     Energy = -18.91476419668556
 DFT Correlation      Energy =  -5.18265058963819
 DFT Exchange         Energy = -150.56574970156984
 One-Electron (alpha) Energy = -4027.69059807530448
 One-Electron (beta)  Energy = -4027.69059807530402
 Total Coulomb        Energy = 2720.43014824982401
    6   -4921.7132386556      9.59e-05  
 Alpha HF Exchange    Energy = -18.91419400673076
 Beta HF Exchange     Energy = -18.91419400673076
 DFT Correlation      Energy =  -5.18221787011515
 DFT Exchange         Energy = -150.56056651187299
 One-Electron (alpha) Energy = -4027.61456327383439
 One-Electron (beta)  Energy = -4027.61456327383348
 Total Coulomb        Energy = 2720.27122384282848
    7   -4921.7133371705      2.36e-05  
 Alpha HF Exchange    Energy = -18.91432932002563
 Beta HF Exchange     Energy = -18.91432932002561
 DFT Correlation      Energy =  -5.18225685058006
 DFT Exchange         Energy = -150.56166553067916
 One-Electron (alpha) Energy = -4027.62338247722573
 One-Electron (beta)  Energy = -4027.62338247722528
 Total Coulomb        Energy = 2720.29026459296983
    8   -4921.7133434530      9.88e-06  
 Alpha HF Exchange    Energy = -18.91435390323954
 Beta HF Exchange     Energy = -18.91435390323954
 DFT Correlation      Energy =  -5.18227216391654
 DFT Exchange         Energy = -150.56186052883021
 One-Electron (alpha) Energy = -4027.62996114119869
 One-Electron (beta)  Energy = -4027.62996114119778
 Total Coulomb        Energy = 2720.30368027464647
    9   -4921.7133445772      1.44e-06  
 Alpha HF Exchange    Energy = -18.91435907912832
 Beta HF Exchange     Energy = -18.91435907912830
 DFT Correlation      Energy =  -5.18227574844499
 DFT Exchange         Energy = -150.56190087374509
 One-Electron (alpha) Energy = -4027.63100219818671
 One-Electron (beta)  Energy = -4027.63100219818534
 Total Coulomb        Energy = 2720.30581664377132
   10   -4921.7133446033      4.67e-07  Convergence criterion met
 ---------------------------------------
 SCF time:   CPU 50.82s  wall 5.00s 
<S^2> =          0.000000000
 Alpha HF Exchange    Energy = -18.91435907912832
 Beta HF Exchange     Energy = -18.91435907912830
 DFT Correlation      Energy =  -5.18227574844499
 DFT Exchange         Energy = -150.56190087374509
 One-Electron (alpha) Energy = -4027.63100219818671
 One-Electron (beta)  Energy = -4027.63100219818534
 Total Coulomb        Energy = 2720.30581664377132
 Nuclear repulsion Energy = 606.81573792977451
 SCF   energy in the final basis set =    -4921.7133446033
 Total energy in the final basis set =    -4921.7133446033
 
 --------------------------------------------------------------
 
                    Orbital Energies (a.u.)
 --------------------------------------------------------------
 
 Alpha MOs
 -- Occupied --
*******-453.890 -58.091 -58.086 -52.149 -52.148 -52.145 -52.144
-52.142 -52.140 -10.240 -10.219 -10.193  -7.825  -7.820  -5.771
 -5.766  -5.766  -5.762  -5.756  -5.752  -2.104  -2.103  -2.100
 -2.099  -2.095  -2.092  -2.091  -2.090  -2.087  -2.086  -0.836
 -0.752  -0.693  -0.640  -0.584  -0.476  -0.446  -0.444  -0.417
 -0.389  -0.365  -0.354  -0.324  -0.306  -0.235  -0.211
 -- Virtual --
 -0.003   0.025   0.030   0.062   0.094   0.113   0.135   0.150
  0.162   0.173   0.186   0.201   0.216   0.257   0.281   0.297
  0.315   0.322   0.343   0.356   0.442   0.465   0.477   0.508
  0.535   0.551   0.566   0.613   0.633   0.662   0.673   0.686
  0.705   0.752   0.766   0.812   0.846   0.852   0.886   0.887
  0.897   0.907   0.926   0.966   1.026   1.049   1.058   1.122
  1.360   1.379   1.414   1.529   1.606   1.625   1.669   1.772
  1.783   1.820   1.874   1.947   2.027   2.041   2.059   2.068
  2.075   2.082   2.094   2.110   2.120   2.209   2.264   2.282
  2.357   2.442   2.506   2.556   2.575   2.598   2.605   2.644
  2.710   2.737   2.823   2.869   2.889   3.198   3.253   3.313
  3.430   3.453   3.481   4.200   4.274   4.283   4.337   4.357
  4.374   4.378   4.398   4.425   4.471   4.497   4.535   4.628
  5.470   5.485  89.744  89.839
 
 Beta MOs
 -- Occupied --
*******-453.890 -58.091 -58.086 -52.149 -52.148 -52.145 -52.144
-52.142 -52.140 -10.240 -10.219 -10.193  -7.825  -7.820  -5.771
 -5.766  -5.766  -5.762  -5.756  -5.752  -2.104  -2.103  -2.100
 -2.099  -2.095  -2.092  -2.091  -2.090  -2.087  -2.086  -0.836
 -0.752  -0.693  -0.640  -0.584  -0.476  -0.446  -0.444  -0.417
 -0.389  -0.365  -0.354  -0.324  -0.306  -0.235  -0.211
 -- Virtual --
 -0.003   0.025   0.030   0.062   0.094   0.113   0.135   0.150
  0.162   0.173   0.186   0.201   0.216   0.257   0.281   0.297
  0.315   0.322   0.343   0.356   0.442   0.465   0.477   0.508
  0.535   0.551   0.566   0.613   0.633   0.662   0.673   0.686
  0.705   0.752   0.766   0.812   0.846   0.852   0.886   0.887
  0.897   0.907   0.926   0.966   1.026   1.049   1.058   1.122
  1.360   1.379   1.414   1.529   1.606   1.625   1.669   1.772
  1.783   1.820   1.874   1.947   2.027   2.041   2.059   2.068
  2.075   2.082   2.094   2.110   2.120   2.209   2.264   2.282
  2.357   2.442   2.506   2.556   2.575   2.598   2.605   2.644
  2.710   2.737   2.823   2.869   2.889   3.198   3.253   3.313
  3.430   3.453   3.481   4.200   4.274   4.283   4.337   4.357
  4.374   4.378   4.398   4.425   4.471   4.497   4.535   4.628
  5.470   5.485  89.744  89.839
 --------------------------------------------------------------
 
          Ground-State Mulliken Net Atomic Charges

     Atom                 Charge (a.u.)    Spin (a.u.)
  --------------------------------------------------------
      1 Se                   -0.074790       0.000000
      2 C                    -0.222402       0.000000
      3 C                    -0.182970      -0.000000
      4 C                    -0.302799       0.000000
      5 Se                   -0.059166      -0.000000
      6 H                     0.046393       0.000000
      7 H                     0.039606       0.000000
      8 H                     0.131579       0.000000
      9 H                     0.129430       0.000000
     10 H                     0.146233       0.000000
     11 H                     0.112301      -0.000000
     12 H                     0.130001      -0.000000
     13 H                     0.106583       0.000000
  --------------------------------------------------------
  Sum of atomic charges =     0.000000
  Sum of spin   charges =     0.000000

 -----------------------------------------------------------------
                    Cartesian Multipole Moments
 -----------------------------------------------------------------
    Charge (ESU x 10^10)
                -0.0000
    Dipole Moment (Debye)
         X      -0.1978      Y      -2.4927      Z       1.1089
       Tot       2.7354
    Quadrupole Moments (Debye-Ang)
        XX     -59.4216     XY       0.1414     YY     -56.5715
        XZ       0.8802     YZ      -0.2970     ZZ     -55.0044
    Octopole Moments (Debye-Ang^2)
       XXX      36.1308    XXY      15.6978    XYY       6.0251
       YYY      43.1974    XXZ       9.3375    XYZ      -4.1023
       YYZ      -2.8162    XZZ       2.6559    YZZ      15.6557
       ZZZ      -3.2065
    Hexadecapole Moments (Debye-Ang^3)
      XXXX    -928.1462   XXXY     -19.1665   XXYY    -226.1515
      XYYY     -33.2199   YYYY    -453.5392   XXXZ       1.8693
      XXYZ       0.2782   XYYZ      -4.3544   YYYZ       3.4899
      XXZZ    -170.0928   XYZZ      -9.9830   YYZZ     -95.9897
      XZZZ     -10.2012   YZZZ       0.2010   ZZZZ    -112.5957
 -----------------------------------------------------------------
 Calculating analytic gradient of the SCF energy
 Gradient of SCF Energy
            1           2           3           4           5           6
    1  -0.0628445   0.0341416   0.0007449  -0.0014953   0.0096570  -0.0050410
    2  -0.0511986   0.0399704   0.0158809  -0.0043681  -0.0106173   0.0022409
    3   0.0100639  -0.0149963  -0.0186296   0.0055744  -0.0059925   0.0164680
            7           8           9          10          11          12
    1   0.0125609   0.0032829   0.0031777   0.0023434   0.0015002   0.0018307
    2  -0.0011376   0.0042240   0.0043985  -0.0065408   0.0019961   0.0019070
    3   0.0104045  -0.0014654  -0.0018341   0.0026798  -0.0012615  -0.0008357
           13
    1   0.0001415
    2   0.0032447
    3  -0.0001755
 Max gradient component =       6.284E-02
 RMS gradient           =       1.700E-02
 Gradient time:  CPU 21.00 s  wall 1.79 s
 Geometry Optimization Parameters
   NAtoms,    NIC,     NZ,  NCons,   NDum,   NFix, NCnnct, MaxDiis
       13      82       0       1       0       0       0       0

 Cartesian Hessian Update
 Hessian Updated using BFGS Update


** CONSTRAINED OPTIMIZATION IN DELOCALIZED INTERNAL COORDINATES **
   Searching for a Minimum

   Optimization Cycle:   2

                       Coordinates (Angstroms)
     ATOM                X               Y               Z
      1  Se        1.8065072802    0.1138859011   -0.0274907611
      2  C         0.6002444301   -1.1602644489    0.4599162282
      3  C        -0.6822090984   -1.0300635476   -0.3750786262
      4  C        -1.6202872784   -2.2015622985   -0.0543180122
      5  Se       -1.5972557537    0.6809025304   -0.0069576963
      6  H        -1.8447515221    0.4677799238    1.4831358892
      7  H         2.9406705526   -0.2680499726    0.9189222530
      8  H         1.0394454030   -2.1450117690    0.2903161747
      9  H         0.3642172952   -1.0492619039    1.5189377207
     10  H        -0.4271417688   -1.0497665340   -1.4363263220
     11  H        -1.8884863487   -2.1853964747    1.0032883580
     12  H        -2.5294736154   -2.1247324139   -0.6520261314
     13  H        -1.1234795755   -3.1478589921   -0.2808190746
   Point Group: c1    Number of degrees of freedom:    33


   Energy is  -4921.713344603

              Constraints and their Current Values
                                        Value     Constraint
   Distance(Angs):        1   2             1.821015     1.500000
 Hessian Updated using BFGS Update
**WARNING** Constraint Gradient Reduced for constraint   1

   Using Lagrange Multiplier Algorithm


 29 Hessian modes will be used to form the next step
  Hessian Eigenvalues:
    -0.867498    0.105866    0.106108    0.181508    0.183977    0.187879
     0.200282    0.200293    0.203178    0.218396    0.291811    0.316877
     0.335445    0.341138    0.369919    0.378011    0.392306    0.409646
     0.477119    0.519211    0.691399    0.693540    0.819401    0.820230
     0.820291    0.820327    0.820401    0.820473    1.160907

 Minimum Search - Taking P-RFO Step
 Searching for Lamda that Maximizes Along the Constraint modes Only
 Value Taken    Lamda =   0.04359381
 Searching for Lamda that Minimizes Along All other modes
 Value Taken    Lamda =  -0.05218716
 Calculated Step too Large.  Step scaled by  0.874171
 Step Taken.  Stepsize is  0.300000

                             Maximum     Tolerance    Cnvgd?
         Gradient            0.300000       0.000300      NO
         Displacement        0.249827       0.001200      NO
         Energy change      0.003848       0.000001      NO


 New Cartesian Coordinates Obtained by Inverse Iteration

 Displacement from previous Coordinates is:  0.410575
 ----------------------------------------------------------------
             Standard Nuclear Orientation (Angstroms)
    I     Atom           X                Y                Z
 ----------------------------------------------------------------
    1      Se      1.7561955332     0.0610880478     0.0082934113
    2      C       0.6296705516    -1.1161407499     0.4523194017
    3      C      -0.6777494381    -1.0030884823    -0.3612480007
    4      C      -1.5943095173    -2.1951736693    -0.0400073720
    5      Se     -1.6397156679     0.7062774332    -0.0287823036
    6      H      -1.8383896543     0.4512264377     1.4245425811
    7      H       2.8561883459    -0.3806018126     0.9121775013
    8      H       1.0485404009    -2.1091631100     0.2648101159
    9      H       0.3957873264    -1.0311352857     1.5164615353
   10      H      -0.4381337594    -1.0067071413    -1.4283418836
   11      H      -1.8617821910    -2.1964954314     1.0196066751
   12      H      -2.5130530301    -2.1424419517    -0.6274935861
   13      H      -1.0852488999    -3.1370442845    -0.2708380757
 ----------------------------------------------------------------
 Nuclear Repulsion Energy =   613.2266471110 hartrees
 There are       47 alpha and       47 beta electrons

                       Distance Matrix (Angstroms)
             Se(  1)   C (  2)   C (  3)   C (  4)   Se(  5)   H (  6)
   C (  2)  1.688812
   C (  3)  2.681999  1.544027
   C (  4)  4.039670  2.520473  1.537643
   Se(  5)  3.456856  2.950048  1.989433  2.901828
   H (  6)  3.883170  3.081100  2.578985  3.034455  1.488850
   H (  7)  1.490664  2.389533  3.807600  4.899618  4.720155  4.795156
   H (  8)  2.297078  1.093940  2.143695  2.661760  3.903796  4.029260
   H (  9)  2.306130  1.092852  2.163114  2.781738  3.090251  2.682796
   H ( 10)  2.831817  2.165426  1.093672  2.162560  2.517316  3.496461
   H ( 11)  4.382830  2.774224  2.175526  1.092852  3.094273  2.678610
   H ( 12)  4.846262  3.477931  2.176546  1.091792  3.039141  3.375372
   H ( 13)  4.287164  2.747354  2.174396  1.095238  3.890649  4.039458
             H (  7)   H (  8)   H (  9)   H ( 10)   H ( 11)   H ( 12)
   H (  8)  2.583525
   H (  9)  2.615708  1.776193
   H ( 10)  4.089327  2.508460  3.060701
   H ( 11)  5.056506  3.007877  2.588735  3.071616
   H ( 12)  5.856912  3.671820  3.780595  2.497307  1.772009
   H ( 13)  4.953022  2.428274  3.134128  2.509364  1.775636  1.776249

 
 Applying Cartesian multipole field
    Component          Value
    ---------          -----
     (2,0,0)        1.00000E-11
     (0,2,0)        2.00000E-11
     (0,0,2)       -3.00000E-10
 Nucleus-field energy     =     0.0000000031 hartrees
 Requested basis set is 6-31G(d,p)
 There are 52 shells and 155 basis functions
 A cutoff of  1.0D-14 yielded   1264 shell pairs
 There are     11262 function pairs
 Smallest overlap matrix eigenvalue = 6.73E-04
 Guess from superposition of atomic densities
 Warning:  Energy on first SCF cycle will be non-variational
 SAD guess density has 93.936381 electrons

 -----------------------------------------------------------------------
  General SCF calculation program by
  Eric Jon Sundstrom, Paul Horn, Yuezhi Mao, Dmitri Zuev, Alec White,
  David Stuck, Shaama M.S., Shane Yost, Joonho Lee, David Small,
  Daniel Levine, Susi Lehtola, Hugh Burton, Evgeny Epifanovsky
 -----------------------------------------------------------------------
 Exchange:     0.2000 Hartree-Fock + 0.0800 Slater + 0.7200 B88
 Correlation:  0.1900 VWN1RPA + 0.8100 LYP
 Using SG-1 standard quadrature grid
 using 12 threads for integral computing
 -------------------------------------------------------
 OpenMP Integral computing Module                
 Release: version 1.0, May 2013, Q-Chem Inc. Pittsburgh 
 -------------------------------------------------------
 -------------------------------------------------------
 OpenMP BLAS3 based DFT computing Module                
 Release: version 1.0, May 2013, Q-Chem Inc. Pittsburgh 
 -------------------------------------------------------
 A unrestricted SCF calculation will be
 performed using DIIS
 SCF converges when DIIS error is below 1.0e-06
 Alpha HF Exchange    Energy = -18.90930890091201
 Beta HF Exchange     Energy = -18.90930890091201
 DFT Correlation      Energy =  -5.15378587903512
 DFT Exchange         Energy = -149.97908393451112
 One-Electron (alpha) Energy = -4030.60586881204881
 One-Electron (beta)  Energy = -4030.60586881204881
 Total Coulomb        Energy = 2712.61111119098041
 ---------------------------------------
  Cycle       Energy         DIIS error
 ---------------------------------------
    1   -4928.3254669344      1.52e-01  
 Alpha HF Exchange    Energy = -18.98988764129443
 Beta HF Exchange     Energy = -18.98988764129444
 DFT Correlation      Energy =  -5.20894193132004
 DFT Exchange         Energy = -151.16933149433603
 One-Electron (alpha) Energy = -4042.14564260321276
 One-Electron (beta)  Energy = -4042.14564260321231
 Total Coulomb        Energy = 2743.89233769222210
    2   -4921.5303491084      9.42e-03  
 Alpha HF Exchange    Energy = -18.84684267230940
 Beta HF Exchange     Energy = -18.84684267230944
 DFT Correlation      Energy =  -5.16193254133679
 DFT Exchange         Energy = -150.01907489209754
 One-Electron (alpha) Energy = -4024.74956188133820
 One-Electron (beta)  Energy = -4024.74956188134229
 Total Coulomb        Energy = 2707.64195215263044
    3   -4921.5052172740      4.20e-03  
 Alpha HF Exchange    Energy = -18.96988690724665
 Beta HF Exchange     Energy = -18.96988690724666
 DFT Correlation      Energy =  -5.20282391870335
 DFT Exchange         Energy = -151.00178292825467
 One-Electron (alpha) Energy = -4039.81894717273826
 One-Electron (beta)  Energy = -4039.81894717274054
 Total Coulomb        Energy = 2738.97986156389516
    4   -4921.5757663289      3.20e-03  
 Alpha HF Exchange    Energy = -18.92511592536441
 Beta HF Exchange     Energy = -18.92511592536443
 DFT Correlation      Energy =  -5.18672672419061
 DFT Exchange         Energy = -150.64016273741305
 One-Electron (alpha) Energy = -4034.47865383117414
 One-Electron (beta)  Energy = -4034.47865383117596
 Total Coulomb        Energy = 2727.72631075768140
    5   -4921.6814711029      6.99e-04  
 Alpha HF Exchange    Energy = -18.92121193386729
 Beta HF Exchange     Energy = -18.92121193386732
 DFT Correlation      Energy =  -5.18675026385908
 DFT Exchange         Energy = -150.61226819515673
 One-Electron (alpha) Energy = -4034.04637909177563
 One-Electron (beta)  Energy = -4034.04637909177745
 Total Coulomb        Energy = 2726.82044289857276
    6   -4921.6871104976      1.02e-04  
 Alpha HF Exchange    Energy = -18.92055639525143
 Beta HF Exchange     Energy = -18.92055639525146
 DFT Correlation      Energy =  -5.18629228175896
 DFT Exchange         Energy = -150.60642211137068
 One-Electron (alpha) Energy = -4033.95238276626060
 One-Electron (beta)  Energy = -4033.95238276626424
 Total Coulomb        Energy = 2726.62472402663661
    7   -4921.6872215754      3.06e-05  
 Alpha HF Exchange    Energy = -18.92072360076330
 Beta HF Exchange     Energy = -18.92072360076329
 DFT Correlation      Energy =  -5.18633351762523
 DFT Exchange         Energy = -150.60775914627663
 One-Electron (alpha) Energy = -4033.96701012397216
 One-Electron (beta)  Energy = -4033.96701012397034
 Total Coulomb        Energy = 2726.65568148318289
    8   -4921.6872315161      1.18e-05  
 Alpha HF Exchange    Energy = -18.92075149136056
 Beta HF Exchange     Energy = -18.92075149136052
 DFT Correlation      Energy =  -5.18635240693951
 DFT Exchange         Energy = -150.60798684820608
 One-Electron (alpha) Energy = -4033.97341994948192
 One-Electron (beta)  Energy = -4033.97341994947965
 Total Coulomb        Energy = 2726.66880186944900
    9   -4921.6872331533      1.37e-06  
 Alpha HF Exchange    Energy = -18.92075565046600
 Beta HF Exchange     Energy = -18.92075565046597
 DFT Correlation      Energy =  -5.18635615399134
 DFT Exchange         Energy = -150.60802054338566
 One-Electron (alpha) Energy = -4033.97421448031992
 One-Electron (beta)  Energy = -4033.97421448031855
 Total Coulomb        Energy = 2726.67043666771133
   10   -4921.6872331771      4.63e-07  Convergence criterion met
 ---------------------------------------
 SCF time:   CPU 52.53s  wall 4.00s 
<S^2> =         -0.000000000
 Alpha HF Exchange    Energy = -18.92075565046600
 Beta HF Exchange     Energy = -18.92075565046597
 DFT Correlation      Energy =  -5.18635615399134
 DFT Exchange         Energy = -150.60802054338566
 One-Electron (alpha) Energy = -4033.97421448031992
 One-Electron (beta)  Energy = -4033.97421448031855
 Total Coulomb        Energy = 2726.67043666771133
 Nuclear repulsion Energy = 613.22664711409095
 SCF   energy in the final basis set =    -4921.6872331771
 Total energy in the final basis set =    -4921.6872331771
 
 --------------------------------------------------------------
 
                    Orbital Energies (a.u.)
 --------------------------------------------------------------
 
 Alpha MOs
 -- Occupied --
*******-453.886 -58.091 -58.083 -52.149 -52.148 -52.145 -52.141
-52.139 -52.137 -10.242 -10.213 -10.194  -7.825  -7.819  -5.770
 -5.766  -5.766  -5.761  -5.757  -5.751  -2.104  -2.103  -2.100
 -2.099  -2.095  -2.092  -2.091  -2.091  -2.087  -2.086  -0.849
 -0.768  -0.694  -0.637  -0.582  -0.479  -0.457  -0.445  -0.419
 -0.391  -0.364  -0.358  -0.325  -0.309  -0.234  -0.209
 -- Virtual --
 -0.004   0.028   0.043   0.080   0.102   0.109   0.133   0.147
  0.163   0.172   0.181   0.201   0.213   0.261   0.284   0.294
  0.315   0.320   0.358   0.367   0.447   0.459   0.484   0.515
  0.537   0.551   0.565   0.613   0.635   0.668   0.679   0.687
  0.702   0.749   0.760   0.811   0.839   0.857   0.890   0.892
  0.900   0.921   0.934   0.984   1.044   1.065   1.107   1.122
  1.370   1.386   1.434   1.523   1.613   1.641   1.683   1.766
  1.773   1.812   1.868   1.945   2.029   2.043   2.061   2.077
  2.082   2.084   2.103   2.117   2.122   2.242   2.271   2.294
  2.356   2.446   2.503   2.559   2.595   2.607   2.628   2.664
  2.717   2.737   2.820   2.865   2.884   3.189   3.252   3.312
  3.429   3.445   3.476   4.194   4.276   4.286   4.338   4.349
  4.387   4.391   4.406   4.431   4.464   4.500   4.519   4.627
  5.477   5.490  89.776  89.864
 
 Beta MOs
 -- Occupied --
*******-453.886 -58.091 -58.083 -52.149 -52.148 -52.145 -52.141
-52.139 -52.137 -10.242 -10.213 -10.194  -7.825  -7.819  -5.770
 -5.766  -5.766  -5.761  -5.757  -5.751  -2.104  -2.103  -2.100
 -2.099  -2.095  -2.092  -2.091  -2.091  -2.087  -2.086  -0.849
 -0.768  -0.694  -0.637  -0.582  -0.479  -0.457  -0.445  -0.419
 -0.391  -0.364  -0.358  -0.325  -0.309  -0.234  -0.209
 -- Virtual --
 -0.004   0.028   0.043   0.080   0.102   0.109   0.133   0.147
  0.163   0.172   0.181   0.201   0.213   0.261   0.284   0.294
  0.315   0.320   0.358   0.367   0.447   0.459   0.484   0.515
  0.537   0.551   0.565   0.613   0.635   0.668   0.679   0.687
  0.702   0.749   0.760   0.811   0.839   0.857   0.890   0.892
  0.900   0.921   0.934   0.984   1.044   1.065   1.107   1.122
  1.370   1.386   1.434   1.523   1.613   1.641   1.683   1.766
  1.773   1.812   1.868   1.945   2.029   2.043   2.061   2.077
  2.082   2.084   2.103   2.117   2.122   2.242   2.271   2.294
  2.356   2.446   2.503   2.559   2.595   2.607   2.628   2.664
  2.717   2.737   2.820   2.865   2.884   3.189   3.252   3.312
  3.429   3.445   3.476   4.194   4.276   4.286   4.338   4.349
  4.387   4.391   4.406   4.431   4.464   4.500   4.519   4.627
  5.477   5.490  89.776  89.864
 --------------------------------------------------------------
 
          Ground-State Mulliken Net Atomic Charges

     Atom                 Charge (a.u.)    Spin (a.u.)
  --------------------------------------------------------
      1 Se                   -0.085842      -0.000000
      2 C                    -0.191733       0.000000
      3 C                    -0.190847      -0.000000
      4 C                    -0.303877       0.000000
      5 Se                   -0.059905      -0.000000
      6 H                     0.049105      -0.000000
      7 H                     0.037634      -0.000000
      8 H                     0.128292      -0.000000
      9 H                     0.124362      -0.000000
     10 H                     0.144371       0.000000
     11 H                     0.112183      -0.000000
     12 H                     0.129361      -0.000000
     13 H                     0.106895       0.000000
  --------------------------------------------------------
  Sum of atomic charges =     0.000000
  Sum of spin   charges =    -0.000000

 -----------------------------------------------------------------
                    Cartesian Multipole Moments
 -----------------------------------------------------------------
    Charge (ESU x 10^10)
                 0.0000
    Dipole Moment (Debye)
         X      -0.1941      Y      -2.5358      Z       1.1226
       Tot       2.7799
    Quadrupole Moments (Debye-Ang)
        XX     -59.3064     XY      -0.2716     YY     -56.5081
        XZ       0.8814     YZ      -0.3951     ZZ     -55.0177
    Octopole Moments (Debye-Ang^2)
       XXX      39.8790    XXY      14.9628    XYY       7.5176
       YYY      43.5600    XXZ       8.6843    XYZ      -4.0100
       YYZ      -3.0514    XZZ       4.2733    YZZ      15.8266
       ZZZ      -4.0544
    Hexadecapole Moments (Debye-Ang^3)
      XXXX    -918.3915   XXXY     -11.3579   XXYY    -221.9967
      XYYY     -21.7071   YYYY    -450.2792   XXXZ      -5.0199
      XXYZ       0.3176   XYYZ      -5.7683   YYYZ       5.0244
      XXZZ    -168.0039   XYZZ      -6.5921   YYZZ     -95.2352
      XZZZ     -14.6075   YZZZ       1.3791   ZZZZ    -110.7833
 -----------------------------------------------------------------
 Calculating analytic gradient of the SCF energy
 Gradient of SCF Energy
            1           2           3           4           5           6
    1  -0.1230128   0.1010003   0.0036084  -0.0009476   0.0030305  -0.0014501
    2  -0.1246606   0.1056519   0.0150331  -0.0037741  -0.0040149   0.0004031
    3   0.0423310  -0.0391253  -0.0118544   0.0043392   0.0001148   0.0047153
            7           8           9          10          11          12
    1   0.0020844   0.0069534   0.0062300   0.0013646   0.0005504   0.0006460
    2  -0.0007546   0.0059122   0.0073411  -0.0040766   0.0010297   0.0007940
    3   0.0046966  -0.0030241  -0.0019884   0.0012162  -0.0007071  -0.0005041
           13
    1  -0.0000574
    2   0.0011156
    3  -0.0002098
 Max gradient component =       1.247E-01
 RMS gradient           =       3.791E-02
 Gradient time:  CPU 21.45 s  wall 1.83 s
 Geometry Optimization Parameters
   NAtoms,    NIC,     NZ,  NCons,   NDum,   NFix, NCnnct, MaxDiis
       13      82       0       1       0       0       0       0

 Cartesian Hessian Update
 Hessian Updated using BFGS Update


** CONSTRAINED OPTIMIZATION IN DELOCALIZED INTERNAL COORDINATES **
   Searching for a Minimum

   Optimization Cycle:   3

                       Coordinates (Angstroms)
     ATOM                X               Y               Z
      1  Se        1.7561955332    0.0610880478    0.0082934113
      2  C         0.6296705516   -1.1161407499    0.4523194017
      3  C        -0.6777494381   -1.0030884823   -0.3612480007
      4  C        -1.5943095173   -2.1951736693   -0.0400073720
      5  Se       -1.6397156679    0.7062774332   -0.0287823036
      6  H        -1.8383896543    0.4512264377    1.4245425811
      7  H         2.8561883459   -0.3806018126    0.9121775013
      8  H         1.0485404009   -2.1091631100    0.2648101159
      9  H         0.3957873264   -1.0311352857    1.5164615353
     10  H        -0.4381337594   -1.0067071413   -1.4283418836
     11  H        -1.8617821910   -2.1964954314    1.0196066751
     12  H        -2.5130530301   -2.1424419517   -0.6274935861
     13  H        -1.0852488999   -3.1370442845   -0.2708380757
   Point Group: c1    Number of degrees of freedom:    33


   Energy is  -4921.687233177

              Constraints and their Current Values
                                        Value     Constraint
   Distance(Angs):        1   2             1.688812     1.500000
 Hessian Updated using BFGS Update
**WARNING** Constraint Gradient Reduced for constraint   1

   Using Lagrange Multiplier Algorithm


 31 Hessian modes will be used to form the next step
  Hessian Eigenvalues:
    -0.792784    0.105700    0.106036    0.106103    0.178508    0.182503
     0.187849    0.200280    0.200293    0.202441    0.218440    0.287260
     0.317480    0.335554    0.341138    0.369980    0.377027    0.379023
     0.392057    0.409528    0.477261    0.517504    0.690536    0.693637
     0.818682    0.820231    0.820294    0.820328    0.820402    0.820515
     1.274804

 Minimum Search - Taking P-RFO Step
 Searching for Lamda that Maximizes Along the Constraint modes Only
 Value Taken    Lamda =   0.07520332
 Searching for Lamda that Minimizes Along All other modes
 Value Taken    Lamda =  -0.02771027
 Calculated Step too Large.  Step scaled by  0.865396
 Step Taken.  Stepsize is  0.300000

                             Maximum     Tolerance    Cnvgd?
         Gradient            0.300000       0.000300      NO
         Displacement        0.242447       0.001200      NO
         Energy change      0.026111       0.000001      NO


 New Cartesian Coordinates Obtained by Inverse Iteration

 Displacement from previous Coordinates is:  0.328278
 ----------------------------------------------------------------
             Standard Nuclear Orientation (Angstroms)
    I     Atom           X                Y                Z
 ----------------------------------------------------------------
    1      Se      1.7082666996     0.0121629940     0.0472625826
    2      C       0.6593639939    -1.0723574341     0.4457893577
    3      C      -0.6714974581    -0.9830934991    -0.3476187936
    4      C      -1.5677790832    -2.1903404925    -0.0285569092
    5      Se     -1.6735431610     0.7225492955    -0.0483111320
    6      H      -1.8401396183     0.4540260381     1.3833414360
    7      H       2.8099897097    -0.4654719339     0.8938281944
    8      H       1.0315401269    -2.0845882979     0.2434129238
    9      H       0.4012348661    -1.0286848839     1.5108285549
   10      H      -0.4452031010    -0.9714657686    -1.4193379341
   11      H      -1.8351341735    -2.2072772427     1.0325307555
   12      H      -2.4928203207    -2.1579985285    -0.6088066783
   13      H      -1.0462784805    -3.1268602465    -0.2628623577
 ----------------------------------------------------------------
 Nuclear Repulsion Energy =   620.6188663983 hartrees
 There are       47 alpha and       47 beta electrons

                       Distance Matrix (Angstroms)
             Se(  1)   C (  2)   C (  3)   C (  4)   Se(  5)   H (  6)
   C (  2)  1.560514
   C (  3)  2.609549  1.551985
   C (  4)  3.948322  2.536741  1.537064
   Se(  5)  3.456938  2.984674  2.000724  2.914876
   H (  6)  3.817268  3.075121  2.535204  3.010035  1.466113
   H (  7)  1.469218  2.279087  3.732275  4.794875  4.732979  4.765375
   H (  8)  2.211967  1.097307  2.112569  2.615647  3.909297  3.998818
   H (  9)  2.221198  1.096744  2.146313  2.756115  3.130885  2.690436
   H ( 10)  2.784937  2.170011  1.095411  2.163355  2.501644  3.439896
   H ( 11)  4.295621  2.802647  2.181167  1.094382  3.127014  2.684330
   H ( 12)  4.773799  3.496721  2.183080  1.092445  3.046789  3.349227
   H ( 13)  4.187740  2.762677  2.177930  1.097238  3.906078  4.020317
             H (  7)   H (  8)   H (  9)   H ( 10)   H ( 11)   H ( 12)
   H (  8)  2.491478
   H (  9)  2.549509  1.765944
   H ( 10)  4.025301  2.486876  3.050509
   H ( 11)  4.962892  2.975833  2.572780  3.077466
   H ( 12)  5.765618  3.626677  3.760819  2.501511  1.768889
   H ( 13)  4.826150  2.379070  3.105417  2.518820  1.773688  1.775064

 
 Applying Cartesian multipole field
    Component          Value
    ---------          -----
     (2,0,0)        1.00000E-11
     (0,2,0)        2.00000E-11
     (0,0,2)       -3.00000E-10
 Nucleus-field energy     =     0.0000000032 hartrees
 Requested basis set is 6-31G(d,p)
 There are 52 shells and 155 basis functions
 A cutoff of  1.0D-14 yielded   1263 shell pairs
 There are     11267 function pairs
 Smallest overlap matrix eigenvalue = 6.72E-04
 Guess from superposition of atomic densities
 Warning:  Energy on first SCF cycle will be non-variational
 SAD guess density has 93.936381 electrons

 -----------------------------------------------------------------------
  General SCF calculation program by
  Eric Jon Sundstrom, Paul Horn, Yuezhi Mao, Dmitri Zuev, Alec White,
  David Stuck, Shaama M.S., Shane Yost, Joonho Lee, David Small,
  Daniel Levine, Susi Lehtola, Hugh Burton, Evgeny Epifanovsky
 -----------------------------------------------------------------------
 Exchange:     0.2000 Hartree-Fock + 0.0800 Slater + 0.7200 B88
 Correlation:  0.1900 VWN1RPA + 0.8100 LYP
 Using SG-1 standard quadrature grid
 using 12 threads for integral computing
 -------------------------------------------------------
 OpenMP Integral computing Module                
 Release: version 1.0, May 2013, Q-Chem Inc. Pittsburgh 
 -------------------------------------------------------
 -------------------------------------------------------
 OpenMP BLAS3 based DFT computing Module                
 Release: version 1.0, May 2013, Q-Chem Inc. Pittsburgh 
 -------------------------------------------------------
 A unrestricted SCF calculation will be
 performed using DIIS
 SCF converges when DIIS error is below 1.0e-06
 Alpha HF Exchange    Energy = -18.92793084361222
 Beta HF Exchange     Energy = -18.92793084361222
 DFT Correlation      Energy =  -5.15789725712053
 DFT Exchange         Energy = -150.02032333552518
 One-Electron (alpha) Energy = -4037.82337857593757
 One-Electron (beta)  Energy = -4037.82337857593757
 Total Coulomb        Energy = 2719.50425211921993
 ---------------------------------------
  Cycle       Energy         DIIS error
 ---------------------------------------
    1   -4928.5577209111      1.53e-01  
 Alpha HF Exchange    Energy = -18.99826568388271
 Beta HF Exchange     Energy = -18.99826568388272
 DFT Correlation      Energy =  -5.21386410460676
 DFT Exchange         Energy = -151.23449130154285
 One-Electron (alpha) Energy = -4049.62758921326349
 One-Electron (beta)  Energy = -4049.62758921326440
 Total Coulomb        Energy = 2751.62256926756163
    2   -4921.4586295314      9.48e-03  
 Alpha HF Exchange    Energy = -18.85113644207181
 Beta HF Exchange     Energy = -18.85113644207179
 DFT Correlation      Energy =  -5.16530437759433
 DFT Exchange         Energy = -150.05142031958394
 One-Electron (alpha) Energy = -4031.60036357350964
 One-Electron (beta)  Energy = -4031.60036357350737
 Total Coulomb        Energy = 2714.07652514427173
    3   -4921.4243331826      4.41e-03  
 Alpha HF Exchange    Energy = -18.97682075067342
 Beta HF Exchange     Energy = -18.97682075067344
 DFT Correlation      Energy =  -5.20717701797472
 DFT Exchange         Energy = -151.05537608323735
 One-Electron (alpha) Energy = -4047.16200671463275
 One-Electron (beta)  Energy = -4047.16200671463503
 Total Coulomb        Energy = 2746.40999348479363
    4   -4921.5113481456      3.27e-03  
 Alpha HF Exchange    Energy = -18.93211794294265
 Beta HF Exchange     Energy = -18.93211794294266
 DFT Correlation      Energy =  -5.19116400566810
 DFT Exchange         Energy = -150.69431704601840
 One-Electron (alpha) Energy = -4041.74107703562413
 One-Electron (beta)  Energy = -4041.74107703562595
 Total Coulomb        Energy = 2734.99189227935722
    5   -4921.6211123280      7.01e-04  
 Alpha HF Exchange    Energy = -18.92802811953657
 Beta HF Exchange     Energy = -18.92802811953655
 DFT Correlation      Energy =  -5.19110045120156
 DFT Exchange         Energy = -150.66490461382062
 One-Electron (alpha) Energy = -4041.31029265680172
 One-Electron (beta)  Energy = -4041.31029265679990
 Total Coulomb        Energy = 2734.08711499558422
    6   -4921.6266652206      1.17e-04  
 Alpha HF Exchange    Energy = -18.92728669640872
 Beta HF Exchange     Energy = -18.92728669640872
 DFT Correlation      Energy =  -5.19058985044923
 DFT Exchange         Energy = -150.65830608804112
 One-Electron (alpha) Energy = -4041.20276663542109
 One-Electron (beta)  Energy = -4041.20276663542063
 Total Coulomb        Energy = 2733.86332641265017
    7   -4921.6268097880      3.93e-05  
 Alpha HF Exchange    Energy = -18.92750327570599
 Beta HF Exchange     Energy = -18.92750327570599
 DFT Correlation      Energy =  -5.19064893146890
 DFT Exchange         Energy = -150.66005087967585
 One-Electron (alpha) Energy = -4041.22101783128164
 One-Electron (beta)  Energy = -4041.22101783128210
 Total Coulomb        Energy = 2733.90204914488322
    8   -4921.6268264788      1.23e-05  
 Alpha HF Exchange    Energy = -18.92753828780098
 Beta HF Exchange     Energy = -18.92753828780096
 DFT Correlation      Energy =  -5.19067066961067
 DFT Exchange         Energy = -150.66033405825510
 One-Electron (alpha) Energy = -4041.22930710542778
 One-Electron (beta)  Energy = -4041.22930710542460
 Total Coulomb        Energy = 2733.91900076233787
    9   -4921.6268283505      1.43e-06  
 Alpha HF Exchange    Energy = -18.92754060083279
 Beta HF Exchange     Energy = -18.92754060083277
 DFT Correlation      Energy =  -5.19067443317597
 DFT Exchange         Energy = -150.66035471745150
 One-Electron (alpha) Energy = -4041.22965695879566
 One-Electron (beta)  Energy = -4041.22965695879384
 Total Coulomb        Energy = 2733.91972949288902
   10   -4921.6268283755      5.06e-07  Convergence criterion met
 ---------------------------------------
 SCF time:   CPU 51.24s  wall 4.00s 
<S^2> =         -0.000000000
 Alpha HF Exchange    Energy = -18.92754060083279
 Beta HF Exchange     Energy = -18.92754060083277
 DFT Correlation      Energy =  -5.19067443317597
 DFT Exchange         Energy = -150.66035471745150
 One-Electron (alpha) Energy = -4041.22965695879566
 One-Electron (beta)  Energy = -4041.22965695879384
 Total Coulomb        Energy = 2733.91972949288902
 Nuclear repulsion Energy = 620.61886640146940
 SCF   energy in the final basis set =    -4921.6268283755
 Total energy in the final basis set =    -4921.6268283755
 
 --------------------------------------------------------------
 
                    Orbital Energies (a.u.)
 --------------------------------------------------------------
 
 Alpha MOs
 -- Occupied --
*******-453.883 -58.092 -58.082 -52.149 -52.148 -52.145 -52.139
-52.137 -52.135 -10.244 -10.209 -10.195  -7.825  -7.820  -5.771
 -5.767  -5.767  -5.761  -5.757  -5.752  -2.105  -2.104  -2.103
 -2.100  -2.095  -2.092  -2.092  -2.091  -2.088  -2.087  -0.871
 -0.779  -0.696  -0.637  -0.581  -0.485  -0.470  -0.446  -0.421
 -0.393  -0.365  -0.362  -0.324  -0.306  -0.233  -0.205
 -- Virtual --
 -0.006   0.029   0.049   0.085   0.104   0.111   0.131   0.145
  0.164   0.172   0.177   0.202   0.210   0.262   0.283   0.297
  0.312   0.324   0.364   0.393   0.450   0.459   0.489   0.528
  0.541   0.556   0.563   0.611   0.640   0.670   0.684   0.690
  0.702   0.747   0.751   0.804   0.830   0.857   0.889   0.891
  0.901   0.932   0.942   1.006   1.057   1.072   1.104   1.210
  1.381   1.392   1.450   1.516   1.617   1.653   1.695   1.755
  1.779   1.808   1.863   1.946   2.029   2.042   2.063   2.079
  2.087   2.092   2.111   2.115   2.130   2.256   2.276   2.312
  2.356   2.448   2.494   2.550   2.600   2.616   2.651   2.686
  2.719   2.743   2.814   2.861   2.880   3.180   3.246   3.309
  3.424   3.435   3.474   4.183   4.276   4.288   4.335   4.344
  4.387   4.401   4.408   4.431   4.445   4.498   4.571   4.654
  5.480   5.495  89.794  89.916
 
 Beta MOs
 -- Occupied --
*******-453.883 -58.092 -58.082 -52.149 -52.148 -52.145 -52.139
-52.137 -52.135 -10.244 -10.209 -10.195  -7.825  -7.820  -5.771
 -5.767  -5.767  -5.761  -5.757  -5.752  -2.105  -2.104  -2.103
 -2.100  -2.095  -2.092  -2.092  -2.091  -2.088  -2.087  -0.871
 -0.779  -0.696  -0.637  -0.581  -0.485  -0.470  -0.446  -0.421
 -0.393  -0.365  -0.362  -0.324  -0.306  -0.233  -0.205
 -- Virtual --
 -0.006   0.029   0.049   0.085   0.104   0.111   0.131   0.145
  0.164   0.172   0.177   0.202   0.210   0.262   0.283   0.297
  0.312   0.324   0.364   0.393   0.450   0.459   0.489   0.528
  0.541   0.556   0.563   0.611   0.640   0.670   0.684   0.690
  0.702   0.747   0.751   0.804   0.830   0.857   0.889   0.891
  0.901   0.932   0.942   1.006   1.057   1.072   1.104   1.210
  1.381   1.392   1.450   1.516   1.617   1.653   1.695   1.755
  1.779   1.808   1.863   1.946   2.029   2.042   2.063   2.079
  2.087   2.092   2.111   2.115   2.130   2.256   2.276   2.312
  2.356   2.448   2.494   2.550   2.600   2.616   2.651   2.686
  2.719   2.743   2.814   2.861   2.880   3.180   3.246   3.309
  3.424   3.435   3.474   4.183   4.276   4.288   4.335   4.344
  4.387   4.401   4.408   4.431   4.445   4.498   4.571   4.654
  5.480   5.495  89.794  89.916
 --------------------------------------------------------------
 
          Ground-State Mulliken Net Atomic Charges

     Atom                 Charge (a.u.)    Spin (a.u.)
  --------------------------------------------------------
      1 Se                   -0.093092       0.000000
      2 C                    -0.157871      -0.000000
      3 C                    -0.200529       0.000000
      4 C                    -0.304814      -0.000000
      5 Se                   -0.061879       0.000000
      6 H                     0.051347      -0.000000
      7 H                     0.034169      -0.000000
      8 H                     0.122169      -0.000000
      9 H                     0.116073      -0.000000
     10 H                     0.143823       0.000000
     11 H                     0.112942      -0.000000
     12 H                     0.130126      -0.000000
     13 H                     0.107536       0.000000
  --------------------------------------------------------
  Sum of atomic charges =    -0.000000
  Sum of spin   charges =     0.000000

 -----------------------------------------------------------------
                    Cartesian Multipole Moments
 -----------------------------------------------------------------
    Charge (ESU x 10^10)
                 0.0000
    Dipole Moment (Debye)
         X      -0.2404      Y      -2.6216      Z       1.1172
       Tot       2.8598
    Quadrupole Moments (Debye-Ang)
        XX     -59.2190     XY      -0.5809     YY     -56.3429
        XZ       0.8177     YZ      -0.4100     ZZ     -55.0666
    Octopole Moments (Debye-Ang^2)
       XXX      42.9529    XXY      14.3990    XYY       8.6731
       YYY      44.0098    XXZ       7.8489    XYZ      -3.8948
       YYZ      -3.3469    XZZ       5.5535    YZZ      16.0669
       ZZZ      -5.2931
    Hexadecapole Moments (Debye-Ang^3)
      XXXX    -907.9512   XXXY      -4.8796   XXYY    -218.1101
      XYYY     -11.8743   YYYY    -447.1634   XXXZ     -11.6554
      XXYZ       0.7055   XYYZ      -7.1958   YYYZ       6.4364
      XXZZ    -166.0814   XYZZ      -3.7916   YYZZ     -94.5821
      XZZZ     -19.1968   YZZZ       2.6530   ZZZZ    -109.8935
 -----------------------------------------------------------------
 Calculating analytic gradient of the SCF energy
 Gradient of SCF Energy
            1           2           3           4           5           6
    1  -0.2341415   0.2195025   0.0059905  -0.0006821  -0.0015099   0.0010986
    2  -0.2475112   0.2260982   0.0112114  -0.0021842  -0.0004785  -0.0004069
    3   0.0899578  -0.0813280  -0.0044051   0.0021812   0.0045295  -0.0038169
            7           8           9          10          11          12
    1  -0.0056241   0.0078349   0.0074975   0.0004600  -0.0000917  -0.0003069
    2  -0.0001296   0.0067645   0.0088945  -0.0020393   0.0003073  -0.0002500
    3  -0.0002585  -0.0041561  -0.0024112   0.0001703  -0.0001267  -0.0001558
           13
    1  -0.0000279
    2  -0.0002761
    3  -0.0001805
 Max gradient component =       2.475E-01
 RMS gradient           =       7.690E-02
 Gradient time:  CPU 21.54 s  wall 1.84 s
 Geometry Optimization Parameters
   NAtoms,    NIC,     NZ,  NCons,   NDum,   NFix, NCnnct, MaxDiis
       13      82       0       1       0       0       0       0

 Cartesian Hessian Update
 Hessian Updated using BFGS Update


** CONSTRAINED OPTIMIZATION IN DELOCALIZED INTERNAL COORDINATES **
   Searching for a Minimum

   Optimization Cycle:   4

                       Coordinates (Angstroms)
     ATOM                X               Y               Z
      1  Se        1.7082666996    0.0121629940    0.0472625826
      2  C         0.6593639939   -1.0723574341    0.4457893577
      3  C        -0.6714974581   -0.9830934991   -0.3476187936
      4  C        -1.5677790832   -2.1903404925   -0.0285569092
      5  Se       -1.6735431610    0.7225492955   -0.0483111320
      6  H        -1.8401396183    0.4540260381    1.3833414360
      7  H         2.8099897097   -0.4654719339    0.8938281944
      8  H         1.0315401269   -2.0845882979    0.2434129238
      9  H         0.4012348661   -1.0286848839    1.5108285549
     10  H        -0.4452031010   -0.9714657686   -1.4193379341
     11  H        -1.8351341735   -2.2072772427    1.0325307555
     12  H        -2.4928203207   -2.1579985285   -0.6088066783
     13  H        -1.0462784805   -3.1268602465   -0.2628623577
   Point Group: c1    Number of degrees of freedom:    33


   Energy is  -4921.626828376

              Constraints and their Current Values
                                        Value     Constraint
   Distance(Angs):        1   2             1.560514     1.500000
 Hessian Updated using BFGS Update

   Using Lagrange Multiplier Algorithm


 33 Hessian modes will be used to form the next step
  Hessian Eigenvalues:
    -0.680017    0.105572    0.106035    0.106038    0.106092    0.176601
     0.182432    0.187841    0.200265    0.200293    0.200643    0.218450
     0.284495    0.321692    0.335527    0.341143    0.370646    0.377015
     0.377034    0.378597    0.391958    0.409562    0.477268    0.517106
     0.690219    0.693336    0.818112    0.820226    0.820283    0.820329
     0.820368    0.820403    1.498136

 Minimum Search - Taking P-RFO Step
 Searching for Lamda that Maximizes Along the Constraint modes Only
 Value Taken    Lamda =   0.02515247
 Searching for Lamda that Minimizes Along All other modes
 Value Taken    Lamda =  -0.00421578
 Step Taken.  Stepsize is  0.186466

                             Maximum     Tolerance    Cnvgd?
         Gradient            0.114356       0.000300      NO
         Displacement        0.139431       0.001200      NO
         Energy change      0.060405       0.000001      NO


 New Cartesian Coordinates Obtained by Inverse Iteration

 Displacement from previous Coordinates is:  0.158453
 ----------------------------------------------------------------
             Standard Nuclear Orientation (Angstroms)
    I     Atom           X                Y                Z
 ----------------------------------------------------------------
    1      Se      1.6878728969    -0.0063211249     0.0718845273
    2      C       0.6762013874    -1.0528036707     0.4429930283
    3      C      -0.6675389601    -0.9793276060    -0.3410791710
    4      C      -1.5544579832    -2.1904621345    -0.0243317474
    5      Se     -1.6822835194     0.7268252534    -0.0592646111
    6      H      -1.8506832168     0.4757796138     1.3762712759
    7      H       2.8274248363    -0.4781498768     0.8752638358
    8      H       1.0001849924    -2.0843673820     0.2364853909
    9      H       0.3786669027    -1.0498784536     1.5031712658
   10      H      -0.4469388256    -0.9583985211    -1.4144851135
[...]
 There are       47 alpha and       47 beta electrons

                       Distance Matrix (Angstroms)
             Se(  1)   C (  2)   C (  3)   C (  4)   Se(  5)   H (  6)
   C (  2)  1.500000
   C (  3)  2.592324  1.570386
   C (  4)  3.921702  2.561599  1.527418
   Se(  5)  3.405599  2.999374  2.005216  2.924222
   H (  6)  3.750754  3.124024  2.572896  3.073026  1.474935
   H (  7)  1.482855  2.299813  3.768682  4.836404  4.782010  4.855726
   H (  8)  2.230238  1.107018  2.074294  2.573069  3.891449  4.036298
   H (  9)  2.247383  1.111216  2.109043  2.650223  3.178979  2.766588
   H ( 10)  2.797317  2.181762  1.095855  2.163818  2.472813  3.452096
   H ( 11)  4.251909  2.828976  2.177332  1.094694  3.159764  2.773039
   H ( 12)  4.745960  3.515822  2.169138  1.091606  3.037609  3.388123
   H ( 13)  4.183822  2.793883  2.170344  1.097132  3.912478  4.089416
             H (  7)   H (  8)   H (  9)   H ( 10)   H ( 11)   H ( 12)
   H (  8)  2.556815
   H (  9)  2.715392  1.719843
   H ( 10)  4.033578  2.452669  3.026213
   H ( 11)  5.024194  2.944059  2.458363  3.080158
   H ( 12)  5.798381  3.580602  3.661979  2.495858  1.768517
   H ( 13)  4.864024  2.342314  2.990675  2.522228  1.772060  1.775441

 
 Applying Cartesian multipole field
    Component          Value
    ---------          -----
     (2,0,0)        1.00000E-11
     (0,2,0)        2.00000E-11
     (0,0,2)       -3.00000E-10
 Nucleus-field energy     =     0.0000000025 hartrees
 Requested basis set is 6-31G(d,p)
 There are 52 shells and 155 basis functions
 A cutoff of  1.0D-14 yielded   1263 shell pairs
 There are     11262 function pairs
 Smallest overlap matrix eigenvalue = 6.72E-04
 Guess from superposition of atomic densities
 Warning:  Energy on first SCF cycle will be non-variational
 SAD guess density has 93.936381 electrons

 -----------------------------------------------------------------------
  General SCF calculation program by
  Eric Jon Sundstrom, Paul Horn, Yuezhi Mao, Dmitri Zuev, Alec White,
  David Stuck, Shaama M.S., Shane Yost, Joonho Lee, David Small,
  Daniel Levine, Susi Lehtola, Hugh Burton, Evgeny Epifanovsky
 -----------------------------------------------------------------------
 Exchange:     0.2000 Hartree-Fock + 0.0800 Slater + 0.7200 B88
 Correlation:  0.1900 VWN1RPA + 0.8100 LYP
 Using SG-1 standard quadrature grid
 using 12 threads for integral computing
 -------------------------------------------------------
 OpenMP Integral computing Module                
 Release: version 1.0, May 2013, Q-Chem Inc. Pittsburgh 
 -------------------------------------------------------
 -------------------------------------------------------
 OpenMP BLAS3 based DFT computing Module                
 Release: version 1.0, May 2013, Q-Chem Inc. Pittsburgh 
 -------------------------------------------------------
 A unrestricted SCF calculation will be
 performed using DIIS
 SCF converges when DIIS error is below 1.0e-06
 Alpha HF Exchange    Energy = -18.93368409491310
 Beta HF Exchange     Energy = -18.93368409491310
 DFT Correlation      Energy =  -5.15905567721338
 DFT Exchange         Energy = -150.03437968035058
 One-Electron (alpha) Energy = -4042.76090816794522
 One-Electron (beta)  Energy = -4042.76090816794522
 Total Coulomb        Energy = 2724.28309215793888
 ---------------------------------------
  Cycle       Energy         DIIS error
 ---------------------------------------
    1   -4928.6552588551      1.54e-01  
 Alpha HF Exchange    Energy = -19.00012138781575
 Beta HF Exchange     Energy = -19.00012138781577
 DFT Correlation      Energy =  -5.21546653231396
 DFT Exchange         Energy = -151.25332701977607
 One-Electron (alpha) Energy = -4054.77384066637978
 One-Electron (beta)  Energy = -4054.77384066638069
 Total Coulomb        Energy = 2756.96579499241489
    2   -4921.4066537978      9.52e-03  
 Alpha HF Exchange    Energy = -18.85033574689622
 Beta HF Exchange     Energy = -18.85033574689622
 DFT Correlation      Energy =  -5.16555698023138
 DFT Exchange         Energy = -150.04851055207649
 One-Electron (alpha) Energy = -4036.01541201586451
 One-Electron (beta)  Energy = -4036.01541201586451
 Total Coulomb        Energy = 2717.94246811001494
    3   -4921.3588260776      4.62e-03  
 Alpha HF Exchange    Energy = -18.97863256398825
 Beta HF Exchange     Energy = -18.97863256398824
 DFT Correlation      Energy =  -5.20873281982298
 DFT Exchange         Energy = -151.07389361945192
 One-Electron (alpha) Energy = -4052.36834463144851
 One-Electron (beta)  Energy = -4052.36834463144760
 Total Coulomb        Energy = 2751.87208776164243
    4   -4921.4602241983      3.38e-03  
 Alpha HF Exchange    Energy = -18.93336831060988
 Beta HF Exchange     Energy = -18.93336831060988
 DFT Correlation      Energy =  -5.19245398521355
 DFT Exchange         Energy = -150.70830507088021
 One-Electron (alpha) Energy = -4046.66789435869941
 One-Electron (beta)  Energy = -4046.66789435869987
 Total Coulomb        Energy = 2739.88080473574792
    5   -4921.5782107887      6.98e-04  
 Alpha HF Exchange    Energy = -18.92910921111890
 Beta HF Exchange     Energy = -18.92910921111890
 DFT Correlation      Energy =  -5.19231088049626
 DFT Exchange         Energy = -150.67756997867153
 One-Electron (alpha) Energy = -4046.23383361811511
 One-Electron (beta)  Energy = -4046.23383361811557
 Total Coulomb        Energy = 2738.96786710175547
    6   -4921.5836305457      1.34e-04  
 Alpha HF Exchange    Energy = -18.92836657843126
 Beta HF Exchange     Energy = -18.92836657843123
 DFT Correlation      Energy =  -5.19175742962529
 DFT Exchange         Energy = -150.67084054171633
 One-Electron (alpha) Energy = -4046.12843639184848
 One-Electron (beta)  Energy = -4046.12843639184530
 Total Coulomb        Energy = 2738.74812076611852
    7   -4921.5838142756      4.87e-05  
 Alpha HF Exchange    Energy = -18.92861375552827
 Beta HF Exchange     Energy = -18.92861375552826
 DFT Correlation      Energy =  -5.19183932182483
 DFT Exchange         Energy = -150.67286551064461
 One-Electron (alpha) Energy = -4046.14582702838879
 One-Electron (beta)  Energy = -4046.14582702838925
 Total Coulomb        Energy = 2738.78547707036796
    8   -4921.5838404597      1.31e-05  
 Alpha HF Exchange    Energy = -18.92865833596788
 Beta HF Exchange     Energy = -18.92865833596790
 DFT Correlation      Energy =  -5.19186327619586
 DFT Exchange         Energy = -150.67322210858643
 One-Electron (alpha) Energy = -4046.15616557775729
 One-Electron (beta)  Energy = -4046.15616557775684
 Total Coulomb        Energy = 2738.80662164585647
    9   -4921.5838426962      1.49e-06  
 Alpha HF Exchange    Energy = -18.92866027537820
 Beta HF Exchange     Energy = -18.92866027537822
 DFT Correlation      Energy =  -5.19186732967250
 DFT Exchange         Energy = -150.67323996052150
 One-Electron (alpha) Energy = -4046.15654193780256
 One-Electron (beta)  Energy = -4046.15654193780392
 Total Coulomb        Energy = 2738.80740012266870
   10   -4921.5838427237      5.39e-07  Convergence criterion met
 ---------------------------------------
 SCF time:   CPU 52.88s  wall 5.00s 
<S^2> =         -0.000000000
 Alpha HF Exchange    Energy = -18.92866027537820
 Beta HF Exchange     Energy = -18.92866027537822
 DFT Correlation      Energy =  -5.19186732967250
 DFT Exchange         Energy = -150.67323996052150
 One-Electron (alpha) Energy = -4046.15654193780256
 One-Electron (beta)  Energy = -4046.15654193780392
 Total Coulomb        Energy = 2738.80740012266870
 Nuclear repulsion Energy = 625.64426887022535
 SCF   energy in the final basis set =    -4921.5838427237
 Total energy in the final basis set =    -4921.5838427237
 
 --------------------------------------------------------------
 
                    Orbital Energies (a.u.)
 --------------------------------------------------------------
 
 Alpha MOs
 -- Occupied --
*******-453.883 -58.091 -58.083 -52.149 -52.148 -52.145 -52.141
-52.139 -52.137 -10.246 -10.210 -10.196  -7.825  -7.823  -5.770
 -5.770  -5.766  -5.764  -5.756  -5.755  -2.107  -2.104  -2.103
 -2.103  -2.095  -2.095  -2.092  -2.091  -2.091  -2.090  -0.879
 -0.783  -0.696  -0.638  -0.580  -0.486  -0.474  -0.444  -0.421
 -0.396  -0.373  -0.360  -0.323  -0.300  -0.233  -0.205
 -- Virtual --
 -0.005   0.029   0.047   0.084   0.099   0.108   0.132   0.146
  0.166   0.171   0.173   0.202   0.213   0.256   0.283   0.302
  0.312   0.326   0.367   0.411   0.452   0.468   0.491   0.537
  0.540   0.561   0.566   0.609   0.644   0.671   0.686   0.690
  0.705   0.741   0.745   0.798   0.826   0.862   0.879   0.890
  0.903   0.932   0.939   1.009   1.050   1.064   1.108   1.264
  1.387   1.403   1.435   1.515   1.606   1.663   1.696   1.750
  1.787   1.809   1.867   1.944   2.025   2.038   2.062   2.077
  2.083   2.094   2.114   2.116   2.131   2.251   2.266   2.319
  2.360   2.443   2.473   2.529   2.598   2.610   2.643   2.692
  2.719   2.751   2.801   2.859   2.879   3.172   3.231   3.305
  3.406   3.430   3.472   4.177   4.274   4.283   4.346   4.347
  4.381   4.401   4.409   4.429   4.451   4.499   4.586   4.692
  5.481   5.493  89.798  89.931
 
 Beta MOs
 -- Occupied --
*******-453.883 -58.091 -58.083 -52.149 -52.148 -52.145 -52.141
-52.139 -52.137 -10.246 -10.210 -10.196  -7.825  -7.823  -5.770
 -5.770  -5.766  -5.764  -5.756  -5.755  -2.107  -2.104  -2.103
 -2.103  -2.095  -2.095  -2.092  -2.091  -2.091  -2.090  -0.879
 -0.783  -0.696  -0.638  -0.580  -0.486  -0.474  -0.444  -0.421
 -0.396  -0.373  -0.360  -0.323  -0.300  -0.233  -0.205
 -- Virtual --
 -0.005   0.029   0.047   0.084   0.099   0.108   0.132   0.146
  0.166   0.171   0.173   0.202   0.213   0.256   0.283   0.302
  0.312   0.326   0.367   0.411   0.452   0.468   0.491   0.537
  0.540   0.561   0.566   0.609   0.644   0.671   0.686   0.690
  0.705   0.741   0.745   0.798   0.826   0.862   0.879   0.890
  0.903   0.932   0.939   1.009   1.050   1.064   1.108   1.264
  1.387   1.403   1.435   1.515   1.606   1.663   1.696   1.750
  1.787   1.809   1.867   1.944   2.025   2.038   2.062   2.077
  2.083   2.094   2.114   2.116   2.131   2.251   2.266   2.319
  2.360   2.443   2.473   2.529   2.598   2.610   2.643   2.692
  2.719   2.751   2.801   2.859   2.879   3.172   3.231   3.305
  3.406   3.430   3.472   4.177   4.274   4.283   4.346   4.347
  4.381   4.401   4.409   4.429   4.451   4.499   4.586   4.692
  5.481   5.493  89.798  89.931
 --------------------------------------------------------------
 
          Ground-State Mulliken Net Atomic Charges

     Atom                 Charge (a.u.)    Spin (a.u.)
  --------------------------------------------------------
      1 Se                   -0.078644      -0.000000
      2 C                    -0.149379      -0.000000
      3 C                    -0.201422       0.000000
      4 C                    -0.307068      -0.000000
      5 Se                   -0.067699      -0.000000
      6 H                     0.052049       0.000000
      7 H                     0.031097      -0.000000
      8 H                     0.117007       0.000000
      9 H                     0.102235       0.000000
     10 H                     0.144531      -0.000000
     11 H                     0.115643       0.000000
     12 H                     0.132782       0.000000
     13 H                     0.108868       0.000000
  --------------------------------------------------------
  Sum of atomic charges =    -0.000000
  Sum of spin   charges =    -0.000000

 -----------------------------------------------------------------
                    Cartesian Multipole Moments
 -----------------------------------------------------------------
    Charge (ESU x 10^10)
                -0.0000
    Dipole Moment (Debye)
         X      -0.1815      Y      -2.7126      Z       0.9593
       Tot       2.8830
    Quadrupole Moments (Debye-Ang)
        XX     -58.6480     XY      -0.6469     YY     -56.0203
        XZ       0.3453     YZ      -0.1978     ZZ     -55.5397
    Octopole Moments (Debye-Ang^2)
       XXX      46.4390    XXY      13.1530    XYY       9.0985
       YYY      41.8595    XXZ       5.9354    XYZ      -3.6229
       YYZ      -4.0486    XZZ       5.8994    YZZ      15.1916
       ZZZ      -9.0885
    Hexadecapole Moments (Debye-Ang^3)
      XXXX    -883.6686   XXXY      -8.1275   XXYY    -214.4513
      XYYY     -12.6158   YYYY    -448.4267   XXXZ     -24.2738
      XXYZ       2.5594   XYYZ     -11.1244   YYYZ       8.2538
      XXZZ    -163.9366   XYZZ      -4.7319   YYZZ     -95.2530
      XZZZ     -30.8690   YZZZ       4.8648   ZZZZ    -112.8884
 -----------------------------------------------------------------
 Calculating analytic gradient of the SCF energy
 Gradient of SCF Energy
            1           2           3           4           5           6
    1  -0.2996913   0.2997140   0.0002143  -0.0002331  -0.0000837   0.0000825
    2  -0.3366077   0.3366593   0.0002083  -0.0000233   0.0000078   0.0000179
    3   0.0989270  -0.0988130  -0.0001911  -0.0000639   0.0001053   0.0000118
            7           8           9          10          11          12
    1   0.0000099   0.0000042   0.0000435  -0.0000875   0.0000356   0.0000115
    2  -0.0000682  -0.0001050  -0.0000400  -0.0000856  -0.0000131   0.0000603
    3  -0.0001237  -0.0000063   0.0000078  -0.0000293   0.0000561   0.0000617
           13
    1  -0.0000200
    2  -0.0000106
    3   0.0000576
 Max gradient component =       3.367E-01
 RMS gradient           =       1.045E-01
 Gradient time:  CPU 21.56 s  wall 1.89 s
 Geometry Optimization Parameters
   NAtoms,    NIC,     NZ,  NCons,   NDum,   NFix, NCnnct, MaxDiis
       13      82       0       1       0       0       0       0

 Cartesian Hessian Update
 Hessian Updated using BFGS Update


** CONSTRAINED OPTIMIZATION IN DELOCALIZED INTERNAL COORDINATES **
   Searching for a Minimum

   Optimization Cycle:  18

                       Coordinates (Angstroms)
     ATOM                X               Y               Z
      1  Se        1.6598798934    0.0435868587    0.1333879555
      2  C         0.6856740075   -1.0506350493    0.4552595545
      3  C        -0.6687699452   -0.9936550849   -0.3374230591
      4  C        -1.5562639524   -2.1953597669   -0.0191990395
      5  Se       -1.6693959677    0.7258903111   -0.0868153553
      6  H        -1.8491724978    0.5329163457    1.3643479338
      7  H         2.8750539258   -0.4510725036    0.8244194698
      8  H         1.0029168738   -2.0857577260    0.2242449606
      9  H         0.3416678470   -1.1504822763    1.5071588965
     10  H        -0.4436634511   -0.9660752973   -1.4095544185
     11  H        -1.8219116282   -2.2212416443    1.0424579306
     12  H        -2.4814762152   -2.1563175307   -0.5971800222
     13  H        -1.0365388899   -3.1311966361   -0.2596048067
   Point Group: c1    Number of degrees of freedom:    33


   Energy is  -4921.583842724

              Constraints and their Current Values
                                        Value     Constraint
   Distance(Angs):        1   2             1.500000     1.500000
 Hessian Updated using BFGS Update

 32 Hessian modes will be used to form the next step
  Hessian Eigenvalues:
     0.005483    0.008248    0.079905    0.105497    0.108190    0.119299
     0.181097    0.186059    0.197711    0.200277    0.205565    0.264594
     0.298800    0.330930    0.340789    0.362499    0.371093    0.376403
     0.376981    0.383113    0.390028    0.402442    0.471450    0.506559
     0.624658    0.701251    0.799536    0.814293    0.818724    0.819679
     0.820252    0.820762

 Minimum Search - Taking Simple RFO Step
 Searching for Lamda that Minimizes Along All modes
 Value Taken    Lamda =   0.00000000
 Step Taken.  Stepsize is  0.007609

                             Maximum     Tolerance    Cnvgd?
         Gradient           0.000189      0.000300     YES
         Displacement       0.003993      0.001200      NO
         Energy change     -0.000001      0.000001     YES


                       Distance Matrix (Angstroms)
             Se(  1)   C (  2)   C (  3)   C (  4)   Se(  5)   H (  6)
   C (  2)  1.500000
   C (  3)  2.592324  1.570386
   C (  4)  3.921702  2.561599  1.527418
   Se(  5)  3.405599  2.999374  2.005216  2.924222
   H (  6)  3.750754  3.124024  2.572896  3.073026  1.474935
   H (  7)  1.482855  2.299813  3.768682  4.836404  4.782010  4.855726
   H (  8)  2.230238  1.107018  2.074294  2.573069  3.891449  4.036298
   H (  9)  2.247383  1.111216  2.109043  2.650223  3.178979  2.766588
   H ( 10)  2.797317  2.181762  1.095855  2.163818  2.472813  3.452096
   H ( 11)  4.251909  2.828976  2.177332  1.094694  3.159764  2.773039
   H ( 12)  4.745960  3.515822  2.169138  1.091606  3.037609  3.388123
   H ( 13)  4.183822  2.793883  2.170344  1.097132  3.912478  4.089416
             H (  7)   H (  8)   H (  9)   H ( 10)   H ( 11)   H ( 12)
   H (  8)  2.556815
   H (  9)  2.715392  1.719843
   H ( 10)  4.033578  2.452669  3.026213
   H ( 11)  5.024194  2.944059  2.458363  3.080158
   H ( 12)  5.798381  3.580602  3.661979  2.495858  1.768517
   H ( 13)  4.864024  2.342314  2.990675  2.522228  1.772060  1.775441

 
 Final energy is   -4921.58384272366     


 ******************************
 **  OPTIMIZATION CONVERGED  **
 ******************************

                       Coordinates (Angstroms)
     ATOM                X               Y               Z
      1  Se        1.6598798934    0.0435868587    0.1333879555
      2  C         0.6856740075   -1.0506350493    0.4552595545
      3  C        -0.6687699452   -0.9936550849   -0.3374230591
      4  C        -1.5562639524   -2.1953597669   -0.0191990395
      5  Se       -1.6693959677    0.7258903111   -0.0868153553
      6  H        -1.8491724978    0.5329163457    1.3643479338
      7  H         2.8750539258   -0.4510725036    0.8244194698
      8  H         1.0029168738   -2.0857577260    0.2242449606
      9  H         0.3416678470   -1.1504822763    1.5071588965
     10  H        -0.4436634511   -0.9660752973   -1.4095544185
     11  H        -1.8219116282   -2.2212416443    1.0424579306
     12  H        -2.4814762152   -2.1563175307   -0.5971800222
     13  H        -1.0365388899   -3.1311966361   -0.2596048067

Z-matrix Print:
$molecule
0 1
Se
H  1 1.482855
C  1 1.500000 2 100.887864
H  3 1.107018 1 116.820970 2 -52.396941 0
H  3 1.111216 1 118.017038 2 69.320233 0
C  3 1.570386 1 115.174735 2 -169.478601 0
H  6 1.095855 3 108.516948 1 54.625883 0
C  6 1.527418 3 111.557373 1 176.041025 0
H  8 1.091606 6 110.733552 3 -178.462038 0
H  8 1.094694 6 111.201900 3 61.482277 0
H  8 1.097132 6 110.499022 3 -58.313951 0
Se 6 2.005216 3 113.479626 1 -57.653378 0
H  12 1.474935 6 94.105361 3 -62.334124 0
$end

PES scan, value:    1.5000 energy: -4921.5838427237
------- Summary of potential scan: ------ 
    1.5000     -4921.5838427237
----------------------------------------- 
Archival summary:
1\1\hpc0248\JobtypUnspecified\ProcedureUnspecified\6-31G**\e238\knomura\ThuMar1405:47:212019ThuMar1405:47:212019\0\\#,JobtypUnspecified,ProcedureUnspecified,6-31G**,\\0,1\Se\H,1,1.48286\C,1,1.5,2,100.888\H,3,1.10702,1,116.821,2,-52.3969,0\H,3,1.11122,1,118.017,2,69.3202,0\C,3,1.57039,1,115.175,2,-169.479,0\H,6,1.09586,3,108.517,1,54.6259,0\C,6,1.52742,3,111.557,1,176.041,0\H,8,1.09161,6,110.734,3,-178.462,0\H,8,1.09469,6,111.202,3,61.4823,0\H,8,1.09713,6,110.499,3,-58.314,0\Se,6,2.00522,3,113.48,1,-57.6534,0\H,12,1.47494,6,94.1054,3,-62.3341,0\\\@

 Total job time:  127.91s(wall), 1438.51s(cpu) 
 Thu Mar 14 05:47:21 2019

        *************************************************************
        *                                                           *
        *  Thank you very much for using Q-Chem.  Have a nice day.  *
        *                                                           *
        *************************************************************


