
Running Job 1 of 1 selenium/03/C-Se.xyz.data/inputs/bond_triplet_4.0.in
qchem selenium/03/C-Se.xyz.data/inputs/bond_triplet_4.0.in_12814.0 /staging/scratch/2868765/qchem12814/ 1
/usr/usc/qchem/5.1.1/exe/qcprog.exe_s selenium/03/C-Se.xyz.data/inputs/bond_triplet_4.0.in_12814.0 /staging/scratch/2868765/qchem12814/
Check license passed

                  Welcome to Q-Chem
     A Quantum Leap Into The Future Of Chemistry


 Q-Chem 5.1, Q-Chem, Inc., Pleasanton, CA (2018)

 Yihan Shao,  Zhengting Gan,  E. Epifanovsky,  A. T. B. Gilbert,  M. Wormit,  
 J. Kussmann,  A. W. Lange,  A. Behn,  Jia Deng,  Xintian Feng,  D. Ghosh,  
 M. Goldey,  P. R. Horn,  L. D. Jacobson,  I. Kaliman,  T. Kus,  A. Landau,  
 Jie Liu,  E. I. Proynov,  R. M. Richard,  R. P. Steele,  E. J. Sundstrom,  
 H. L. Woodcock III,  P. M. Zimmerman,  D. Zuev,  B. Albrecht,  E. Alguire,  
 S. A. Baeppler,  D. Barton,  Z. Benda,  Y. A. Bernard,  E. J. Berquist,  
 K. B. Bravaya,  H. Burton,  D. Casanova,  Chun-Min Chang,  Yunqing Chen,  
 A. Chien,  K. D. Closser,  M. P. Coons,  S. Coriani,  S. Dasgupta,  
 A. L. Dempwolff,  M. Diedenhofen,  Hainam Do,  R. G. Edgar,  Po-Tung Fang,  
 S. Faraji,  S. Fatehi,  Qingguo Feng,  K. D. Fenk,  J. Fosso-Tande,  
 Qinghui Ge,  A. Ghysels,  G. Gidofalvi,  J. Gomes,  J. Gonthier,  A. Gunina,  
 D. Hait,  M. W. D. Hanson-Heine,  P. H. P. Harbach,  A. W. Hauser,  
 J. E. Herr,  E. G. Hohenstein,  Z. C. Holden,  Kerwin Hui,  B. C. Huynh,  
 T.-C. Jagau,  Hyunjun Ji,  B. Kaduk,  K. Khistyaev,  Jaehoon Kim,  
 P. Klunzinger,  K. Koh,  D. Kosenkov,  L. Koulias,  T. Kowalczyk,  
 C. M. Krauter,  A. Kunitsa,  Ka Un Lao,  A. Laurent,  K. V. Lawler,  
 Joonho Lee,  D. Lefrancois,  S. Lehtola,  D. S. Levine,  Yi-Pei Li,  
 You-Sheng Lin,  Fenglai Liu,  E. Livshits,  A. Luenser,  P. Manohar,  
 E. Mansoor,  S. F. Manzer,  Shan-Ping Mao,  Yuezhi Mao,  N. Mardirossian,  
 A. V. Marenich,  T. Markovich,  L. A. Martinez-Martinez,  S. A. Maurer,  
 N. J. Mayhall,  S. C. McKenzie,  J.-M. Mewes,  A. F. Morrison,  
 J. W. Mullinax,  K. Nanda,  T. S. Nguyen-Beck,  R. Olivares-Amaya,  
 J. A. Parkhill,  T. M. Perrine,  F. Plasser,  P. Pokhilko,  S. Prager,  
 A. Prociuk,  E. Ramos,  D. R. Rehn,  F. Rob,  M. Schneider,  N. Sergueev,  
 S. M. Sharada,  S. Sharma,  D. W. Small,  T. Stauch,  T. Stein,  
 Yu-Chuan Su,  A. J. W. Thom,  A. Tkatchenko,  T. Tsuchimochi,  N. M. Tubman,  
 L. Vogt,  M. L. Vidal,  O. Vydrov,  M. A. Watson,  J. Wenzel,  
 M. de Wergifosse,  T. A. Wesolowski,  A. White,  J. Witte,  A. Yamada,  
 Jun Yang,  K. Yao,  S. Yeganeh,  S. R. Yost,  Zhi-Qiang You,  A. Zech,  
 Igor Ying Zhang,  Xing Zhang,  Yan Zhao,  Ying Zhu,  B. R. Brooks,  
 G. K. L. Chan,  C. J. Cramer,  M. S. Gordon,  W. J. Hehre,  A. Klamt,  
 M. W. Schmidt,  C. D. Sherrill,  D. G. Truhlar,  A. Aspuru-Guzik,  R. Baer,  
 A. T. Bell,  N. A. Besley,  Jeng-Da Chai,  A. E. DePrince, III,  
 R. A. DiStasio Jr.,  A. Dreuw,  B. D. Dunietz,  T. R. Furlani,  
 Chao-Ping Hsu,  Yousung Jung,  Jing Kong,  D. S. Lambrecht,  WanZhen Liang,  
 C. Ochsenfeld,  V. A. Rassolov,  L. V. Slipchenko,  J. E. Subotnik,  
 T. Van Voorhis,  J. M. Herbert,  A. I. Krylov,  P. M. W. Gill,  M. Head-Gordon

 Contributors to earlier versions of Q-Chem not listed above: 
 R. D. Adamson,  B. Austin,  J. Baker,  G. J. O. Beran,  K. Brandhorst,  
 S. T. Brown,  E. F. C. Byrd,  A. K. Chakraborty,  C.-L. Cheng,  
 Siu Hung Chien,  D. M. Chipman,  D. L. Crittenden,  H. Dachsel,  
 R. J. Doerksen,  A. D. Dutoi,  L. Fusti-Molnar,  W. A. Goddard III,  
 A. Golubeva-Zadorozhnaya,  S. R. Gwaltney,  G. Hawkins,  A. Heyden,  
 S. Hirata,  G. Kedziora,  F. J. Keil,  C. Kelley,  Jihan Kim,  R. A. King,  
 R. Z. Khaliullin,  P. P. Korambath,  W. Kurlancheek,  A. M. Lee,  M. S. Lee,  
 S. V. Levchenko,  Ching Yeh Lin,  D. Liotard,  R. C. Lochan,  I. Lotan,  
 P. E. Maslen,  N. Nair,  D. P. O'Neill,  D. Neuhauser,  E. Neuscamman,  
 C. M. Oana,  R. Olson,  B. Peters,  R. Peverati,  P. A. Pieniazek,  
 Y. M. Rhee,  J. Ritchie,  M. A. Rohrdanz,  E. Rosta,  N. J. Russ,  
 H. F. Schaefer III,  N. E. Schultz,  N. Shenvi,  A. C. Simmonett,  A. Sodt,  
 D. Stuck,  K. S. Thanthiriwatte,  V. Vanovschi,  Tao Wang,  A. Warshel,  
 C. F. Williams,  Q. Wu,  X. Xu,  W. Zhang

 Please cite Q-Chem as follows:
 Y. Shao et al., Mol. Phys. 113, 184-215 (2015)
 DOI: 10.1080/00268976.2014.952696

 Q-Chem 5.1.1 for Intel X86 EM64T Linux

 Parts of Q-Chem use Armadillo 8.300.2 (Tropical Shenanigans).
 http://arma.sourceforge.net/

 Q-Chem begins on Thu Mar 14 09:36:16 2019  

Host: 
0

     Scratch files written to /staging/scratch/2868765/qchem12814//
 Aug318 |scratch|qcdevops|jenkins|workspace|build_RNUM 6013   
Processing $rem in /usr/usc/qchem/5.1.1/config/preferences.
 MEM_TOTAL  2000 
Input Ideriv = 2
Curr. Ideriv = -1
Max.  Ideriv = 2

Checking the input file for inconsistencies... 	...done.

--------------------------------------------------------------
User input:
--------------------------------------------------------------

$comment
potential surface scanner
$end

$rem
JOBTYPE  PES_SCAN
UNRESTRICTED TRUE
SYM_IGNORE  TRUE
GEOM_OPT_MAX_CYCLES 400
SCF_MAX_CYCLES 400
METHOD   B3LYP
BASIS   6-31G**
PDB_PRINT 2
SCF_CONVERGENCE 6
THRESH 14
SCF_PRINT 1
$end
$molecule
0 3
Se 3.269070 1.056246 0.709668
C 0.462551 -1.891744 0.216912
C -0.790885 -1.495195 -0.400169
C -2.058138 -2.055094 0.236506
Se -0.873610 0.613462 -0.383750
H -1.008815 0.679745 1.083670
H 2.043258 0.222319 0.718269
H 1.389689 -1.879360 -0.343849
H 0.512263 -2.082003 1.284973
H -0.784023 -1.646133 -1.482683
H -2.095371 -1.828272 1.306754
H -2.956705 -1.647338 -0.231080
H -2.071284 -3.146037 0.126277
$end
$scan
stre 1 2 4.000000 4.001000 0.100000
$end
--------------------------------------------------------------
 ----------------------------------------------------------------
             Standard Nuclear Orientation (Angstroms)
    I     Atom           X                Y                Z
 ----------------------------------------------------------------
    1      Se      3.2690700000     1.0562460000     0.7096680000
    2      C       0.4625510000    -1.8917440000     0.2169120000
    3      C      -0.7908850000    -1.4951950000    -0.4001690000
    4      C      -2.0581380000    -2.0550940000     0.2365060000
    5      Se     -0.8736100000     0.6134620000    -0.3837500000
    6      H      -1.0088150000     0.6797450000     1.0836700000
    7      H       2.0432580000     0.2223190000     0.7182690000
    8      H       1.3896890000    -1.8793600000    -0.3438490000
    9      H       0.5122630000    -2.0820030000     1.2849730000
   10      H      -0.7840230000    -1.6461330000    -1.4826830000
   11      H      -2.0953710000    -1.8282720000     1.3067540000
   12      H      -2.9567050000    -1.6473380000    -0.2310800000
   13      H      -2.0712840000    -3.1460370000     0.1262770000
 ----------------------------------------------------------------
 Nuclear Repulsion Energy =   498.0593155494 hartrees
 There are       48 alpha and       46 beta electrons
 Requested basis set is 6-31G(d,p)
 There are 52 shells and 155 basis functions

 Total QAlloc Memory Limit   2000 MB
 Mega-Array Size       188 MB
 MEM_STATIC part       192 MB
A total of 1 constraints
  
            1
    1   1.0100000
    2   1.0100000
    3   2.0100000
    4   4.0000000
    5   4.0010000
    6   0.1000000
    7   0.0000000
    8   0.0000000
    9   0.0000000
   10   0.0000000

                       Distance Matrix (Angstroms)
             Se(  1)   C (  2)   C (  3)   C (  4)   Se(  5)   H (  6)
   C (  2)  4.100000
   C (  3)  4.921872  1.452288
   C (  4)  6.187363  2.526052  1.524720
   Se(  5)  4.307368  2.902099  2.110343  2.984797
   H (  6)  4.310676  3.086866  2.641900  3.049280  1.475126
   H (  7)  1.482607  2.686867  3.497588  4.715947  3.142540  3.107717
   H (  8)  3.641394  1.083601  2.214872  3.500744  3.367236  3.786773
   H (  9)  4.216582  1.086013  2.209580  2.776143  3.459886  3.159344
   H ( 10)  5.341986  2.122003  1.093008  2.178584  2.514249  3.470794
   H ( 11)  6.119982  2.781142  2.173985  1.094653  3.211319  2.742357
   H ( 12)  6.852346  3.457129  2.177732  1.091936  3.077955  3.307289
   H ( 13)  6.820477  2.828743  2.154494  1.096576  3.978490  4.084366
             H (  7)   H (  8)   H (  9)   H ( 10)   H ( 11)   H ( 12)
   H (  8)  2.443829
   H (  9)  2.824004  1.861183
   H ( 10)  4.040894  2.465028  3.087112
   H ( 11)  4.656124  3.856520  2.620040  3.087680
   H ( 12)  5.421855  4.354043  3.810655  2.507401  1.771882
   H ( 13)  5.350302  3.715350  3.024807  2.548628  1.769353  1.777012

 
 A cutoff of  1.0D-14 yielded   1200 shell pairs
 There are     10380 function pairs
 
 -------------------------------------------------------
 OpenMP Integral Computing Module                       
 Release: version 1.0, May 2013, Q-Chem Inc. Pittsburgh 
 -------------------------------------------------------
 Integral Job Info:
 Integral job number is                      11
 Integral operator is                         1
 short-range coefficients                     0
 long-range coefficients              100000000
 Omega coefficients                           0
 if combine SR and LR in K                    0
 Integral screening is                        0
 Integral computing path is                   2
 max size of driver memory is            800000
 size of driver memory is                593474
 size of scratch memory is             15267112
 max col of scratch BK array               1296
 max len of scratch array in speh3          155
 max len of scratch index in speh4           18
 max int batch size is                      520
 min int batch size is                       52
 fixed nKL is                                52
 max L of basis functions is                  2
 order of int derivative is                   0
 number of shells is                         52
 number of basis is                         155
 number of cartesian basis is               155
 number of contracted shell pairs          1200
 number of primitive shell pairs           4724
 maxK2 (contraction) of shell pair           36
 max number of K2 of shell pair               1
 max number of CS2 of shell pair             83
 max number of PS2 of shell pair            498
 mem total for path MDJ                  528444
 -------------------------------------------------------
 Smallest overlap matrix eigenvalue = 6.74E-04

 Scale SEOQF with 1.000000e-01/1.000000e-01/1.000000e+00

 Standard Electronic Orientation quadrupole field applied
 Nucleus-field energy     =    -0.0000000076 hartrees
 Guess from superposition of atomic densities
 Warning:  Energy on first SCF cycle will be non-variational
 SAD guess density has 93.936381 electrons

 -----------------------------------------------------------------------
  General SCF calculation program by
  Eric Jon Sundstrom, Paul Horn, Yuezhi Mao, Dmitri Zuev, Alec White,
  David Stuck, Shaama M.S., Shane Yost, Joonho Lee, David Small,
  Daniel Levine, Susi Lehtola, Hugh Burton, Evgeny Epifanovsky
 -----------------------------------------------------------------------
 Exchange:     0.2000 Hartree-Fock + 0.0800 Slater + 0.7200 B88
 Correlation:  0.1900 VWN1RPA + 0.8100 LYP
 Using SG-1 standard quadrature grid
 using 12 threads for integral computing
 -------------------------------------------------------
 OpenMP Integral computing Module                
 Release: version 1.0, May 2013, Q-Chem Inc. Pittsburgh 
 -------------------------------------------------------
 -------------------------------------------------------
 OpenMP BLAS3 based DFT computing Module                
 Release: version 1.0, May 2013, Q-Chem Inc. Pittsburgh 
 -------------------------------------------------------
 A unrestricted SCF calculation will be
 performed using DIIS
 SCF converges when DIIS error is below 1.0e-06
 Alpha HF Exchange    Energy = -18.84316682970083
 Beta HF Exchange     Energy = -18.84316682970083
 DFT Correlation      Energy =  -5.12746735110722
 DFT Exchange         Energy = -149.84944146094398
 One-Electron (alpha) Energy = -3915.70690356026398
 One-Electron (beta)  Energy = -3915.70690356026398
 Total Coulomb        Energy = 2598.59481259708173
 ---------------------------------------
  Cycle       Energy         DIIS error
 ---------------------------------------
    1   -4927.4229214531      1.50e-01  
 Alpha HF Exchange    Energy = -19.06299785545914
 Beta HF Exchange     Energy = -18.86284283649918
 DFT Correlation      Energy =  -5.17538374334769
 DFT Exchange         Energy = -151.00752360304443
 One-Electron (alpha) Energy = -3948.67955532096994
 One-Electron (beta)  Energy = -3901.67314696885433
 Total Coulomb        Energy = 2624.91588103532558
    2   -4921.4862537510      9.32e-03  
 Alpha HF Exchange    Energy = -18.92511319585730
 Beta HF Exchange     Energy = -18.75472124211089
 DFT Correlation      Energy =  -5.13196820845509
 DFT Exchange         Energy = -149.97745168843514
 One-Electron (alpha) Energy = -3934.92075319925743
 One-Electron (beta)  Energy = -3890.24081353427027
 Total Coulomb        Energy = 2598.38144004564174
    3   -4921.5100654809      3.60e-03  
 Alpha HF Exchange    Energy = -19.03888430885842
 Beta HF Exchange     Energy = -18.84129961001609
 DFT Correlation      Energy =  -5.16546669316224
 DFT Exchange         Energy = -150.80767680508865
 One-Electron (alpha) Energy = -3944.88416842264905
 One-Electron (beta)  Energy = -3897.98896293469579
 Total Coulomb        Energy = 2617.16795437149585
    4   -4921.4991888612      3.20e-03  
 Alpha HF Exchange    Energy = -19.00456540988840
 Beta HF Exchange     Energy = -18.82530952007095
 DFT Correlation      Energy =  -5.15307337177769
 DFT Exchange         Energy = -150.56739238855559
 One-Electron (alpha) Energy = -3942.99627419943135
 One-Electron (beta)  Energy = -3897.49528057649468
 Total Coulomb        Energy = 2614.36212794814764
    5   -4921.6204519762      1.18e-03  
 Alpha HF Exchange    Energy = -18.99602956733228
 Beta HF Exchange     Energy = -18.81473379294674
 DFT Correlation      Energy =  -5.15143224235462
 DFT Exchange         Energy = -150.49612627638413
 One-Electron (alpha) Energy = -3941.60550165717905
 One-Electron (beta)  Energy = -3895.96602319323210
 Total Coulomb        Energy = 2611.33158596407748
    6   -4921.6389452235      1.88e-04  
 Alpha HF Exchange    Energy = -18.99534420138088
 Beta HF Exchange     Energy = -18.81391798459560
 DFT Correlation      Energy =  -5.15076300252542
 DFT Exchange         Energy = -150.48922848309016
 One-Electron (alpha) Energy = -3941.49951347344086
 One-Electron (beta)  Energy = -3895.84208473163244
 Total Coulomb        Energy = 2611.09187699884978
    7   -4921.6396593360      1.08e-04  
 Alpha HF Exchange    Energy = -18.99577921095094
 Beta HF Exchange     Energy = -18.81449184599251
 DFT Correlation      Energy =  -5.15101615397684
 DFT Exchange         Energy = -150.49305333137235
 One-Electron (alpha) Energy = -3941.49275943884322
 One-Electron (beta)  Energy = -3895.85853436459774
 Total Coulomb        Energy = 2611.10648238000886
    8   -4921.6398364239      4.50e-05  
 Alpha HF Exchange    Energy = -18.99579096156940
 Beta HF Exchange     Energy = -18.81468078793083
 DFT Correlation      Energy =  -5.15091234030727
 DFT Exchange         Energy = -150.49324961395405
 One-Electron (alpha) Energy = -3941.50544692764242
 One-Electron (beta)  Energy = -3895.89011275652319
 Total Coulomb        Energy = 2611.15100968723436
    9   -4921.6398681589      1.25e-05  
 Alpha HF Exchange    Energy = -18.99579639065326
 Beta HF Exchange     Energy = -18.81480270968852
 DFT Correlation      Energy =  -5.15089925503294
 DFT Exchange         Energy = -150.49357671189466
 One-Electron (alpha) Energy = -3941.50019297334347
 One-Electron (beta)  Energy = -3895.89566510885425
 Total Coulomb        Energy = 2611.15174496664304
   10   -4921.6398726410      6.59e-06  
 Alpha HF Exchange    Energy = -18.99579509331243
 Beta HF Exchange     Energy = -18.81479731707648
 DFT Correlation      Energy =  -5.15088948318940
 DFT Exchange         Energy = -150.49350155042720
 One-Electron (alpha) Energy = -3941.49515891049714
 One-Electron (beta)  Energy = -3895.89331821565384
 Total Coulomb        Energy = 2611.14427141214628
   11   -4921.6398736162      1.71e-06  
 Alpha HF Exchange    Energy = -18.99579471104161
 Beta HF Exchange     Energy = -18.81481731808697
 DFT Correlation      Energy =  -5.15088631963190
 DFT Exchange         Energy = -150.49354231443965
 One-Electron (alpha) Energy = -3941.49480082862510
 One-Electron (beta)  Energy = -3895.89595846854490
 Total Coulomb        Energy = 2611.14661041585077
   12   -4921.6398740027      9.43e-07  Convergence criterion met
 ---------------------------------------
 SCF time:   CPU 56.50s  wall 5.00s 
<S^2> =          2.011052839
 Alpha HF Exchange    Energy = -18.99579471104161
 Beta HF Exchange     Energy = -18.81481731808697
 DFT Correlation      Energy =  -5.15088631963190
 DFT Exchange         Energy = -150.49354231443965
 One-Electron (alpha) Energy = -3941.49480082862510
 One-Electron (beta)  Energy = -3895.89595846854490
 Total Coulomb        Energy = 2611.14661041585077
 Nuclear repulsion Energy = 498.05931554182172
 SCF   energy in the final basis set =    -4921.6398740027
 Total energy in the final basis set =    -4921.6398740027
 
 --------------------------------------------------------------
 
                    Orbital Energies (a.u.)
 --------------------------------------------------------------
 
 Alpha MOs
 -- Occupied --
*******-453.900 -58.102 -58.095 -52.161 -52.158 -52.155 -52.153
-52.152 -52.150 -10.243 -10.211 -10.197  -7.836  -7.829  -5.784
 -5.777  -5.774  -5.771  -5.766  -5.761  -2.116  -2.115  -2.108
 -2.107  -2.106  -2.102  -2.100  -2.099  -2.097  -2.095  -0.818
 -0.703  -0.695  -0.693  -0.586  -0.483  -0.440  -0.433  -0.392
 -0.385  -0.381  -0.362  -0.336  -0.285  -0.244  -0.243  -0.207
 -- Virtual --
 -0.013   0.027   0.045   0.094   0.117   0.122   0.150   0.158
  0.163   0.179   0.213   0.229   0.246   0.258   0.270   0.288
  0.307   0.325   0.385   0.441   0.444   0.496   0.516   0.520
  0.539   0.541   0.543   0.551   0.570   0.580   0.621   0.667
  0.682   0.713   0.751   0.775   0.807   0.816   0.857   0.874
  0.891   0.906   0.928   1.006   1.020   1.077   1.100   1.191
  1.347   1.426   1.431   1.483   1.525   1.635   1.707   1.766
  1.843   1.884   1.921   1.968   2.015   2.035   2.070   2.079
  2.081   2.086   2.103   2.121   2.136   2.272   2.300   2.345
  2.399   2.491   2.556   2.583   2.598   2.633   2.644   2.699
  2.740   2.820   2.863   2.916   3.178   3.270   3.379   3.406
  3.455   3.513   4.195   4.219   4.220   4.241   4.262   4.265
  4.297   4.338   4.374   4.393   4.433   4.475   4.609   5.406
  5.480  89.577  89.810
 
 Beta MOs
 -- Occupied --
*******-453.900 -58.101 -58.095 -52.158 -52.157 -52.154 -52.152
-52.151 -52.149 -10.245 -10.199 -10.197  -7.832  -7.828  -5.776
 -5.775  -5.772  -5.769  -5.764  -5.760  -2.111  -2.110  -2.106
 -2.106  -2.101  -2.101  -2.098  -2.098  -2.096  -2.094  -0.811
 -0.694  -0.675  -0.662  -0.578  -0.479  -0.437  -0.428  -0.389
 -0.381  -0.370  -0.360  -0.319  -0.235  -0.230
 -- Virtual --
 -0.162  -0.086  -0.004   0.031   0.059   0.097   0.119   0.130
  0.156   0.160   0.164   0.185   0.220   0.233   0.254   0.262
  0.282   0.299   0.312   0.333   0.395   0.447   0.454   0.502
  0.525   0.546   0.554   0.558   0.583   0.587   0.589   0.606
  0.632   0.672   0.685   0.718   0.754   0.781   0.816   0.829
  0.859   0.876   0.893   0.911   0.930   1.017   1.026   1.081
  1.105   1.199   1.363   1.428   1.451   1.500   1.541   1.640
  1.712   1.766   1.844   1.892   1.936   1.989   2.021   2.036
  2.072   2.078   2.081   2.090   2.105   2.122   2.142   2.277
  2.300   2.348   2.409   2.505   2.569   2.592   2.599   2.635
  2.645   2.702   2.742   2.822   2.863   2.918   3.179   3.272
  3.383   3.408   3.456   3.518   4.210   4.232   4.233   4.254
  4.264   4.267   4.301   4.341   4.380   4.398   4.442   4.478
  4.613   5.421   5.484  89.582  89.812
 --------------------------------------------------------------
 
          Ground-State Mulliken Net Atomic Charges

     Atom                 Charge (a.u.)    Spin (a.u.)
  --------------------------------------------------------
      1 Se                   -0.113041       1.014621
      2 C                    -0.214363       0.926012
      3 C                    -0.150522      -0.110360
      4 C                    -0.311879       0.007945
      5 Se                   -0.091851       0.268279
      6 H                     0.058596      -0.006955
      7 H                     0.077448      -0.027021
      8 H                     0.128614      -0.041464
      9 H                     0.114222      -0.041606
     10 H                     0.139045       0.011274
     11 H                     0.113999      -0.000916
     12 H                     0.130220       0.001205
     13 H                     0.119514      -0.001015
  --------------------------------------------------------
  Sum of atomic charges =    -0.000000
  Sum of spin   charges =     2.000000

 -----------------------------------------------------------------
                    Cartesian Multipole Moments
 -----------------------------------------------------------------
    Charge (ESU x 10^10)
                 0.0000
    Dipole Moment (Debye)
         X      -1.5878      Y      -2.3653      Z       0.3831
       Tot       2.8744
    Quadrupole Moments (Debye-Ang)
        XX     -62.9243     XY      -0.2864     YY     -57.0585
        XZ      -0.9049     YZ      -0.4630     ZZ     -56.7316
    Octopole Moments (Debye-Ang^2)
       XXX     -97.2496    XXY      -3.4507    XYY     -32.2434
       YYY      16.2135    XXZ      -5.0103    XYZ      -5.8841
       YYZ     -10.9131    XZZ     -33.7093    YZZ      -0.4196
       ZZZ     -28.5096
    Hexadecapole Moments (Debye-Ang^3)
      XXXX   -1636.9726   XXXY    -252.1613   XXYY    -370.9222
      XYYY    -249.8903   YYYY    -663.9277   XXXZ    -126.4970
      XXYZ     -14.3481   XYYZ     -56.0557   YYYZ     -25.9804
      XXZZ    -305.7804   XYZZ     -96.1948   YYZZ    -142.9577
      XZZZ    -150.6787   YZZZ     -27.7325   ZZZZ    -179.7509
 -----------------------------------------------------------------
 Calculating analytic gradient of the SCF energy
 Gradient of SCF Energy
            1           2           3           4           5           6
    1  -0.0005377   0.0005336  -0.0000344   0.0000143  -0.0000209   0.0000125
    2  -0.0004801   0.0005820  -0.0000026  -0.0000238  -0.0000069  -0.0000097
    3  -0.0000781   0.0000680  -0.0000214  -0.0000047   0.0000141   0.0000157
            7           8           9          10          11          12
    1   0.0000504  -0.0000436  -0.0000003   0.0000068   0.0000027  -0.0000003
    2  -0.0000182   0.0000115  -0.0000269   0.0000060  -0.0000065  -0.0000152
    3  -0.0000283   0.0000322  -0.0000091  -0.0000000   0.0000012   0.0000065
           13
    1   0.0000169
    2  -0.0000096
    3   0.0000039
 Max gradient component =       5.820E-04
 RMS gradient           =       1.729E-04
 Gradient time:  CPU 17.88 s  wall 1.58 s
 Geometry Optimization Parameters
   NAtoms,    NIC,     NZ,  NCons,   NDum,   NFix, NCnnct, MaxDiis
       13      91       0       1       0       0       0       0


** CONSTRAINED OPTIMIZATION IN DELOCALIZED INTERNAL COORDINATES **
   Searching for a Minimum

   Optimization Cycle:   1

                       Coordinates (Angstroms)
     ATOM                X               Y               Z
      1  Se        3.2690700000    1.0562460000    0.7096680000
      2  C         0.4625510000   -1.8917440000    0.2169120000
      3  C        -0.7908850000   -1.4951950000   -0.4001690000
      4  C        -2.0581380000   -2.0550940000    0.2365060000
      5  Se       -0.8736100000    0.6134620000   -0.3837500000
      6  H        -1.0088150000    0.6797450000    1.0836700000
      7  H         2.0432580000    0.2223190000    0.7182690000
      8  H         1.3896890000   -1.8793600000   -0.3438490000
      9  H         0.5122630000   -2.0820030000    1.2849730000
     10  H        -0.7840230000   -1.6461330000   -1.4826830000
     11  H        -2.0953710000   -1.8282720000    1.3067540000
     12  H        -2.9567050000   -1.6473380000   -0.2310800000
     13  H        -2.0712840000   -3.1460370000    0.1262770000
   Point Group: c1    Number of degrees of freedom:    33


   Energy is  -4921.639874003

              Constraints and their Current Values
                                        Value     Constraint
   Distance(Angs):        1   2             4.100000     4.000000

 Attempting to Generate Delocalized Internal Coordinates

   Using Lagrange Multiplier Algorithm


 34 Hessian modes will be used to form the next step
  Hessian Eigenvalues:
    -0.996414    0.044967    0.045000    0.045000    0.045000    0.045851
     0.058588    0.068545    0.072669    0.077414    0.082415    0.084149
     0.088623    0.104357    0.115634    0.115692    0.123430    0.160000
     0.160000    0.160000    0.160000    0.162325    0.180048    0.185540
     0.201673    0.299164    0.334638    0.340636    0.342804    0.344674
     0.345899    0.352775    0.379467    1.003599

 Minimum Search - Taking P-RFO Step
 Searching for Lamda that Maximizes Along the Constraint modes Only
 Value Taken    Lamda =   0.01780130
 Searching for Lamda that Minimizes Along All other modes
 Value Taken    Lamda =  -0.01729571
 Step Taken.  Stepsize is  0.185716

                             Maximum     Tolerance    Cnvgd?
         Gradient            0.188973       0.000300      NO
         Displacement        0.185714       0.001200      NO
         Energy change     *********       0.000001      NO


 New Cartesian Coordinates Obtained by Inverse Iteration

 Displacement from previous Coordinates is:  0.190616
 ----------------------------------------------------------------
             Standard Nuclear Orientation (Angstroms)
    I     Atom           X                Y                Z
 ----------------------------------------------------------------
    1      Se      3.2040529972     1.0012608945     0.6936150396
    2      C       0.4727787051    -1.8846458283     0.2187620688
    3      C      -0.7808239112    -1.4892999334    -0.3987377896
    4      C      -2.0478056469    -2.0504068669     0.2374312213
    5      Se     -0.8657631548     0.6193057534    -0.3824069606
    6      H      -1.0020312428     0.6855288150     1.0849110286
    7      H       2.0078324759     0.2171443796     0.7220860408
    8      H       1.3908345416    -1.8752086757    -0.3440438955
    9      H       0.5244868434    -2.0743630773     1.2868202747
   10      H      -0.7734341480    -1.6402079300    -1.4812536645
   11      H      -2.0856494765    -1.8237024782     1.3076823959
   12      H      -2.9465630699    -1.6434543992    -0.2304862143
   13      H      -2.0599149129    -3.1413546536     0.1271184548
 ----------------------------------------------------------------
 Nuclear Repulsion Energy =   503.1813602502 hartrees
 There are       48 alpha and       46 beta electrons

                       Distance Matrix (Angstroms)
             Se(  1)   C (  2)   C (  3)   C (  4)   Se(  5)   H (  6)
   C (  2)  4.001725
   C (  3)  4.824456  1.452282
   C (  4)  6.091207  2.526098  1.524728
   Se(  5)  4.226951  2.902218  2.110379  2.984760
   H (  6)  4.236029  3.087244  2.641974  3.049133  1.475119
   H (  7)  1.430592  2.650896  3.456125  4.671711  3.104705  3.067622
   H (  8)  3.555077  1.076878  2.206358  3.491855  3.363972  3.784851
   H (  9)  4.122066  1.086009  2.210711  2.778215  3.460486  3.160384
   H ( 10)  5.246696  2.121992  1.093009  2.178569  2.514238  3.470808
   H ( 11)  6.028138  2.781190  2.173997  1.094653  3.211357  2.742280
   H ( 12)  6.758592  3.457151  2.177728  1.091935  3.077806  3.306907
   H ( 13)  6.722465  2.828825  2.154503  1.096578  3.978465  4.084302
             H (  7)   H (  8)   H (  9)   H ( 10)   H ( 11)   H ( 12)
   H (  8)  2.428016
   H (  9)  2.787516  1.857401
   H ( 10)  4.004985  2.456121  3.087932
   H ( 11)  4.611353  3.849259  2.622228  3.087676
   H ( 12)  5.377291  4.345069  3.812622  2.507373  1.771898
   H ( 13)  5.308490  3.705778  3.026964  2.548595  1.769350  1.777001

 
 Applying Cartesian multipole field
    Component          Value
    ---------          -----
     (2,0,0)        1.00000E-11
     (0,2,0)        2.00000E-11
     (0,0,2)       -3.00000E-10
 Nucleus-field energy     =    -0.0000000076 hartrees
 Requested basis set is 6-31G(d,p)
 There are 52 shells and 155 basis functions
 A cutoff of  1.0D-14 yielded   1203 shell pairs
 There are     10420 function pairs
 Smallest overlap matrix eigenvalue = 6.74E-04
 Guess from superposition of atomic densities
 Warning:  Energy on first SCF cycle will be non-variational
 SAD guess density has 93.936381 electrons

 -----------------------------------------------------------------------
  General SCF calculation program by
  Eric Jon Sundstrom, Paul Horn, Yuezhi Mao, Dmitri Zuev, Alec White,
  David Stuck, Shaama M.S., Shane Yost, Joonho Lee, David Small,
  Daniel Levine, Susi Lehtola, Hugh Burton, Evgeny Epifanovsky
 -----------------------------------------------------------------------
 Exchange:     0.2000 Hartree-Fock + 0.0800 Slater + 0.7200 B88
 Correlation:  0.1900 VWN1RPA + 0.8100 LYP
 Using SG-1 standard quadrature grid
 using 12 threads for integral computing
 -------------------------------------------------------
 OpenMP Integral computing Module                
 Release: version 1.0, May 2013, Q-Chem Inc. Pittsburgh 
 -------------------------------------------------------
 -------------------------------------------------------
 OpenMP BLAS3 based DFT computing Module                
 Release: version 1.0, May 2013, Q-Chem Inc. Pittsburgh 
 -------------------------------------------------------
 A unrestricted SCF calculation will be
 performed using DIIS
 SCF converges when DIIS error is below 1.0e-06
 Alpha HF Exchange    Energy = -18.84616097386648
 Beta HF Exchange     Energy = -18.84616097386648
 DFT Correlation      Energy =  -5.12852607156036
 DFT Exchange         Energy = -149.85663866355139
 One-Electron (alpha) Energy = -3920.79512154403210
 One-Electron (beta)  Energy = -3920.79512154403210
 Total Coulomb        Energy = 2603.62036048732898
 ---------------------------------------
  Cycle       Energy         DIIS error
 ---------------------------------------
    1   -4927.4660090410      1.50e-01  
 Alpha HF Exchange    Energy = -19.06510744125205
 Beta HF Exchange     Energy = -18.86399411100033
 DFT Correlation      Energy =  -5.17646721391154
 DFT Exchange         Energy = -151.02007602982877
 One-Electron (alpha) Energy = -3953.92753156876415
 One-Electron (beta)  Energy = -3906.56270272270876
 Total Coulomb        Energy = 2629.95837625885542
    2   -4921.4761425860      9.33e-03  
 Alpha HF Exchange    Energy = -18.92673125896378
 Beta HF Exchange     Energy = -18.75703745097355
 DFT Correlation      Energy =  -5.13330713220171
 DFT Exchange         Energy = -149.99180174334089
 One-Electron (alpha) Energy = -3940.28295668931105
 One-Electron (beta)  Energy = -3895.41711948779403
 Total Coulomb        Energy = 2603.83206301033260
    3   -4921.4955305097      3.70e-03  
 Alpha HF Exchange    Energy = -19.03919746318357
 Beta HF Exchange     Energy = -18.84627450684310
 DFT Correlation      Energy =  -5.16528903158724
 DFT Exchange         Energy = -150.81722886182621
 One-Electron (alpha) Energy = -3949.81946730498748
 One-Electron (beta)  Energy = -3902.42502830557078
 Total Coulomb        Energy = 2621.52730186920371
    4   -4921.4038233622      3.71e-03  
 Alpha HF Exchange    Energy = -19.00923038277936
 Beta HF Exchange     Energy = -18.83115282416016
 DFT Correlation      Energy =  -5.15519793230384
 DFT Exchange         Energy = -150.60717423297055
 One-Electron (alpha) Energy = -3948.60147224239972
 One-Electron (beta)  Energy = -3902.94079688319516
 Total Coulomb        Energy = 2620.36015696890036
    5   -4921.6035072863      1.55e-03  
 Alpha HF Exchange    Energy = -18.99767785923333
 Beta HF Exchange     Energy = -18.81708713663761
 DFT Correlation      Energy =  -5.15245692215130
 DFT Exchange         Energy = -150.50907424216223
 One-Electron (alpha) Energy = -3946.87869673349041
 One-Electron (beta)  Energy = -3901.05346053649873
 Total Coulomb        Energy = 2616.59145105067546
    6   -4921.6356421369      3.50e-04  
 Alpha HF Exchange    Energy = -18.99733877429412
 Beta HF Exchange     Energy = -18.81583994216164
 DFT Correlation      Energy =  -5.15191874416179
 DFT Exchange         Energy = -150.50279961606515
 One-Electron (alpha) Energy = -3946.78447944949448
 One-Electron (beta)  Energy = -3900.87607353081921
 Total Coulomb        Energy = 2616.30867864812308
    7   -4921.6384111663      1.34e-04  
 Alpha HF Exchange    Energy = -18.99777942413487
 Beta HF Exchange     Energy = -18.81613172774041
 DFT Correlation      Energy =  -5.15221717166529
 DFT Exchange         Energy = -150.50583436359761
 One-Electron (alpha) Energy = -3946.74033032029047
 One-Electron (beta)  Energy = -3900.84559085035744
 Total Coulomb        Energy = 2616.23789333816785
    8   -4921.6386302770      6.19e-05  
 Alpha HF Exchange    Energy = -18.99773336832969
 Beta HF Exchange     Energy = -18.81633405462923
 DFT Correlation      Energy =  -5.15205502741289
 DFT Exchange         Energy = -150.50573718161269
 One-Electron (alpha) Energy = -3946.75825732569047
 One-Electron (beta)  Energy = -3900.88515714734331
 Total Coulomb        Energy = 2616.29523419539100
    9   -4921.6386796670      1.94e-05  
 Alpha HF Exchange    Energy = -18.99772878748399
 Beta HF Exchange     Energy = -18.81643676787684
 DFT Correlation      Energy =  -5.15205337251168
 DFT Exchange         Energy = -150.50601204174367
 One-Electron (alpha) Energy = -3946.74645732322460
 One-Electron (beta)  Energy = -3900.88409342023351
 Total Coulomb        Energy = 2616.28273448079744
   10   -4921.6386869897      9.47e-06  
 Alpha HF Exchange    Energy = -18.99773623368804
 Beta HF Exchange     Energy = -18.81643148935356
 DFT Correlation      Energy =  -5.15204123316606
 DFT Exchange         Energy = -150.50595977054925
 One-Electron (alpha) Energy = -3946.74237441485684
 One-Electron (beta)  Energy = -3900.88289679191166
 Total Coulomb        Energy = 2616.27739115389795
   11   -4921.6386885370      2.07e-06  
 Alpha HF Exchange    Energy = -18.99773924986876
 Beta HF Exchange     Energy = -18.81645803895933
 DFT Correlation      Energy =  -5.15203989201385
 DFT Exchange         Energy = -150.50603650180796
 One-Electron (alpha) Energy = -3946.74244752648428
 One-Electron (beta)  Energy = -3900.88654187802649
 Total Coulomb        Energy = 2616.28121400369901
   12   -4921.6386888409      8.75e-07  Convergence criterion met
 ---------------------------------------
 SCF time:   CPU 55.93s  wall 5.00s 
<S^2> =          2.010945534
 Alpha HF Exchange    Energy = -18.99773924986876
 Beta HF Exchange     Energy = -18.81645803895933
 DFT Correlation      Energy =  -5.15203989201385
 DFT Exchange         Energy = -150.50603650180796
 One-Electron (alpha) Energy = -3946.74244752648428
 One-Electron (beta)  Energy = -3900.88654187802649
 Total Coulomb        Energy = 2616.28121400369901
 Nuclear repulsion Energy = 503.18136024258769
 SCF   energy in the final basis set =    -4921.6386888409
 Total energy in the final basis set =    -4921.6386888409
 
 --------------------------------------------------------------
 
                    Orbital Energies (a.u.)
 --------------------------------------------------------------
 
 Alpha MOs
 -- Occupied --
*******-453.901 -58.100 -58.096 -52.159 -52.156 -52.154 -52.153
-52.153 -52.150 -10.243 -10.211 -10.198  -7.834  -7.829  -5.782
 -5.775  -5.774  -5.771  -5.764  -5.762  -2.115  -2.114  -2.108
 -2.108  -2.105  -2.100  -2.100  -2.098  -2.098  -2.096  -0.819
 -0.705  -0.699  -0.694  -0.587  -0.484  -0.440  -0.433  -0.393
 -0.386  -0.384  -0.363  -0.336  -0.285  -0.244  -0.243  -0.208
 -- Virtual --
 -0.012   0.031   0.054   0.094   0.116   0.122   0.149   0.157
  0.163   0.179   0.215   0.230   0.245   0.257   0.271   0.290
  0.309   0.326   0.386   0.441   0.443   0.498   0.516   0.523
  0.539   0.542   0.545   0.551   0.570   0.581   0.624   0.667
  0.683   0.713   0.751   0.776   0.810   0.819   0.858   0.874
  0.891   0.908   0.928   1.010   1.022   1.088   1.109   1.194
  1.348   1.425   1.431   1.484   1.530   1.635   1.707   1.766
  1.844   1.884   1.924   1.966   2.016   2.035   2.073   2.081
  2.083   2.090   2.106   2.127   2.145   2.272   2.302   2.345
  2.400   2.494   2.558   2.584   2.598   2.645   2.673   2.701
  2.741   2.823   2.863   2.917   3.178   3.276   3.381   3.409
  3.455   3.517   4.195   4.221   4.221   4.244   4.264   4.265
  4.297   4.337   4.368   4.393   4.433   4.474   4.610   5.413
  5.480  89.596  89.814
 
 Beta MOs
 -- Occupied --
*******-453.900 -58.099 -58.096 -52.155 -52.155 -52.153 -52.152
-52.152 -52.150 -10.245 -10.199 -10.198  -7.831  -7.828  -5.774
 -5.773  -5.773  -5.770  -5.762  -5.761  -2.109  -2.108  -2.107
 -2.106  -2.100  -2.099  -2.099  -2.096  -2.096  -2.095  -0.811
 -0.695  -0.676  -0.667  -0.578  -0.480  -0.437  -0.428  -0.389
 -0.381  -0.372  -0.360  -0.319  -0.235  -0.230
 -- Virtual --
 -0.162  -0.086  -0.003   0.034   0.068   0.096   0.119   0.129
  0.155   0.159   0.164   0.186   0.221   0.233   0.254   0.261
  0.284   0.301   0.314   0.334   0.398   0.447   0.453   0.503
  0.524   0.546   0.555   0.560   0.583   0.587   0.590   0.606
  0.637   0.672   0.686   0.717   0.754   0.782   0.818   0.833
  0.861   0.876   0.893   0.913   0.930   1.017   1.033   1.093
  1.113   1.202   1.365   1.428   1.451   1.500   1.545   1.640
  1.712   1.766   1.845   1.892   1.938   1.987   2.022   2.036
  2.076   2.082   2.085   2.093   2.108   2.128   2.150   2.277
  2.303   2.348   2.411   2.507   2.571   2.593   2.600   2.646
  2.674   2.704   2.742   2.824   2.863   2.920   3.179   3.279
  3.385   3.410   3.456   3.523   4.209   4.234   4.234   4.256
  4.266   4.268   4.300   4.340   4.374   4.398   4.442   4.478
  4.614   5.427   5.485  89.601  89.816
 --------------------------------------------------------------
 
          Ground-State Mulliken Net Atomic Charges

     Atom                 Charge (a.u.)    Spin (a.u.)
  --------------------------------------------------------
      1 Se                   -0.118610       1.008255
      2 C                    -0.215281       0.926705
      3 C                    -0.151011      -0.110561
      4 C                    -0.311937       0.008103
      5 Se                   -0.090958       0.272015
      6 H                     0.058785      -0.007076
      7 H                     0.081359      -0.024983
      8 H                     0.130214      -0.041322
      9 H                     0.114325      -0.041675
     10 H                     0.139187       0.011168
     11 H                     0.114020      -0.000932
     12 H                     0.130184       0.001277
     13 H                     0.119723      -0.000975
  --------------------------------------------------------
  Sum of atomic charges =     0.000000
  Sum of spin   charges =     2.000000

 -----------------------------------------------------------------
                    Cartesian Multipole Moments
 -----------------------------------------------------------------
    Charge (ESU x 10^10)
                 0.0000
    Dipole Moment (Debye)
         X      -1.6554      Y      -2.3841      Z       0.3867
       Tot       2.9282
    Quadrupole Moments (Debye-Ang)
        XX     -63.1017     XY      -0.3237     YY     -57.1044
        XZ      -0.9281     YZ      -0.4976     ZZ     -56.5543
    Octopole Moments (Debye-Ang^2)
       XXX     -95.2597    XXY      -2.6161    XYY     -31.6239
       YYY      18.0906    XXZ      -5.0895    XYZ      -5.9959
       YYZ     -10.6676    XZZ     -32.3905    YZZ       0.5136
       ZZZ     -27.3989
    Hexadecapole Moments (Debye-Ang^3)
      XXXX   -1588.7051   XXXY    -237.6303   XXYY    -361.4165
      XYYY    -236.4129   YYYY    -650.3496   XXXZ    -123.0219
      XXYZ     -13.8432   XYYZ     -54.1953   YYYZ     -22.6959
      XXZZ    -295.7768   XYZZ     -90.7565   YYZZ    -139.7528
      XZZZ    -143.9642   YZZZ     -24.1333   ZZZZ    -176.1968
 -----------------------------------------------------------------
 Calculating analytic gradient of the SCF energy
 Gradient of SCF Energy
            1           2           3           4           5           6
    1  -0.0179692   0.0046335   0.0001959   0.0000947   0.0001481   0.0000171
    2  -0.0125914   0.0008219   0.0002063  -0.0001438  -0.0001531  -0.0000158
    3   0.0004077  -0.0016100  -0.0004017   0.0000258   0.0001228   0.0000161
            7           8           9          10          11          12
    1   0.0170992  -0.0042840   0.0000631  -0.0000351   0.0000028   0.0000352
    2   0.0118549   0.0000744  -0.0000442   0.0000244  -0.0000030  -0.0000040
    3  -0.0006842   0.0020942   0.0000467  -0.0000247  -0.0000040  -0.0000036
           13
    1  -0.0000012
    2  -0.0000264
    3   0.0000148
 Max gradient component =       1.797E-02
 RMS gradient           =       4.969E-03
 Gradient time:  CPU 17.95 s  wall 1.58 s
 Geometry Optimization Parameters
   NAtoms,    NIC,     NZ,  NCons,   NDum,   NFix, NCnnct, MaxDiis
       13      91       0       1       0       0       0       0

 Cartesian Hessian Update
 Hessian Updated using BFGS Update


** CONSTRAINED OPTIMIZATION IN DELOCALIZED INTERNAL COORDINATES **
   Searching for a Minimum

   Optimization Cycle:   2

                       Coordinates (Angstroms)
     ATOM                X               Y               Z
      1  Se        3.2040529972    1.0012608945    0.6936150396
      2  C         0.4727787051   -1.8846458283    0.2187620688
      3  C        -0.7808239112   -1.4892999334   -0.3987377896
      4  C        -2.0478056469   -2.0504068669    0.2374312213
      5  Se       -0.8657631548    0.6193057534   -0.3824069606
      6  H        -1.0020312428    0.6855288150    1.0849110286
      7  H         2.0078324759    0.2171443796    0.7220860408
      8  H         1.3908345416   -1.8752086757   -0.3440438955
      9  H         0.5244868434   -2.0743630773    1.2868202747
     10  H        -0.7734341480   -1.6402079300   -1.4812536645
     11  H        -2.0856494765   -1.8237024782    1.3076823959
     12  H        -2.9465630699   -1.6434543992   -0.2304862143
     13  H        -2.0599149129   -3.1413546536    0.1271184548
   Point Group: c1    Number of degrees of freedom:    33


   Energy is  -4921.638688841

              Constraints and their Current Values
                                        Value     Constraint
   Distance(Angs):        1   2             4.001725     4.000000
 Hessian Updated using BFGS Update

   Using Lagrange Multiplier Algorithm


 31 Hessian modes will be used to form the next step
  Hessian Eigenvalues:
    -0.970962    0.044997    0.044999    0.045045    0.050310    0.060772
     0.068545    0.072671    0.077417    0.082415    0.084149    0.099994
     0.104357    0.115634    0.123348    0.124507    0.160000    0.160000
     0.180048    0.185479    0.201649    0.224828    0.299165    0.340631
     0.341635    0.342804    0.344675    0.345901    0.352779    0.379553
     1.036697

 Minimum Search - Taking P-RFO Step
 Searching for Lamda that Maximizes Along the Constraint modes Only
 Value Taken    Lamda =   0.00008460
 Searching for Lamda that Minimizes Along All other modes
 Value Taken    Lamda =  -0.00113564
 Step Taken.  Stepsize is  0.084433

                             Maximum     Tolerance    Cnvgd?
         Gradient            0.010651       0.000300      NO
         Displacement        0.076349       0.001200      NO
         Energy change      0.001185       0.000001      NO


 New Cartesian Coordinates Obtained by Inverse Iteration

 Displacement from previous Coordinates is:  0.049938
 ----------------------------------------------------------------
             Standard Nuclear Orientation (Angstroms)
    I     Atom           X                Y                Z
 ----------------------------------------------------------------
    1      Se      3.2075458578     1.0004561889     0.6920755629
    2      C       0.4749602124    -1.8821411149     0.2191914359
    3      C      -0.7793699587    -1.4878702746    -0.3980601863
    4      C      -2.0461948392    -2.0496724693     0.2378974952
    5      Se     -0.8675656266     0.6210449992    -0.3826109328
    6      H      -1.0044855890     0.6878647895     1.0846130146
    7      H       1.9900421339     0.2007122674     0.7205919832
    8      H       1.3956050654    -1.8722552887    -0.3444290191
    9      H       0.5263005772    -2.0719441667     1.2871991949
   10      H      -0.7716565428    -1.6387842157    -1.4805562583
   11      H      -2.0844137601    -1.8228410985     1.3081153960
   12      H      -2.9451624756    -1.6433585442    -0.2302296211
   13      H      -2.0576050547    -3.1406150724     0.1276999351
 ----------------------------------------------------------------
 Nuclear Repulsion Energy =   502.8166227438 hartrees
 There are       48 alpha and       46 beta electrons

                       Distance Matrix (Angstroms)
             Se(  1)   C (  2)   C (  3)   C (  4)   Se(  5)   H (  6)
   C (  2)  4.000001
   C (  3)  4.824486  1.452513
   C (  4)  6.091909  2.526784  1.524765
   Se(  5)  4.231482  2.903529  2.110815  2.984448
   H (  6)  4.241817  3.089117  2.642503  3.048966  1.475113
   H (  7)  1.456955  2.623958  3.431084  4.646336  3.091870  3.055655
   H (  8)  3.551048  1.079515  2.209331  3.495221  3.367484  3.789038
   H (  9)  4.121030  1.085957  2.210434  2.778356  3.461693  3.162419
   H ( 10)  5.245948  2.121890  1.092992  2.178614  2.514261  3.470965
   H ( 11)  6.029540  2.782026  2.174024  1.094660  3.211208  2.742233
   H ( 12)  6.759898  3.457779  2.177843  1.091960  3.076874  3.306001
   H ( 13)  6.722262  2.829490  2.154501  1.096553  3.978278  4.084361
             H (  7)   H (  8)   H (  9)   H ( 10)   H ( 11)   H ( 12)
   H (  8)  2.405165
   H (  9)  2.761983  1.859510
   H ( 10)  3.981932  2.458112  3.087522
   H ( 11)  4.587063  3.852775  2.622655  3.087701
   H ( 12)  5.353588  4.348298  3.812785  2.507482  1.771894
   H ( 13)  5.281992  3.708949  3.027055  2.548656  1.769358  1.776977

 
 Applying Cartesian multipole field
    Component          Value
    ---------          -----
     (2,0,0)        1.00000E-11
     (0,2,0)        2.00000E-11
     (0,0,2)       -3.00000E-10
 Nucleus-field energy     =    -0.0000000075 hartrees
 Requested basis set is 6-31G(d,p)
 There are 52 shells and 155 basis functions
 A cutoff of  1.0D-14 yielded   1203 shell pairs
 There are     10420 function pairs
 Smallest overlap matrix eigenvalue = 6.74E-04
 Guess from superposition of atomic densities
 Warning:  Energy on first SCF cycle will be non-variational
 SAD guess density has 93.936381 electrons

 -----------------------------------------------------------------------
  General SCF calculation program by
  Eric Jon Sundstrom, Paul Horn, Yuezhi Mao, Dmitri Zuev, Alec White,
  David Stuck, Shaama M.S., Shane Yost, Joonho Lee, David Small,
  Daniel Levine, Susi Lehtola, Hugh Burton, Evgeny Epifanovsky
 -----------------------------------------------------------------------
 Exchange:     0.2000 Hartree-Fock + 0.0800 Slater + 0.7200 B88
 Correlation:  0.1900 VWN1RPA + 0.8100 LYP
 Using SG-1 standard quadrature grid
 using 12 threads for integral computing
 -------------------------------------------------------
 OpenMP Integral computing Module                
 Release: version 1.0, May 2013, Q-Chem Inc. Pittsburgh 
 -------------------------------------------------------
 -------------------------------------------------------
 OpenMP BLAS3 based DFT computing Module                
 Release: version 1.0, May 2013, Q-Chem Inc. Pittsburgh 
 -------------------------------------------------------
 A unrestricted SCF calculation will be
 performed using DIIS
 SCF converges when DIIS error is below 1.0e-06
 Alpha HF Exchange    Energy = -18.84481556425510
 Beta HF Exchange     Energy = -18.84481556425510
 DFT Correlation      Energy =  -5.12826168626699
 DFT Exchange         Energy = -149.85322455495663
 One-Electron (alpha) Energy = -3920.44640259780817
 One-Electron (beta)  Energy = -3920.44640259780817
 Total Coulomb        Energy = 2603.29623366837268
 ---------------------------------------
  Cycle       Energy         DIIS error
 ---------------------------------------
    1   -4927.4510661607      1.50e-01  
 Alpha HF Exchange    Energy = -19.06405317007187
 Beta HF Exchange     Energy = -18.86325402876405
 DFT Correlation      Energy =  -5.17611749414641
 DFT Exchange         Energy = -151.01332840198754
 One-Electron (alpha) Energy = -3953.56103044975225
 One-Electron (beta)  Energy = -3906.24425839496507
 Total Coulomb        Energy = 2629.62488228325265
    2   -4921.4805369201      9.32e-03  
 Alpha HF Exchange    Energy = -18.92601777795478
 Beta HF Exchange     Energy = -18.75599544125077
 DFT Correlation      Energy =  -5.13294239161116
 DFT Exchange         Energy = -149.98561258783505
 One-Electron (alpha) Energy = -3939.87699325367339
 One-Electron (beta)  Energy = -3894.99066554352703
 Total Coulomb        Energy = 2603.35039425568175
    3   -4921.5012100039      3.67e-03  
 Alpha HF Exchange    Energy = -19.03886997081613
 Beta HF Exchange     Energy = -18.84377316665272
 DFT Correlation      Energy =  -5.16546616466657
 DFT Exchange         Energy = -150.81166127552146
 One-Electron (alpha) Energy = -3949.57455559657637
 One-Electron (beta)  Energy = -3902.23441598105410
 Total Coulomb        Energy = 2621.41823558473561
    4   -4921.4338838343      3.57e-03  
 Alpha HF Exchange    Energy = -19.00767906895991
 Beta HF Exchange     Energy = -18.82924566501809
 DFT Correlation      Energy =  -5.15462291366119
 DFT Exchange         Energy = -150.59443943722005
 One-Electron (alpha) Energy = -3948.15031822625633
 One-Electron (beta)  Energy = -3902.46884938624908
 Total Coulomb        Energy = 2619.78003293297297
    5   -4921.6084990281      1.46e-03  
 Alpha HF Exchange    Energy = -18.99688974512041
 Beta HF Exchange     Energy = -18.81597526785657
 DFT Correlation      Energy =  -5.15216810876504
 DFT Exchange         Energy = -150.50295686330560
 One-Electron (alpha) Energy = -3946.50810095976476
 One-Electron (beta)  Energy = -3900.66225108572780
 Total Coulomb        Energy = 2616.18454595999901
    6   -4921.6371733342      3.00e-04  
 Alpha HF Exchange    Energy = -18.99643795087472
 Beta HF Exchange     Energy = -18.81483979051461
 DFT Correlation      Energy =  -5.15159418015028
 DFT Exchange         Energy = -150.49646084522362
 One-Electron (alpha) Energy = -3946.41630832441297
 One-Electron (beta)  Energy = -3900.50491216277032
 Total Coulomb        Energy = 2615.92474673137440
    7   -4921.6391837863      1.27e-04  
 Alpha HF Exchange    Energy = -18.99685111393713
 Beta HF Exchange     Energy = -18.81522398002457
 DFT Correlation      Energy =  -5.15187856563200
 DFT Exchange         Energy = -150.49963157161380
 One-Electron (alpha) Energy = -3946.37791005805911
 One-Electron (beta)  Energy = -3900.48515338556126
 Total Coulomb        Energy = 2615.87063342838655
    8   -4921.6393925101      5.92e-05  
 Alpha HF Exchange    Energy = -18.99681808155624
 Beta HF Exchange     Energy = -18.81542871783727
 DFT Correlation      Energy =  -5.15172570277556
 DFT Exchange         Energy = -150.49959322831018
 One-Electron (alpha) Energy = -3946.39482179752167
 One-Electron (beta)  Energy = -3900.52354018197821
 Total Coulomb        Energy = 2615.92586436072042
    9   -4921.6394406130      1.75e-05  
 Alpha HF Exchange    Energy = -18.99681461537329
 Beta HF Exchange     Energy = -18.81554648119293
 DFT Correlation      Energy =  -5.15171959999648
 DFT Exchange         Energy = -150.49989801650071
 One-Electron (alpha) Energy = -3946.38499591199616
 One-Electron (beta)  Energy = -3900.52507352474049
 Total Coulomb        Energy = 2615.91797817494444
   10   -4921.6394472386      8.82e-06  
 Alpha HF Exchange    Energy = -18.99681977305783
 Beta HF Exchange     Energy = -18.81554266629440
 DFT Correlation      Energy =  -5.15170814970421
 DFT Exchange         Energy = -150.49984276882728
 One-Electron (alpha) Energy = -3946.38049431322406
 One-Electron (beta)  Energy = -3900.52353993105362
 Total Coulomb        Energy = 2615.91187619734865
   11   -4921.6394486685      2.00e-06  
 Alpha HF Exchange    Energy = -18.99682150880265
 Beta HF Exchange     Energy = -18.81556896478658
 DFT Correlation      Energy =  -5.15170604365746
 DFT Exchange         Energy = -150.49991122258959
 One-Electron (alpha) Energy = -3946.38042103307453
 One-Electron (beta)  Energy = -3900.52701178656298
 Total Coulomb        Energy = 2615.91536882805894
   12   -4921.6394489951      8.81e-07  Convergence criterion met
 ---------------------------------------
 SCF time:   CPU 55.51s  wall 4.00s 
<S^2> =          2.010985504
 Alpha HF Exchange    Energy = -18.99682150880265
 Beta HF Exchange     Energy = -18.81556896478658
 DFT Correlation      Energy =  -5.15170604365746
 DFT Exchange         Energy = -150.49991122258959
 One-Electron (alpha) Energy = -3946.38042103307453
 One-Electron (beta)  Energy = -3900.52701178656298
 Total Coulomb        Energy = 2615.91536882805894
 Nuclear repulsion Energy = 502.81662273629473
 SCF   energy in the final basis set =    -4921.6394489951
 Total energy in the final basis set =    -4921.6394489951
 
 --------------------------------------------------------------
 
                    Orbital Energies (a.u.)
 --------------------------------------------------------------
 
 Alpha MOs
 -- Occupied --
*******-453.901 -58.100 -58.096 -52.160 -52.157 -52.154 -52.154
-52.153 -52.150 -10.244 -10.211 -10.198  -7.834  -7.829  -5.782
 -5.775  -5.774  -5.771  -5.764  -5.762  -2.115  -2.114  -2.108
 -2.108  -2.105  -2.100  -2.100  -2.098  -2.098  -2.096  -0.819
 -0.704  -0.697  -0.694  -0.587  -0.484  -0.440  -0.433  -0.393
 -0.385  -0.383  -0.363  -0.336  -0.284  -0.244  -0.242  -0.208
 -- Virtual --
 -0.013   0.029   0.050   0.094   0.116   0.122   0.150   0.157
  0.163   0.179   0.215   0.230   0.245   0.257   0.271   0.290
  0.309   0.326   0.386   0.441   0.443   0.498   0.516   0.523
  0.540   0.542   0.545   0.550   0.570   0.581   0.624   0.667
  0.683   0.713   0.751   0.776   0.809   0.819   0.858   0.874
  0.891   0.907   0.928   1.009   1.021   1.083   1.106   1.194
  1.349   1.426   1.432   1.483   1.529   1.635   1.707   1.766
  1.843   1.883   1.923   1.966   2.015   2.034   2.071   2.080
  2.082   2.088   2.105   2.126   2.145   2.272   2.301   2.345
  2.400   2.493   2.558   2.583   2.598   2.644   2.655   2.699
  2.740   2.821   2.863   2.916   3.178   3.274   3.380   3.408
  3.455   3.515   4.195   4.221   4.221   4.243   4.264   4.265
  4.297   4.338   4.372   4.393   4.434   4.474   4.610   5.410
  5.480  89.587  89.814
 
 Beta MOs
 -- Occupied --
*******-453.900 -58.099 -58.096 -52.156 -52.155 -52.153 -52.153
-52.152 -52.150 -10.245 -10.199 -10.198  -7.831  -7.828  -5.774
 -5.773  -5.773  -5.770  -5.763  -5.761  -2.109  -2.109  -2.107
 -2.106  -2.100  -2.099  -2.099  -2.096  -2.096  -2.095  -0.811
 -0.695  -0.676  -0.664  -0.578  -0.479  -0.437  -0.428  -0.389
 -0.381  -0.371  -0.360  -0.319  -0.235  -0.230
 -- Virtual --
 -0.161  -0.086  -0.003   0.033   0.065   0.096   0.119   0.129
  0.156   0.160   0.164   0.185   0.221   0.233   0.254   0.261
  0.283   0.301   0.314   0.333   0.397   0.447   0.453   0.503
  0.525   0.547   0.555   0.560   0.583   0.588   0.590   0.606
  0.637   0.672   0.687   0.717   0.754   0.782   0.817   0.832
  0.861   0.876   0.893   0.912   0.930   1.017   1.031   1.087
  1.111   1.202   1.365   1.428   1.452   1.500   1.544   1.640
  1.712   1.766   1.844   1.892   1.937   1.987   2.021   2.035
  2.074   2.080   2.083   2.091   2.107   2.127   2.150   2.277
  2.302   2.348   2.410   2.506   2.571   2.593   2.599   2.646
  2.656   2.702   2.742   2.822   2.863   2.919   3.179   3.276
  3.385   3.409   3.456   3.520   4.209   4.234   4.234   4.256
  4.266   4.268   4.300   4.340   4.377   4.398   4.443   4.478
  4.614   5.425   5.485  89.592  89.815
 --------------------------------------------------------------
 
          Ground-State Mulliken Net Atomic Charges

     Atom                 Charge (a.u.)    Spin (a.u.)
  --------------------------------------------------------
      1 Se                   -0.117364       1.010739
      2 C                    -0.215890       0.925749
      3 C                    -0.150806      -0.110583
      4 C                    -0.311999       0.008103
      5 Se                   -0.090388       0.271695
      6 H                     0.058879      -0.007059
      7 H                     0.078776      -0.026177
      8 H                     0.130681      -0.041364
      9 H                     0.114721      -0.041629
     10 H                     0.139274       0.011172
     11 H                     0.114075      -0.000931
     12 H                     0.130311       0.001268
     13 H                     0.119729      -0.000981
  --------------------------------------------------------
  Sum of atomic charges =     0.000000
  Sum of spin   charges =     2.000000

 -----------------------------------------------------------------
                    Cartesian Multipole Moments
 -----------------------------------------------------------------
    Charge (ESU x 10^10)
                 0.0000
    Dipole Moment (Debye)
         X      -1.6539      Y      -2.3821      Z       0.3829
       Tot       2.9252
    Quadrupole Moments (Debye-Ang)
        XX     -63.0591     XY      -0.2935     YY     -57.0841
        XZ      -0.9375     YZ      -0.4910     ZZ     -56.6037
    Octopole Moments (Debye-Ang^2)
       XXX     -95.1321    XXY      -2.4934    XYY     -31.6240
       YYY      18.0308    XXZ      -5.0280    XYZ      -5.9612
       YYZ     -10.6197    XZZ     -32.5611    YZZ       0.4756
       ZZZ     -27.4162
    Hexadecapole Moments (Debye-Ang^3)
      XXXX   -1589.3748   XXXY    -236.5459   XXYY    -361.4129
      XYYY    -235.8222   YYYY    -649.5391   XXXZ    -122.6329
      XXYZ     -13.6248   XYYZ     -54.0915   YYYZ     -22.4228
      XXZZ    -296.4268   XYZZ     -90.6423   YYZZ    -139.6195
      XZZZ    -144.0472   YZZZ     -23.9334   ZZZZ    -176.1882
 -----------------------------------------------------------------
 Calculating analytic gradient of the SCF energy
 Gradient of SCF Energy
            1           2           3           4           5           6
    1  -0.0084935   0.0032603   0.0001155   0.0000246   0.0001294   0.0000243
    2  -0.0063115   0.0006547   0.0000966  -0.0000888  -0.0000441  -0.0000090
    3  -0.0000369  -0.0007466  -0.0002564  -0.0000134   0.0001183   0.0000171
            7           8           9          10          11          12
    1   0.0075500  -0.0025947  -0.0000100  -0.0000048   0.0000036  -0.0000099
    2   0.0055225   0.0001505   0.0000081   0.0000329   0.0000019  -0.0000105
    3  -0.0002570   0.0011745   0.0000082  -0.0000142  -0.0000028   0.0000037
           13
    1   0.0000053
    2  -0.0000032
    3   0.0000054
 Max gradient component =       8.493E-03
 RMS gradient           =       2.372E-03
 Gradient time:  CPU 18.00 s  wall 1.59 s
 Geometry Optimization Parameters
   NAtoms,    NIC,     NZ,  NCons,   NDum,   NFix, NCnnct, MaxDiis
       13      91       0       1       0       0       0       0

 Cartesian Hessian Update
 Hessian Updated using BFGS Update


** CONSTRAINED OPTIMIZATION IN DELOCALIZED INTERNAL COORDINATES **
   Searching for a Minimum

   Optimization Cycle:   3

                       Coordinates (Angstroms)
     ATOM                X               Y               Z
      1  Se        3.2075458578    1.0004561889    0.6920755629
      2  C         0.4749602124   -1.8821411149    0.2191914359
      3  C        -0.7793699587   -1.4878702746   -0.3980601863
      4  C        -2.0461948392   -2.0496724693    0.2378974952
      5  Se       -0.8675656266    0.6210449992   -0.3826109328
      6  H        -1.0044855890    0.6878647895    1.0846130146
      7  H         1.9900421339    0.2007122674    0.7205919832
      8  H         1.3956050654   -1.8722552887   -0.3444290191
      9  H         0.5263005772   -2.0719441667    1.2871991949
     10  H        -0.7716565428   -1.6387842157   -1.4805562583
     11  H        -2.0844137601   -1.8228410985    1.3081153960
     12  H        -2.9451624756   -1.6433585442   -0.2302296211
     13  H        -2.0576050547   -3.1406150724    0.1276999351
   Point Group: c1    Number of degrees of freedom:    33


   Energy is  -4921.639448995

              Constraints and their Current Values
                                        Value     Constraint
   Distance(Angs):        1   2             4.000001     4.000000
 Hessian Updated using BFGS Update

   Using Lagrange Multiplier Algorithm


 33 Hessian modes will be used to form the next step
  Hessian Eigenvalues:
    -0.955603    0.044875    0.044999    0.045000    0.045042    0.047407
     0.058755    0.068545    0.072662    0.077400    0.082413    0.084149
     0.087386    0.104358    0.115634    0.118172    0.123486    0.159990
     0.160000    0.160000    0.171010    0.180049    0.185734    0.201964
     0.299165    0.332006    0.340636    0.342804    0.344674    0.345901
     0.352777    0.379452    1.054320

 Minimum Search - Taking P-RFO Step
 Searching for Lamda that Maximizes Along the Constraint modes Only
 Value Taken    Lamda =   0.00000039
 Searching for Lamda that Minimizes Along All other modes
 Value Taken    Lamda =  -0.00041304
 Step Taken.  Stepsize is  0.069570

                             Maximum     Tolerance    Cnvgd?
         Gradient            0.004422       0.000300      NO
         Displacement        0.062200       0.001200      NO
         Energy change     -0.000760       0.000001      NO


 New Cartesian Coordinates Obtained by Inverse Iteration

 Displacement from previous Coordinates is:  0.050162
 ----------------------------------------------------------------
             Standard Nuclear Orientation (Angstroms)
    I     Atom           X                Y                Z
 ----------------------------------------------------------------
    1      Se      3.2126664730     0.9988340303     0.6978596951
    2      C       0.4766103818    -1.8791465954     0.2169923600
    3      C      -0.7791631920    -1.4861999282    -0.3988406574
    4      C      -2.0441294079    -2.0490258089     0.2398856009
    5      Se     -0.8737717373     0.6226500711    -0.3866595868
    6      H      -1.0097051224     0.6916814515     1.0805270208
    7      H       1.9786375663     0.1848519498     0.7215039072
    8      H       1.4016196372    -1.8699422608    -0.3472571603
    9      H       0.5275690210    -2.0699601716     1.2848346013
   10      H      -0.7727294625    -1.6378588063    -1.4812206420
   11      H      -2.0807560525    -1.8209866481     1.3099375778
   12      H      -2.9443104919    -1.6441897187    -0.2271178458
   13      H      -2.0545376127    -3.1401115648     0.1310531292
 ----------------------------------------------------------------
 Nuclear Repulsion Energy =   502.1260535770 hartrees
 There are       48 alpha and       46 beta electrons

                       Distance Matrix (Angstroms)
             Se(  1)   C (  2)   C (  3)   C (  4)   Se(  5)   H (  6)
   C (  2)  4.000001
   C (  3)  4.828338  1.452799
   C (  4)  6.093693  2.526561  1.524757
   Se(  5)  4.244605  2.906358  2.111006  2.983312
   H (  6)  4.250788  3.092569  2.642886  3.047653  1.475086
   H (  7)  1.478497  2.602058  3.413657  4.626534  3.091267  3.052207
   H (  8)  3.549935  1.083561  2.214889  3.499999  3.375200  3.796705
   H (  9)  4.119683  1.085953  2.209771  2.775966  3.465227  3.167273
   H ( 10)  5.252040  2.122027  1.092972  2.178927  2.513598  3.470658
   H ( 11)  6.028793  2.781732  2.173971  1.094694  3.210391  2.741036
   H ( 12)  6.763839  3.457620  2.177685  1.091930  3.074272  3.302867
   H ( 13)  6.722766  2.829157  2.154714  1.096550  3.977513  4.083603
             H (  7)   H (  8)   H (  9)   H ( 10)   H ( 11)   H ( 12)
   H (  8)  2.386918
   H (  9)  2.739912  1.862175
   H ( 10)  3.967908  2.463236  3.086835
   H ( 11)  4.565996  3.856894  2.620301  3.087885
   H ( 12)  5.336731  4.353448  3.810673  2.507704  1.771870
   H ( 13)  5.260277  3.713103  3.023857  2.549357  1.769335  1.777010

 
 Applying Cartesian multipole field
    Component          Value
    ---------          -----
     (2,0,0)        1.00000E-11
     (0,2,0)        2.00000E-11
     (0,0,2)       -3.00000E-10
 Nucleus-field energy     =    -0.0000000079 hartrees
 Requested basis set is 6-31G(d,p)
 There are 52 shells and 155 basis functions
 A cutoff of  1.0D-14 yielded   1203 shell pairs
 There are     10420 function pairs
 Smallest overlap matrix eigenvalue = 6.74E-04
 Guess from superposition of atomic densities
 Warning:  Energy on first SCF cycle will be non-variational
 SAD guess density has 93.936381 electrons

 -----------------------------------------------------------------------
  General SCF calculation program by
  Eric Jon Sundstrom, Paul Horn, Yuezhi Mao, Dmitri Zuev, Alec White,
  David Stuck, Shaama M.S., Shane Yost, Joonho Lee, David Small,
  Daniel Levine, Susi Lehtola, Hugh Burton, Evgeny Epifanovsky
 -----------------------------------------------------------------------
 Exchange:     0.2000 Hartree-Fock + 0.0800 Slater + 0.7200 B88
 Correlation:  0.1900 VWN1RPA + 0.8100 LYP
 Using SG-1 standard quadrature grid
 using 12 threads for integral computing
 -------------------------------------------------------
 OpenMP Integral computing Module                
 Release: version 1.0, May 2013, Q-Chem Inc. Pittsburgh 
 -------------------------------------------------------
 -------------------------------------------------------
 OpenMP BLAS3 based DFT computing Module                
 Release: version 1.0, May 2013, Q-Chem Inc. Pittsburgh 
 -------------------------------------------------------
 A unrestricted SCF calculation will be
 performed using DIIS
 SCF converges when DIIS error is below 1.0e-06
 Alpha HF Exchange    Energy = -18.84362304363317
 Beta HF Exchange     Energy = -18.84362304363317
 DFT Correlation      Energy =  -5.12800219755237
 DFT Exchange         Energy = -149.85031146825480
 One-Electron (alpha) Energy = -3919.76917084862998
 One-Electron (beta)  Energy = -3919.76917084862998
 Total Coulomb        Energy = 2602.64064606143984
 ---------------------------------------
  Cycle       Energy         DIIS error
 ---------------------------------------
    1   -4927.4372018198      1.50e-01  
 Alpha HF Exchange    Energy = -19.06310021826209
 Beta HF Exchange     Energy = -18.86262496954454
 DFT Correlation      Energy =  -5.17577862989836
 DFT Exchange         Energy = -151.00746015919151
 One-Electron (alpha) Energy = -3952.86005266163284
 One-Electron (beta)  Energy = -3905.60171393104338
 Total Coulomb        Energy = 2628.96130130889560
    2   -4921.4833756916      9.32e-03  
 Alpha HF Exchange    Energy = -18.92532164568412
 Beta HF Exchange     Energy = -18.75504652519499
 DFT Correlation      Energy =  -5.13258891038627
 DFT Exchange         Energy = -149.97993876667317
 One-Electron (alpha) Energy = -3939.13535157319711
 One-Electron (beta)  Energy = -3894.25198399651526
 Total Coulomb        Energy = 2602.54935242802730
    3   -4921.5048254205      3.64e-03  
 Alpha HF Exchange    Energy = -19.03851747372687
 Beta HF Exchange     Energy = -18.84216577780117
 DFT Correlation      Energy =  -5.16548338676465
 DFT Exchange         Energy = -150.80744265667755
 One-Electron (alpha) Energy = -3948.97534496005073
 One-Electron (beta)  Energy = -3901.71148715935897
 Total Coulomb        Energy = 2620.95805415770292
    4   -4921.4563336876      3.45e-03  
 Alpha HF Exchange    Energy = -19.00623357718545
 Beta HF Exchange     Energy = -18.82752541533029
 DFT Correlation      Energy =  -5.15407703548280
 DFT Exchange         Energy = -150.58284159193977
 One-Electron (alpha) Energy = -3947.36634718118603
 One-Electron (beta)  Energy = -3901.68577469510774
 Total Coulomb        Energy = 2618.88454465199356
    5   -4921.6122012751      1.38e-03  
 Alpha HF Exchange    Energy = -18.99615510485322
 Beta HF Exchange     Energy = -18.81504295328050
 DFT Correlation      Energy =  -5.15187274709758
 DFT Exchange         Energy = -150.49756526947519
 One-Electron (alpha) Energy = -3945.80340990678815
 One-Electron (beta)  Energy = -3899.96165952175534
 Total Coulomb        Energy = 2615.46174722219439
    6   -4921.6379047119      2.63e-04  
 Alpha HF Exchange    Energy = -18.99561562295615
 Beta HF Exchange     Energy = -18.81400563380484
 DFT Correlation      Energy =  -5.15126924639225
 DFT Exchange         Energy = -150.49090466326030
 One-Electron (alpha) Energy = -3945.71117506953533
 One-Electron (beta)  Energy = -3899.81807258063054
 Total Coulomb        Energy = 2615.21556302531781
    7   -4921.6394262222      1.22e-04  
 Alpha HF Exchange    Energy = -18.99601825877019
 Beta HF Exchange     Energy = -18.81445365434589
 DFT Correlation      Energy =  -5.15154211728202
 DFT Exchange         Energy = -150.49421041985380
 One-Electron (alpha) Energy = -3945.67898444944194
 One-Electron (beta)  Energy = -3899.80710998794575
 Total Coulomb        Energy = 2615.17663718199083
    8   -4921.6396281365      5.62e-05  
 Alpha HF Exchange    Energy = -18.99599684706933
 Beta HF Exchange     Energy = -18.81465855438427
 DFT Correlation      Energy =  -5.15140036790343
 DFT Exchange         Energy = -150.49423333588993
 One-Electron (alpha) Energy = -3945.69511896354697
 One-Electron (beta)  Energy = -3899.84419348543997
 Total Coulomb        Energy = 2615.22987437754364
    9   -4921.6396736076      1.59e-05  
 Alpha HF Exchange    Energy = -18.99599442108640
 Beta HF Exchange     Energy = -18.81478302106000
 DFT Correlation      Energy =  -5.15139119920633
 DFT Exchange         Energy = -150.49454929565155
 One-Electron (alpha) Energy = -3945.68673339037559
 One-Electron (beta)  Energy = -3899.84731034464539
 Total Coulomb        Energy = 2615.22502839682238
   10   -4921.6396797061      8.21e-06  
 Alpha HF Exchange    Energy = -18.99599771147393
 Beta HF Exchange     Energy = -18.81477972788975
 DFT Correlation      Energy =  -5.15138031813077
 DFT Exchange         Energy = -150.49449083099395
 One-Electron (alpha) Energy = -3945.68201255706526
 One-Electron (beta)  Energy = -3899.84551474334830
 Total Coulomb        Energy = 2615.21844130111731
   11   -4921.6396810187      1.94e-06  
 Alpha HF Exchange    Energy = -18.99599846340606
 Beta HF Exchange     Energy = -18.81480499707233
 DFT Correlation      Energy =  -5.15137774135491
 DFT Exchange         Energy = -150.49455131200750
 One-Electron (alpha) Energy = -3945.68184785593712
 One-Electron (beta)  Energy = -3899.84877403083556
 Total Coulomb        Energy = 2615.22161946768347
   12   -4921.6396813638      8.90e-07  Convergence criterion met
 ---------------------------------------
 SCF time:   CPU 56.12s  wall 5.00s 
<S^2> =          2.011016195
 Alpha HF Exchange    Energy = -18.99599846340606
 Beta HF Exchange     Energy = -18.81480499707233
 DFT Correlation      Energy =  -5.15137774135491
 DFT Exchange         Energy = -150.49455131200750
 One-Electron (alpha) Energy = -3945.68184785593712
 One-Electron (beta)  Energy = -3899.84877403083556
 Total Coulomb        Energy = 2615.22161946768347
 Nuclear repulsion Energy = 502.12605356910655
 SCF   energy in the final basis set =    -4921.6396813638
 Total energy in the final basis set =    -4921.6396813638
 
 --------------------------------------------------------------
 
                    Orbital Energies (a.u.)
 --------------------------------------------------------------
 
 Alpha MOs
 -- Occupied --
*******-453.901 -58.101 -58.096 -52.160 -52.157 -52.154 -52.154
-52.153 -52.150 -10.244 -10.212 -10.198  -7.834  -7.829  -5.783
 -5.776  -5.774  -5.771  -5.764  -5.762  -2.115  -2.114  -2.108
 -2.108  -2.105  -2.101  -2.100  -2.099  -2.097  -2.096  -0.819
 -0.704  -0.694  -0.693  -0.587  -0.484  -0.440  -0.433  -0.393
 -0.385  -0.381  -0.363  -0.336  -0.284  -0.244  -0.242  -0.208
 -- Virtual --
 -0.013   0.027   0.047   0.093   0.116   0.122   0.151   0.158
  0.163   0.179   0.214   0.230   0.245   0.257   0.271   0.289
  0.309   0.326   0.385   0.441   0.443   0.497   0.516   0.523
  0.540   0.542   0.545   0.550   0.570   0.581   0.624   0.667
  0.683   0.713   0.750   0.775   0.809   0.818   0.857   0.874
  0.891   0.906   0.928   1.008   1.020   1.079   1.105   1.195
  1.349   1.425   1.433   1.483   1.528   1.634   1.706   1.766
  1.842   1.883   1.921   1.966   2.014   2.034   2.069   2.079
  2.081   2.086   2.104   2.125   2.144   2.272   2.300   2.345
  2.399   2.491   2.556   2.582   2.597   2.638   2.644   2.699
  2.740   2.819   2.863   2.915   3.178   3.270   3.379   3.406
  3.455   3.512   4.195   4.220   4.221   4.243   4.263   4.265
  4.297   4.338   4.375   4.393   4.435   4.474   4.610   5.409
  5.480  89.581  89.812
 
 Beta MOs
 -- Occupied --
*******-453.900 -58.099 -58.096 -52.156 -52.156 -52.153 -52.153
-52.152 -52.150 -10.245 -10.200 -10.198  -7.831  -7.828  -5.774
 -5.774  -5.773  -5.770  -5.763  -5.761  -2.109  -2.109  -2.107
 -2.106  -2.100  -2.100  -2.099  -2.097  -2.096  -2.095  -0.811
 -0.695  -0.676  -0.661  -0.578  -0.479  -0.438  -0.428  -0.389
 -0.381  -0.369  -0.360  -0.319  -0.235  -0.229
 -- Virtual --
 -0.161  -0.087  -0.004   0.032   0.062   0.096   0.119   0.129
  0.156   0.161   0.164   0.185   0.221   0.233   0.253   0.262
  0.283   0.300   0.314   0.333   0.396   0.447   0.453   0.503
  0.525   0.547   0.555   0.560   0.583   0.588   0.590   0.606
  0.637   0.672   0.687   0.718   0.754   0.781   0.817   0.832
  0.860   0.876   0.893   0.911   0.929   1.017   1.029   1.083
  1.109   1.203   1.366   1.427   1.453   1.500   1.544   1.640
  1.711   1.766   1.844   1.891   1.935   1.987   2.020   2.035
  2.071   2.078   2.082   2.090   2.106   2.126   2.150   2.277
  2.300   2.348   2.409   2.505   2.570   2.591   2.598   2.640
  2.645   2.701   2.741   2.821   2.863   2.918   3.178   3.272
  3.383   3.407   3.456   3.517   4.209   4.234   4.234   4.256
  4.266   4.267   4.301   4.340   4.381   4.398   4.444   4.478
  4.614   5.423   5.485  89.586  89.814
 --------------------------------------------------------------
 
          Ground-State Mulliken Net Atomic Charges

     Atom                 Charge (a.u.)    Spin (a.u.)
  --------------------------------------------------------
      1 Se                   -0.116004       1.013463
      2 C                    -0.216432       0.925151
      3 C                    -0.150551      -0.110609
      4 C                    -0.312100       0.008104
      5 Se                   -0.090038       0.270661
      6 H                     0.058922      -0.007025
      7 H                     0.076550      -0.027254
      8 H                     0.130968      -0.041463
      9 H                     0.115069      -0.041606
     10 H                     0.139354       0.011236
     11 H                     0.114122      -0.000930
     12 H                     0.130457       0.001264
     13 H                     0.119684      -0.000993
  --------------------------------------------------------
  Sum of atomic charges =    -0.000000
  Sum of spin   charges =     2.000000

 -----------------------------------------------------------------
                    Cartesian Multipole Moments
 -----------------------------------------------------------------
    Charge (ESU x 10^10)
                -0.0000
    Dipole Moment (Debye)
         X      -1.6440      Y      -2.3799      Z       0.3792
       Tot       2.9172
    Quadrupole Moments (Debye-Ang)
        XX     -63.0203     XY      -0.2697     YY     -57.0497
        XZ      -0.9527     YZ      -0.4821     ZZ     -56.6625
    Octopole Moments (Debye-Ang^2)
       XXX     -94.8516    XXY      -2.3695    XYY     -31.5356
       YYY      18.0446    XXZ      -5.0071    XYZ      -5.9234
       YYZ     -10.6000    XZZ     -32.6649    YZZ       0.4324
       ZZZ     -27.6292
    Hexadecapole Moments (Debye-Ang^3)
      XXXX   -1592.7280   XXXY    -235.3891   XXYY    -361.6127
      XYYY    -235.0136   YYYY    -648.4193   XXXZ    -123.8033
      XXYZ     -13.4496   XYYZ     -54.4578   YYYZ     -22.4414
      XXZZ    -297.5937   XYZZ     -90.4987   YYZZ    -139.7262
      XZZZ    -145.7311   YZZZ     -24.0693   ZZZZ    -177.6918
 -----------------------------------------------------------------
 Calculating analytic gradient of the SCF energy
 Gradient of SCF Energy
            1           2           3           4           5           6
    1  -0.0018279   0.0010465  -0.0000477   0.0000042  -0.0000224   0.0000317
    2  -0.0018401   0.0004662  -0.0000060   0.0000086   0.0000722  -0.0000169
    3  -0.0002938   0.0004089  -0.0000625  -0.0000397   0.0000631   0.0000109
            7           8           9          10          11          12
    1   0.0008737  -0.0000063  -0.0000874   0.0000356   0.0000018  -0.0000095
    2   0.0010199   0.0001647   0.0000391   0.0000909   0.0000039  -0.0000089
    3   0.0000014  -0.0000948  -0.0000277  -0.0000076   0.0000202   0.0000139
           13
    1   0.0000076
    2   0.0000064
    3   0.0000077
 Max gradient component =       1.840E-03
 RMS gradient           =       5.107E-04
 Gradient time:  CPU 18.00 s  wall 1.59 s
 Geometry Optimization Parameters
   NAtoms,    NIC,     NZ,  NCons,   NDum,   NFix, NCnnct, MaxDiis
       13      91       0       1       0       0       0       0

 Cartesian Hessian Update
 Hessian Updated using BFGS Update


** CONSTRAINED OPTIMIZATION IN DELOCALIZED INTERNAL COORDINATES **
   Searching for a Minimum

   Optimization Cycle:   4

                       Coordinates (Angstroms)
     ATOM                X               Y               Z
      1  Se        3.2126664730    0.9988340303    0.6978596951
      2  C         0.4766103818   -1.8791465954    0.2169923600
      3  C        -0.7791631920   -1.4861999282   -0.3988406574
      4  C        -2.0441294079   -2.0490258089    0.2398856009
      5  Se       -0.8737717373    0.6226500711   -0.3866595868
      6  H        -1.0097051224    0.6916814515    1.0805270208
      7  H         1.9786375663    0.1848519498    0.7215039072
      8  H         1.4016196372   -1.8699422608   -0.3472571603
      9  H         0.5275690210   -2.0699601716    1.2848346013
     10  H        -0.7727294625   -1.6378588063   -1.4812206420
     11  H        -2.0807560525   -1.8209866481    1.3099375778
     12  H        -2.9443104919   -1.6441897187   -0.2271178458
     13  H        -2.0545376127   -3.1401115648    0.1310531292
   Point Group: c1    Number of degrees of freedom:    33


   Energy is  -4921.639681364

              Constraints and their Current Values
                                        Value     Constraint
   Distance(Angs):        1   2             4.000001     4.000000
 Hessian Updated using BFGS Update

   Using Lagrange Multiplier Algorithm
[...]
   H ( 13)  6.721471  2.828765  2.154435  1.096578  3.977247  4.082252
             H (  7)   H (  8)   H (  9)   H ( 10)   H ( 11)   H ( 12)
   H (  8)  2.386993
   H (  9)  2.712912  1.861810
   H ( 10)  3.991166  2.462945  3.085786
   H ( 11)  4.552734  3.856644  2.620316  3.087384
   H ( 12)  5.344293  4.353155  3.810283  2.507193  1.772040
   H ( 13)  5.251354  3.710810  3.018473  2.546561  1.769333  1.776917

 
 Applying Cartesian multipole field
    Component          Value
    ---------          -----
     (2,0,0)        1.00000E-11
     (0,2,0)        2.00000E-11
     (0,0,2)       -3.00000E-10
 Nucleus-field energy     =    -0.0000000106 hartrees
 Requested basis set is 6-31G(d,p)
 There are 52 shells and 155 basis functions
 A cutoff of  1.0D-14 yielded   1203 shell pairs
 There are     10414 function pairs
 Smallest overlap matrix eigenvalue = 6.74E-04
 Guess from superposition of atomic densities
 Warning:  Energy on first SCF cycle will be non-variational
 SAD guess density has 93.936381 electrons

 -----------------------------------------------------------------------
  General SCF calculation program by
  Eric Jon Sundstrom, Paul Horn, Yuezhi Mao, Dmitri Zuev, Alec White,
  David Stuck, Shaama M.S., Shane Yost, Joonho Lee, David Small,
  Daniel Levine, Susi Lehtola, Hugh Burton, Evgeny Epifanovsky
 -----------------------------------------------------------------------
 Exchange:     0.2000 Hartree-Fock + 0.0800 Slater + 0.7200 B88
 Correlation:  0.1900 VWN1RPA + 0.8100 LYP
 Using SG-1 standard quadrature grid
 using 12 threads for integral computing
 -------------------------------------------------------
 OpenMP Integral computing Module                
 Release: version 1.0, May 2013, Q-Chem Inc. Pittsburgh 
 -------------------------------------------------------
 -------------------------------------------------------
 OpenMP BLAS3 based DFT computing Module                
 Release: version 1.0, May 2013, Q-Chem Inc. Pittsburgh 
 -------------------------------------------------------
 A unrestricted SCF calculation will be
 performed using DIIS
 SCF converges when DIIS error is below 1.0e-06
 Alpha HF Exchange    Energy = -18.84353285201709
 Beta HF Exchange     Energy = -18.84353285201709
 DFT Correlation      Energy =  -5.12792247401721
 DFT Exchange         Energy = -149.85009698490566
 One-Electron (alpha) Energy = -3918.70009056503432
 One-Electron (beta)  Energy = -3918.70009056503432
 Total Coulomb        Energy = 2601.57768477230593
 ---------------------------------------
  Cycle       Energy         DIIS error
 ---------------------------------------
    1   -4927.4328244170      1.50e-01  
 Alpha HF Exchange    Energy = -19.06300888368541
 Beta HF Exchange     Energy = -18.86264030709903
 DFT Correlation      Energy =  -5.17570930468711
 DFT Exchange         Energy = -151.00712026393651
 One-Electron (alpha) Energy = -3951.76506128881692
 One-Electron (beta)  Energy = -3904.56192550502874
 Total Coulomb        Energy = 2627.89638037727718
    2   -4921.4843280722      9.32e-03  
 Alpha HF Exchange    Energy = -18.92526256665075
 Beta HF Exchange     Energy = -18.75493056913109
 DFT Correlation      Energy =  -5.13247379037362
 DFT Exchange         Energy = -149.97919138430393
 One-Electron (alpha) Energy = -3938.03377925993800
 One-Electron (beta)  Energy = -3893.17498706857759
 Total Coulomb        Energy = 2601.43935020136769
    3   -4921.5065173338      3.62e-03  
 Alpha HF Exchange    Energy = -19.03860398776613
 Beta HF Exchange     Energy = -18.84166627608023
 DFT Correlation      Energy =  -5.16555349185711
 DFT Exchange         Energy = -150.80708481661648
 One-Electron (alpha) Energy = -3947.92321415368906
 One-Electron (beta)  Energy = -3900.73179884639558
 Total Coulomb        Energy = 2619.98427694999600
    4   -4921.4688875186      3.38e-03  
 Alpha HF Exchange    Energy = -19.00576289152783
 Beta HF Exchange     Energy = -18.82689566974385
 DFT Correlation      Energy =  -5.15385332504588
 DFT Exchange         Energy = -150.57851354106140
 One-Electron (alpha) Energy = -3946.22311909702466
 One-Electron (beta)  Energy = -3900.56195603051674
 Total Coulomb        Energy = 2617.68085058088582
    5   -4921.6144928703      1.33e-03  
 Alpha HF Exchange    Energy = -18.99609634730142
 Beta HF Exchange     Energy = -18.81491153526895
 DFT Correlation      Energy =  -5.15179325813426
 DFT Exchange         Energy = -150.49695076797991
 One-Electron (alpha) Energy = -3944.71062881890521
 One-Electron (beta)  Energy = -3898.89206545219940
 Total Coulomb        Energy = 2614.36950271558180
    6   -4921.6381863604      2.42e-04  
 Alpha HF Exchange    Energy = -18.99552071338471
 Beta HF Exchange     Energy = -18.81393681828429
 DFT Correlation      Energy =  -5.15117557406850
 DFT Exchange         Energy = -150.49027555107995
 One-Electron (alpha) Energy = -3944.61702357414924
 One-Electron (beta)  Energy = -3898.75448478741691
 Total Coulomb        Energy = 2614.12820126913175
    7   -4921.6394586455      1.19e-04  
 Alpha HF Exchange    Energy = -18.99592424076705
 Beta HF Exchange     Energy = -18.81441987882076
 DFT Correlation      Energy =  -5.15144453689412
 DFT Exchange         Energy = -150.49369081991478
 One-Electron (alpha) Energy = -3944.59100832484773
 One-Electron (beta)  Energy = -3898.75047621174735
 Total Coulomb        Energy = 2614.10255210044897
    8   -4921.6396548088      5.39e-05  
 Alpha HF Exchange    Energy = -18.99590830671324
 Beta HF Exchange     Energy = -18.81462067365444
 DFT Correlation      Energy =  -5.15131098172823
 DFT Exchange         Energy = -150.49374164050874
 One-Electron (alpha) Energy = -3944.60607481437319
 One-Electron (beta)  Energy = -3898.78592348556458
 Total Coulomb        Energy = 2614.15312537623913
    9   -4921.6396974225      1.50e-05  
 Alpha HF Exchange    Energy = -18.99590727680825
 Beta HF Exchange     Energy = -18.81474617844705
 DFT Correlation      Energy =  -5.15130037815147
 DFT Exchange         Energy = -150.49406098971951
 One-Electron (alpha) Energy = -3944.59858062341027
 One-Electron (beta)  Energy = -3898.78979688574555
 Total Coulomb        Energy = 2614.14993212482295
   10   -4921.6397031037      7.76e-06  
 Alpha HF Exchange    Energy = -18.99590920496855
 Beta HF Exchange     Energy = -18.81474250862588
 DFT Correlation      Energy =  -5.15129003989724
 DFT Exchange         Energy = -150.49399860039441
 One-Electron (alpha) Energy = -3944.59379740426402
 One-Electron (beta)  Energy = -3898.78784937221417
 Total Coulomb        Energy = 2614.14312570065795
   11   -4921.6397043259      1.89e-06  
 Alpha HF Exchange    Energy = -18.99590958751311
 Beta HF Exchange     Energy = -18.81476660595526
 DFT Correlation      Energy =  -5.15128737241852
 DFT Exchange         Energy = -150.49405441317847
 One-Electron (alpha) Energy = -3944.59360517160076
 One-Electron (beta)  Energy = -3898.79095158211385
 Total Coulomb        Energy = 2614.14611293157532
   12   -4921.6397046974      9.27e-07  Convergence criterion met
 ---------------------------------------
 SCF time:   CPU 56.93s  wall 5.00s 
<S^2> =          2.010938799
 Alpha HF Exchange    Energy = -18.99590958751311
 Beta HF Exchange     Energy = -18.81476660595526
 DFT Correlation      Energy =  -5.15128737241852
 DFT Exchange         Energy = -150.49405441317847
 One-Electron (alpha) Energy = -3944.59360517160076
 One-Electron (beta)  Energy = -3898.79095158211385
 Total Coulomb        Energy = 2614.14611293157532
 Nuclear repulsion Energy = 501.05475710376663
 SCF   energy in the final basis set =    -4921.6397046974
 Total energy in the final basis set =    -4921.6397046974
 
 --------------------------------------------------------------
 
                    Orbital Energies (a.u.)
 --------------------------------------------------------------
 
 Alpha MOs
 -- Occupied --
*******-453.901 -58.101 -58.096 -52.160 -52.157 -52.154 -52.154
-52.153 -52.150 -10.244 -10.212 -10.198  -7.835  -7.829  -5.783
 -5.776  -5.774  -5.771  -5.765  -5.762  -2.115  -2.115  -2.108
 -2.107  -2.105  -2.101  -2.100  -2.099  -2.097  -2.096  -0.819
 -0.703  -0.694  -0.693  -0.587  -0.484  -0.440  -0.433  -0.393
 -0.385  -0.381  -0.362  -0.335  -0.285  -0.244  -0.242  -0.208
 -- Virtual --
 -0.013   0.027   0.047   0.093   0.116   0.122   0.151   0.157
  0.163   0.179   0.214   0.230   0.245   0.258   0.271   0.289
  0.309   0.325   0.383   0.441   0.443   0.498   0.517   0.522
  0.540   0.542   0.544   0.550   0.570   0.581   0.622   0.667
  0.683   0.714   0.751   0.776   0.809   0.820   0.857   0.874
  0.891   0.905   0.927   1.009   1.021   1.078   1.105   1.195
  1.349   1.423   1.433   1.484   1.527   1.635   1.706   1.765
  1.843   1.884   1.923   1.965   2.013   2.034   2.068   2.079
  2.081   2.085   2.104   2.123   2.143   2.273   2.300   2.344
  2.399   2.493   2.556   2.581   2.598   2.635   2.644   2.698
  2.739   2.819   2.863   2.916   3.178   3.270   3.378   3.406
  3.455   3.512   4.195   4.220   4.221   4.242   4.263   4.265
  4.297   4.338   4.375   4.393   4.436   4.474   4.611   5.408
  5.479  89.580  89.810
 
 Beta MOs
 -- Occupied --
*******-453.900 -58.100 -58.095 -52.157 -52.156 -52.154 -52.153
-52.152 -52.149 -10.245 -10.200 -10.198  -7.831  -7.828  -5.775
 -5.774  -5.773  -5.769  -5.763  -5.761  -2.110  -2.109  -2.107
 -2.106  -2.100  -2.100  -2.099  -2.097  -2.096  -2.095  -0.811
 -0.694  -0.676  -0.661  -0.578  -0.479  -0.437  -0.428  -0.389
 -0.381  -0.369  -0.360  -0.319  -0.235  -0.230
 -- Virtual --
 -0.161  -0.087  -0.004   0.032   0.062   0.096   0.119   0.129
  0.156   0.161   0.164   0.185   0.220   0.233   0.253   0.262
  0.283   0.300   0.313   0.333   0.394   0.447   0.453   0.503
  0.525   0.547   0.555   0.560   0.583   0.587   0.591   0.606
  0.635   0.672   0.686   0.719   0.754   0.782   0.817   0.834
  0.860   0.876   0.893   0.910   0.929   1.018   1.030   1.082
  1.110   1.203   1.366   1.427   1.451   1.500   1.543   1.640
  1.710   1.766   1.844   1.892   1.937   1.987   2.019   2.035
  2.071   2.078   2.082   2.089   2.106   2.124   2.149   2.278
  2.300   2.347   2.410   2.506   2.570   2.590   2.599   2.636
  2.646   2.701   2.740   2.821   2.863   2.918   3.178   3.273
  3.382   3.408   3.456   3.517   4.209   4.233   4.234   4.255
  4.265   4.267   4.301   4.341   4.381   4.398   4.445   4.478
  4.615   5.422   5.484  89.585  89.812
 --------------------------------------------------------------
 
          Ground-State Mulliken Net Atomic Charges

     Atom                 Charge (a.u.)    Spin (a.u.)
  --------------------------------------------------------
      1 Se                   -0.115008       1.015256
      2 C                    -0.216854       0.925466
      3 C                    -0.150462      -0.110097
      4 C                    -0.312468       0.008005
      5 Se                   -0.089791       0.268099
      6 H                     0.059035      -0.006966
      7 H                     0.075874      -0.027371
      8 H                     0.130803      -0.041513
      9 H                     0.115305      -0.041715
     10 H                     0.139296       0.011493
     11 H                     0.114173      -0.000910
     12 H                     0.130459       0.001247
     13 H                     0.119638      -0.000993
  --------------------------------------------------------
  Sum of atomic charges =    -0.000000
  Sum of spin   charges =     2.000000

 -----------------------------------------------------------------
                    Cartesian Multipole Moments
 -----------------------------------------------------------------
    Charge (ESU x 10^10)
                -0.0000
    Dipole Moment (Debye)
         X      -1.6233      Y      -2.3844      Z       0.3688
       Tot       2.9080
    Quadrupole Moments (Debye-Ang)
        XX     -62.9873     XY      -0.2643     YY     -56.9371
        XZ      -0.9984     YZ      -0.4428     ZZ     -56.7645
    Octopole Moments (Debye-Ang^2)
       XXX     -94.4226    XXY      -2.3056    XYY     -31.2055
       YYY      18.1448    XXZ      -5.1930    XYZ      -5.8620
       YYZ     -10.8107    XZZ     -32.5455    YZZ       0.2487
       ZZZ     -28.8973
    Hexadecapole Moments (Debye-Ang^3)
      XXXX   -1597.2953   XXXY    -234.6246   XXYY    -361.0564
      XYYY    -233.8759   YYYY    -645.7023   XXXZ    -131.5882
      XXYZ     -13.3687   XYYZ     -56.7574   YYYZ     -23.9537
      XXZZ    -299.4286   XYZZ     -90.5157   YYZZ    -140.9666
      XZZZ    -154.4841   YZZZ     -26.0758   ZZZZ    -186.7593
 -----------------------------------------------------------------
 Calculating analytic gradient of the SCF energy
 Gradient of SCF Energy
            1           2           3           4           5           6
    1  -0.0009429   0.0008618  -0.0000290   0.0000086  -0.0000163  -0.0000008
    2  -0.0009537   0.0008958   0.0000763  -0.0000120  -0.0000158  -0.0000135
    3   0.0000333   0.0002761   0.0000248  -0.0000015   0.0000071   0.0000221
            7           8           9          10          11          12
    1   0.0001215  -0.0000331   0.0000089  -0.0000025   0.0000035   0.0000039
    2   0.0001846   0.0000445  -0.0001323  -0.0000232  -0.0000212  -0.0000181
    3  -0.0002793  -0.0000149  -0.0000378  -0.0000036  -0.0000040  -0.0000044
           13
    1   0.0000164
    2  -0.0000112
    3  -0.0000179
 Max gradient component =       9.537E-04
 RMS gradient           =       3.030E-04
 Gradient time:  CPU 17.65 s  wall 1.60 s
 Geometry Optimization Parameters
   NAtoms,    NIC,     NZ,  NCons,   NDum,   NFix, NCnnct, MaxDiis
       13      91       0       1       0       0       0       0

 Cartesian Hessian Update
 Hessian Updated using BFGS Update


** CONSTRAINED OPTIMIZATION IN DELOCALIZED INTERNAL COORDINATES **
   Searching for a Minimum

   Optimization Cycle:  10

                       Coordinates (Angstroms)
     ATOM                X               Y               Z
      1  Se        3.2149715752    0.9973200645    0.7388971743
      2  C         0.4782318494   -1.8702909246    0.2031146501
      3  C        -0.7842134476   -1.4850281966   -0.4041798311
      4  C        -2.0414400986   -2.0485315111    0.2490471772
      5  Se       -0.8829749356    0.6217202267   -0.4081153423
      6  H        -1.0198498582    0.7034480126    1.0582331761
      7  H         1.9893092910    0.1642747859    0.7381270505
      8  H         1.3978755561   -1.8656549343   -0.3697209828
      9  H         0.5383975147   -2.0655659544    1.2696898495
     10  H        -0.7869785593   -1.6463154174   -1.4852477529
     11  H        -2.0694585856   -1.8149729752    1.3180969404
     12  H        -2.9470682567   -1.6495743724   -0.2124490349
     13  H        -2.0488020445   -3.1402328037    0.1460049259
   Point Group: c1    Number of degrees of freedom:    33


   Energy is  -4921.639704697

              Constraints and their Current Values
                                        Value     Constraint
   Distance(Angs):        1   2             4.000000     4.000000
 Hessian Updated using BFGS Update

 32 Hessian modes will be used to form the next step
  Hessian Eigenvalues:
     0.004199    0.016876    0.045000    0.045166    0.049445    0.053148
     0.055414    0.068153    0.077315    0.081674    0.082994    0.084389
     0.104406    0.115150    0.117726    0.122472    0.159849    0.160006
     0.160021    0.160048    0.180045    0.185176    0.200082    0.222232
     0.299569    0.335244    0.340642    0.342801    0.344665    0.345905
     0.352912    0.381078

 Minimum Search - Taking Simple RFO Step
 Searching for Lamda that Minimizes Along All modes
 Value Taken    Lamda =  -0.00000201
 Step Taken.  Stepsize is  0.017804

                             Maximum     Tolerance    Cnvgd?
         Gradient           0.000103      0.000300     YES
         Displacement       0.011916      0.001200      NO
         Energy change     -0.000001      0.000001     YES


                       Distance Matrix (Angstroms)
             Se(  1)   C (  2)   C (  3)   C (  4)   Se(  5)   H (  6)
   C (  2)  4.000000
   C (  3)  4.843775  1.452929
   C (  4)  6.094836  2.526386  1.524749
   Se(  5)  4.271988  2.904584  2.109066  2.983982
   H (  6)  4.257000  3.098324  2.642651  3.044966  1.474989
   H (  7)  1.481963  2.590184  3.423082  4.624138  3.126203  3.073795
   H (  8)  3.567562  1.083470  2.215305  3.499316  3.375024  3.805882
   H (  9)  4.102080  1.085972  2.210919  2.774448  3.472296  3.184382
   H ( 10)  5.286893  2.121672  1.093037  2.177896  2.512651  3.470578
   H ( 11)  6.014122  2.781541  2.174156  1.094624  3.213258  2.740739
   H ( 12)  6.773614  3.457469  2.177562  1.091929  3.075312  3.296289
   H ( 13)  6.721471  2.828765  2.154435  1.096578  3.977247  4.082252
             H (  7)   H (  8)   H (  9)   H ( 10)   H ( 11)   H ( 12)
   H (  8)  2.386993
   H (  9)  2.712912  1.861810
   H ( 10)  3.991166  2.462945  3.085786
   H ( 11)  4.552734  3.856644  2.620316  3.087384
   H ( 12)  5.344293  4.353155  3.810283  2.507193  1.772040
   H ( 13)  5.251354  3.710810  3.018473  2.546561  1.769333  1.776917

 
 Final energy is   -4921.63970469744     


 ******************************
 **  OPTIMIZATION CONVERGED  **
 ******************************

                       Coordinates (Angstroms)
     ATOM                X               Y               Z
      1  Se        3.2149715752    0.9973200645    0.7388971743
      2  C         0.4782318494   -1.8702909246    0.2031146501
      3  C        -0.7842134476   -1.4850281966   -0.4041798311
      4  C        -2.0414400986   -2.0485315111    0.2490471772
      5  Se       -0.8829749356    0.6217202267   -0.4081153423
      6  H        -1.0198498582    0.7034480126    1.0582331761
      7  H         1.9893092910    0.1642747859    0.7381270505
      8  H         1.3978755561   -1.8656549343   -0.3697209828
      9  H         0.5383975147   -2.0655659544    1.2696898495
     10  H        -0.7869785593   -1.6463154174   -1.4852477529
     11  H        -2.0694585856   -1.8149729752    1.3180969404
     12  H        -2.9470682567   -1.6495743724   -0.2124490349
     13  H        -2.0488020445   -3.1402328037    0.1460049259

Z-matrix Print:
$molecule
0 3
Se
H  1 1.474989
C  1 2.109066 2 93.315756
H  3 1.093037 1 98.362336 2 174.275397 0
C  3 1.452929 1 107.838763 2 -69.170509 0
H  5 1.083470 3 121.023725 1 -81.299455 0
H  5 1.085972 3 120.419919 1 92.020058 0
C  3 1.524749 1 109.350939 2 57.859015 0
H  8 1.091929 3 111.578071 1 53.128013 0
H  8 1.094624 3 111.140563 1 -67.834255 0
H  8 1.096578 3 109.463493 1 173.325634 0
H  6 2.386993 5 88.198666 3 103.502178 0
Se 12 1.481963 6 133.094198 5 173.802542 0
$end

PES scan, value:    4.0000 energy: -4921.6397046974
------- Summary of potential scan: ------ 
    4.0000     -4921.6397046974
----------------------------------------- 
Archival summary:
1\1\hpc0248\JobtypUnspecified\ProcedureUnspecified\6-31G**\e238(3)\knomura\ThuMar1409:37:252019ThuMar1409:37:252019\0\\#,JobtypUnspecified,ProcedureUnspecified,6-31G**,\\0,3\Se\H,1,1.47499\C,1,2.10907,2,93.3158\H,3,1.09304,1,98.3623,2,174.275,0\C,3,1.45293,1,107.839,2,-69.1705,0\H,5,1.08347,3,121.024,1,-81.2995,0\H,5,1.08597,3,120.42,1,92.0201,0\C,3,1.52475,1,109.351,2,57.859,0\H,8,1.09193,3,111.578,1,53.128,0\H,8,1.09462,3,111.141,1,-67.8343,0\H,8,1.09658,3,109.463,1,173.326,0\H,6,2.38699,5,88.1987,3,103.502,0\Se,12,1.48196,6,133.094,5,173.803,0\\\@

 Total job time:  68.67s(wall), 799.10s(cpu) 
 Thu Mar 14 09:37:25 2019

        *************************************************************
        *                                                           *
        *  Thank you very much for using Q-Chem.  Have a nice day.  *
        *                                                           *
        *************************************************************


