
Running Job 1 of 1 selenium/03/C-Se.xyz.data/inputs/bond_triplet_4.1.in
qchem selenium/03/C-Se.xyz.data/inputs/bond_triplet_4.1.in_12623.0 /staging/scratch/2868765/qchem12623/ 1
/usr/usc/qchem/5.1.1/exe/qcprog.exe_s selenium/03/C-Se.xyz.data/inputs/bond_triplet_4.1.in_12623.0 /staging/scratch/2868765/qchem12623/
Check license passed

                  Welcome to Q-Chem
     A Quantum Leap Into The Future Of Chemistry


 Q-Chem 5.1, Q-Chem, Inc., Pleasanton, CA (2018)

 Yihan Shao,  Zhengting Gan,  E. Epifanovsky,  A. T. B. Gilbert,  M. Wormit,  
 J. Kussmann,  A. W. Lange,  A. Behn,  Jia Deng,  Xintian Feng,  D. Ghosh,  
 M. Goldey,  P. R. Horn,  L. D. Jacobson,  I. Kaliman,  T. Kus,  A. Landau,  
 Jie Liu,  E. I. Proynov,  R. M. Richard,  R. P. Steele,  E. J. Sundstrom,  
 H. L. Woodcock III,  P. M. Zimmerman,  D. Zuev,  B. Albrecht,  E. Alguire,  
 S. A. Baeppler,  D. Barton,  Z. Benda,  Y. A. Bernard,  E. J. Berquist,  
 K. B. Bravaya,  H. Burton,  D. Casanova,  Chun-Min Chang,  Yunqing Chen,  
 A. Chien,  K. D. Closser,  M. P. Coons,  S. Coriani,  S. Dasgupta,  
 A. L. Dempwolff,  M. Diedenhofen,  Hainam Do,  R. G. Edgar,  Po-Tung Fang,  
 S. Faraji,  S. Fatehi,  Qingguo Feng,  K. D. Fenk,  J. Fosso-Tande,  
 Qinghui Ge,  A. Ghysels,  G. Gidofalvi,  J. Gomes,  J. Gonthier,  A. Gunina,  
 D. Hait,  M. W. D. Hanson-Heine,  P. H. P. Harbach,  A. W. Hauser,  
 J. E. Herr,  E. G. Hohenstein,  Z. C. Holden,  Kerwin Hui,  B. C. Huynh,  
 T.-C. Jagau,  Hyunjun Ji,  B. Kaduk,  K. Khistyaev,  Jaehoon Kim,  
 P. Klunzinger,  K. Koh,  D. Kosenkov,  L. Koulias,  T. Kowalczyk,  
 C. M. Krauter,  A. Kunitsa,  Ka Un Lao,  A. Laurent,  K. V. Lawler,  
 Joonho Lee,  D. Lefrancois,  S. Lehtola,  D. S. Levine,  Yi-Pei Li,  
 You-Sheng Lin,  Fenglai Liu,  E. Livshits,  A. Luenser,  P. Manohar,  
 E. Mansoor,  S. F. Manzer,  Shan-Ping Mao,  Yuezhi Mao,  N. Mardirossian,  
 A. V. Marenich,  T. Markovich,  L. A. Martinez-Martinez,  S. A. Maurer,  
 N. J. Mayhall,  S. C. McKenzie,  J.-M. Mewes,  A. F. Morrison,  
 J. W. Mullinax,  K. Nanda,  T. S. Nguyen-Beck,  R. Olivares-Amaya,  
 J. A. Parkhill,  T. M. Perrine,  F. Plasser,  P. Pokhilko,  S. Prager,  
 A. Prociuk,  E. Ramos,  D. R. Rehn,  F. Rob,  M. Schneider,  N. Sergueev,  
 S. M. Sharada,  S. Sharma,  D. W. Small,  T. Stauch,  T. Stein,  
 Yu-Chuan Su,  A. J. W. Thom,  A. Tkatchenko,  T. Tsuchimochi,  N. M. Tubman,  
 L. Vogt,  M. L. Vidal,  O. Vydrov,  M. A. Watson,  J. Wenzel,  
 M. de Wergifosse,  T. A. Wesolowski,  A. White,  J. Witte,  A. Yamada,  
 Jun Yang,  K. Yao,  S. Yeganeh,  S. R. Yost,  Zhi-Qiang You,  A. Zech,  
 Igor Ying Zhang,  Xing Zhang,  Yan Zhao,  Ying Zhu,  B. R. Brooks,  
 G. K. L. Chan,  C. J. Cramer,  M. S. Gordon,  W. J. Hehre,  A. Klamt,  
 M. W. Schmidt,  C. D. Sherrill,  D. G. Truhlar,  A. Aspuru-Guzik,  R. Baer,  
 A. T. Bell,  N. A. Besley,  Jeng-Da Chai,  A. E. DePrince, III,  
 R. A. DiStasio Jr.,  A. Dreuw,  B. D. Dunietz,  T. R. Furlani,  
 Chao-Ping Hsu,  Yousung Jung,  Jing Kong,  D. S. Lambrecht,  WanZhen Liang,  
 C. Ochsenfeld,  V. A. Rassolov,  L. V. Slipchenko,  J. E. Subotnik,  
 T. Van Voorhis,  J. M. Herbert,  A. I. Krylov,  P. M. W. Gill,  M. Head-Gordon

 Contributors to earlier versions of Q-Chem not listed above: 
 R. D. Adamson,  B. Austin,  J. Baker,  G. J. O. Beran,  K. Brandhorst,  
 S. T. Brown,  E. F. C. Byrd,  A. K. Chakraborty,  C.-L. Cheng,  
 Siu Hung Chien,  D. M. Chipman,  D. L. Crittenden,  H. Dachsel,  
 R. J. Doerksen,  A. D. Dutoi,  L. Fusti-Molnar,  W. A. Goddard III,  
 A. Golubeva-Zadorozhnaya,  S. R. Gwaltney,  G. Hawkins,  A. Heyden,  
 S. Hirata,  G. Kedziora,  F. J. Keil,  C. Kelley,  Jihan Kim,  R. A. King,  
 R. Z. Khaliullin,  P. P. Korambath,  W. Kurlancheek,  A. M. Lee,  M. S. Lee,  
 S. V. Levchenko,  Ching Yeh Lin,  D. Liotard,  R. C. Lochan,  I. Lotan,  
 P. E. Maslen,  N. Nair,  D. P. O'Neill,  D. Neuhauser,  E. Neuscamman,  
 C. M. Oana,  R. Olson,  B. Peters,  R. Peverati,  P. A. Pieniazek,  
 Y. M. Rhee,  J. Ritchie,  M. A. Rohrdanz,  E. Rosta,  N. J. Russ,  
 H. F. Schaefer III,  N. E. Schultz,  N. Shenvi,  A. C. Simmonett,  A. Sodt,  
 D. Stuck,  K. S. Thanthiriwatte,  V. Vanovschi,  Tao Wang,  A. Warshel,  
 C. F. Williams,  Q. Wu,  X. Xu,  W. Zhang

 Please cite Q-Chem as follows:
 Y. Shao et al., Mol. Phys. 113, 184-215 (2015)
 DOI: 10.1080/00268976.2014.952696

 Q-Chem 5.1.1 for Intel X86 EM64T Linux

 Parts of Q-Chem use Armadillo 8.300.2 (Tropical Shenanigans).
 http://arma.sourceforge.net/

 Q-Chem begins on Thu Mar 14 09:35:06 2019  

Host: 
0

     Scratch files written to /staging/scratch/2868765/qchem12623//
 Aug318 |scratch|qcdevops|jenkins|workspace|build_RNUM 6013   
Processing $rem in /usr/usc/qchem/5.1.1/config/preferences.
 MEM_TOTAL  2000 
Input Ideriv = 2
Curr. Ideriv = -1
Max.  Ideriv = 2

Checking the input file for inconsistencies... 	...done.

--------------------------------------------------------------
User input:
--------------------------------------------------------------

$comment
potential surface scanner
$end

$rem
JOBTYPE  PES_SCAN
UNRESTRICTED TRUE
SYM_IGNORE  TRUE
GEOM_OPT_MAX_CYCLES 400
SCF_MAX_CYCLES 400
METHOD   B3LYP
BASIS   6-31G**
PDB_PRINT 2
SCF_CONVERGENCE 6
THRESH 14
SCF_PRINT 1
$end
$molecule
0 3
Se 3.317876 1.119975 0.648757
C 0.446308 -1.918782 0.248694
C -0.790947 -1.502412 -0.386865
C -2.075870 -2.060595 0.215023
Se -0.856035 0.607174 -0.334965
H -0.992351 0.647133 1.133389
H 2.083849 0.297650 0.654017
H 1.385654 -1.898250 -0.291440
H 0.474044 -2.120160 1.315469
H -0.763537 -1.634970 -1.471486
H -2.134448 -1.847519 1.287185
H -2.960863 -1.638856 -0.265930
H -2.095681 -3.149794 0.089651
$end
$scan
stre 1 2 4.100000 4.101000 0.100000
$end
--------------------------------------------------------------
 ----------------------------------------------------------------
             Standard Nuclear Orientation (Angstroms)
    I     Atom           X                Y                Z
 ----------------------------------------------------------------
    1      Se      3.3178760000     1.1199750000     0.6487570000
    2      C       0.4463080000    -1.9187820000     0.2486940000
    3      C      -0.7909470000    -1.5024120000    -0.3868650000
    4      C      -2.0758700000    -2.0605950000     0.2150230000
    5      Se     -0.8560350000     0.6071740000    -0.3349650000
    6      H      -0.9923510000     0.6471330000     1.1333890000
    7      H       2.0838490000     0.2976500000     0.6540170000
    8      H       1.3856540000    -1.8982500000    -0.2914400000
    9      H       0.4740440000    -2.1201600000     1.3154690000
   10      H      -0.7635370000    -1.6349700000    -1.4714860000
   11      H      -2.1344480000    -1.8475190000     1.2871850000
   12      H      -2.9608630000    -1.6388560000    -0.2659300000
   13      H      -2.0956810000    -3.1497940000     0.0896510000
 ----------------------------------------------------------------
 Nuclear Repulsion Energy =   496.0967656555 hartrees
 There are       48 alpha and       46 beta electrons
 Requested basis set is 6-31G(d,p)
 There are 52 shells and 155 basis functions

 Total QAlloc Memory Limit   2000 MB
 Mega-Array Size       188 MB
 MEM_STATIC part       192 MB
A total of 1 constraints
  
            1
    1   1.0100000
    2   1.0100000
    3   2.0100000
    4   4.1000000
    5   4.1010000
    6   0.1000000
    7   0.0000000
    8   0.0000000
    9   0.0000000
   10   0.0000000

                       Distance Matrix (Angstroms)
             Se(  1)   C (  2)   C (  3)   C (  4)   Se(  5)   H (  6)
   C (  2)  4.200000
   C (  3)  4.983157  1.451929
   C (  4)  6.276675  2.526386  1.524751
   Se(  5)  4.318820  2.901243  2.111228  2.984539
   H (  6)  4.363084  3.071863  2.640507  3.057646  1.475209
   H (  7)  1.482926  2.785390  3.547973  4.801801  3.117180  3.132881
   H (  8)  3.705015  1.083761  2.214359  3.502143  3.362174  3.763512
   H (  9)  4.362380  1.085970  2.209017  2.777875  3.454185  3.137097
   H ( 10)  5.361258  2.122096  1.093035  2.178919  2.515441  3.470695
   H ( 11)  6.240308  2.782776  2.174060  1.094698  3.207994  2.747968
   H ( 12)  6.918841  3.457168  2.177562  1.091967  3.078915  3.325489
   H ( 13)  6.917379  2.828850  2.154824  1.096570  3.978923  4.089423
             H (  7)   H (  8)   H (  9)   H ( 10)   H ( 11)   H ( 12)
   H (  8)  2.490651
   H (  9)  2.979060  1.860762
   H ( 10)  4.044798  2.465937  3.087739
   H ( 11)  4.774587  3.858205  2.622854  3.087854
   H ( 12)  5.481375  4.354325  3.811963  2.506316  1.771629
   H ( 13)  5.447187  3.719044  3.027584  2.550774  1.769608  1.777051

 
 A cutoff of  1.0D-14 yielded   1198 shell pairs
 There are     10374 function pairs
 
 -------------------------------------------------------
 OpenMP Integral Computing Module                       
 Release: version 1.0, May 2013, Q-Chem Inc. Pittsburgh 
 -------------------------------------------------------
 Integral Job Info:
 Integral job number is                      11
 Integral operator is                         1
 short-range coefficients                     0
 long-range coefficients              100000000
 Omega coefficients                           0
 if combine SR and LR in K                    0
 Integral screening is                        0
 Integral computing path is                   2
 max size of driver memory is            800000
 size of driver memory is                593474
 size of scratch memory is             15267112
 max col of scratch BK array               1296
 max len of scratch array in speh3          155
 max len of scratch index in speh4           18
 max int batch size is                      520
 min int batch size is                       52
 fixed nKL is                                52
 max L of basis functions is                  2
 order of int derivative is                   0
 number of shells is                         52
 number of basis is                         155
 number of cartesian basis is               155
 number of contracted shell pairs          1198
 number of primitive shell pairs           4712
 maxK2 (contraction) of shell pair           36
 max number of K2 of shell pair               1
 max number of CS2 of shell pair             83
 max number of PS2 of shell pair            480
 mem total for path MDJ                  528444
 -------------------------------------------------------
 Smallest overlap matrix eigenvalue = 6.74E-04

 Scale SEOQF with 1.000000e-01/1.000000e-01/1.000000e+00

 Standard Electronic Orientation quadrupole field applied
 Nucleus-field energy     =    -0.0000000025 hartrees
 Guess from superposition of atomic densities
 Warning:  Energy on first SCF cycle will be non-variational
 SAD guess density has 93.936381 electrons

 -----------------------------------------------------------------------
  General SCF calculation program by
  Eric Jon Sundstrom, Paul Horn, Yuezhi Mao, Dmitri Zuev, Alec White,
  David Stuck, Shaama M.S., Shane Yost, Joonho Lee, David Small,
  Daniel Levine, Susi Lehtola, Hugh Burton, Evgeny Epifanovsky
 -----------------------------------------------------------------------
 Exchange:     0.2000 Hartree-Fock + 0.0800 Slater + 0.7200 B88
 Correlation:  0.1900 VWN1RPA + 0.8100 LYP
 Using SG-1 standard quadrature grid
 using 12 threads for integral computing
 -------------------------------------------------------
 OpenMP Integral computing Module                
 Release: version 1.0, May 2013, Q-Chem Inc. Pittsburgh 
 -------------------------------------------------------
 -------------------------------------------------------
 OpenMP BLAS3 based DFT computing Module                
 Release: version 1.0, May 2013, Q-Chem Inc. Pittsburgh 
 -------------------------------------------------------
 A unrestricted SCF calculation will be
 performed using DIIS
 SCF converges when DIIS error is below 1.0e-06
 Alpha HF Exchange    Energy = -18.84293190867913
 Beta HF Exchange     Energy = -18.84293190867913
 DFT Correlation      Energy =  -5.12715190695190
 DFT Exchange         Energy = -149.84906347904385
 One-Electron (alpha) Energy = -3913.74567734719221
 One-Electron (beta)  Energy = -3913.74567734719221
 Total Coulomb        Energy = 2596.63945299637044
 ---------------------------------------
  Cycle       Energy         DIIS error
 ---------------------------------------
    1   -4927.4172152483      1.50e-01  
 Alpha HF Exchange    Energy = -19.06300204583713
 Beta HF Exchange     Energy = -18.86310014145277
 DFT Correlation      Energy =  -5.17516990582140
 DFT Exchange         Energy = -151.00809238866648
 One-Electron (alpha) Energy = -3946.64659968548449
 One-Electron (beta)  Energy = -3899.80272953386748
 Total Coulomb        Energy = 2622.97418146725204
    2   -4921.4877465808      9.31e-03  
 Alpha HF Exchange    Energy = -18.92503560582468
 Beta HF Exchange     Energy = -18.75460428665952
 DFT Correlation      Energy =  -5.13164023216488
 DFT Exchange         Energy = -149.97648534432253
 One-Electron (alpha) Energy = -3932.86389498011067
 One-Electron (beta)  Energy = -3888.33770706279893
 Total Coulomb        Energy = 2596.37967261249332
    3   -4921.5129292464      3.58e-03  
 Alpha HF Exchange    Energy = -19.03908568081823
 Beta HF Exchange     Energy = -18.84211166592940
 DFT Correlation      Energy =  -5.16527038675481
 DFT Exchange         Energy = -150.80941176836853
 One-Electron (alpha) Energy = -3942.87953041911578
 One-Electron (beta)  Energy = -3896.26302080734513
 Total Coulomb        Energy = 2615.37954943525392
    4   -4921.5221156400      3.05e-03  
 Alpha HF Exchange    Energy = -19.00349006705401
 Beta HF Exchange     Energy = -18.82386860122317
 DFT Correlation      Energy =  -5.15246994299147
 DFT Exchange         Energy = -150.55745908735915
 One-Electron (alpha) Energy = -3940.82216276168401
 One-Electron (beta)  Energy = -3895.45449480547177
 Total Coulomb        Energy = 2612.09197561929932
    5   -4921.6252039935      1.05e-03  
 Alpha HF Exchange    Energy = -18.99599569433278
 Beta HF Exchange     Energy = -18.81468738503325
 DFT Correlation      Energy =  -5.15119882523012
 DFT Exchange         Energy = -150.49584459405008
 One-Electron (alpha) Energy = -3939.55268953233235
 One-Electron (beta)  Energy = -3894.07137321152186
 Total Coulomb        Energy = 2609.34560936884236
    6   -4921.6394142206      1.44e-04  
 Alpha HF Exchange    Energy = -18.99520102448863
 Beta HF Exchange     Energy = -18.81401368813003
 DFT Correlation      Energy =  -5.15048941392426
 DFT Exchange         Energy = -150.48870161522836
 One-Electron (alpha) Energy = -3939.43031784684581
 One-Electron (beta)  Energy = -3893.95637321113463
 Total Coulomb        Energy = 2609.09852335655705
    7   -4921.6398077902      9.51e-05  
 Alpha HF Exchange    Energy = -18.99566699420313
 Beta HF Exchange     Energy = -18.81464244815891
 DFT Correlation      Energy =  -5.15071588610156
 DFT Exchange         Energy = -150.49280290598702
 One-Electron (alpha) Energy = -3939.44277885812608
 One-Electron (beta)  Energy = -3893.99181031448279
 Total Coulomb        Energy = 2609.15169859191883
    8   -4921.6399531621      3.57e-05  
 Alpha HF Exchange    Energy = -18.99570936033744
 Beta HF Exchange     Energy = -18.81482157221295
 DFT Correlation      Energy =  -5.15064449702439
 DFT Exchange         Energy = -150.49318009086062
 One-Electron (alpha) Energy = -3939.45425148029608
 One-Electron (beta)  Energy = -3894.01997482153274
 Total Coulomb        Energy = 2609.19184116344468
    9   -4921.6399750058      1.06e-05  
 Alpha HF Exchange    Energy = -18.99571883366580
 Beta HF Exchange     Energy = -18.81493174816424
 DFT Correlation      Energy =  -5.15063040035150
 DFT Exchange         Energy = -150.49348658403375
 One-Electron (alpha) Energy = -3939.45028228454248
 One-Electron (beta)  Energy = -3894.02593305756818
 Total Coulomb        Energy = 2609.19423858649861
   10   -4921.6399786688      5.41e-06  
 Alpha HF Exchange    Energy = -18.99571404570866
 Beta HF Exchange     Energy = -18.81492437069069
 DFT Correlation      Energy =  -5.15062086760696
 DFT Exchange         Energy = -150.49339715292689
 One-Electron (alpha) Energy = -3939.44519287806770
 One-Electron (beta)  Energy = -3894.02335490192263
 Total Coulomb        Energy = 2609.18645909734914
   11   -4921.6399794665      1.65e-06  
 Alpha HF Exchange    Energy = -18.99571260538671
 Beta HF Exchange     Energy = -18.81494005693606
 DFT Correlation      Energy =  -5.15061746677063
 DFT Exchange         Energy = -150.49342238884205
 One-Electron (alpha) Energy = -3939.44472158711324
 One-Electron (beta)  Energy = -3894.02553944134343
 Total Coulomb        Energy = 2609.18820794916110
   12   -4921.6399799442      1.05e-06  
 Alpha HF Exchange    Energy = -18.99571176574965
 Beta HF Exchange     Energy = -18.81494008790268
 DFT Correlation      Energy =  -5.15061647205762
 DFT Exchange         Energy = -150.49341678758901
 One-Electron (alpha) Energy = -3939.44422171303950
 One-Electron (beta)  Energy = -3894.02555947586052
 Total Coulomb        Energy = 2609.18772037127519
   13   -4921.6399802779      9.82e-07  Convergence criterion met
 ---------------------------------------
 SCF time:   CPU 63.43s  wall 11.00s 
<S^2> =          2.011120540
 Alpha HF Exchange    Energy = -18.99571176574965
 Beta HF Exchange     Energy = -18.81494008790268
 DFT Correlation      Energy =  -5.15061647205762
 DFT Exchange         Energy = -150.49341678758901
 One-Electron (alpha) Energy = -3939.44422171303950
 One-Electron (beta)  Energy = -3894.02555947586052
 Total Coulomb        Energy = 2609.18772037127519
 Nuclear repulsion Energy = 496.09676565302846
 SCF   energy in the final basis set =    -4921.6399802779
 Total energy in the final basis set =    -4921.6399802779
 
 --------------------------------------------------------------
 
                    Orbital Energies (a.u.)
 --------------------------------------------------------------
 
 Alpha MOs
 -- Occupied --
*******-453.900 -58.102 -58.095 -52.162 -52.159 -52.156 -52.153
-52.152 -52.149 -10.243 -10.211 -10.197  -7.836  -7.829  -5.784
 -5.777  -5.773  -5.770  -5.766  -5.761  -2.117  -2.116  -2.107
 -2.107  -2.107  -2.102  -2.100  -2.099  -2.097  -2.095  -0.818
 -0.703  -0.696  -0.692  -0.586  -0.483  -0.440  -0.432  -0.392
 -0.384  -0.381  -0.362  -0.336  -0.286  -0.244  -0.243  -0.207
 -- Virtual --
 -0.012   0.026   0.044   0.095   0.117   0.123   0.150   0.158
  0.163   0.179   0.213   0.229   0.246   0.258   0.270   0.287
  0.306   0.325   0.388   0.442   0.444   0.495   0.514   0.520
  0.539   0.541   0.542   0.551   0.569   0.579   0.623   0.667
  0.682   0.711   0.750   0.774   0.803   0.813   0.857   0.874
  0.891   0.906   0.929   1.002   1.019   1.077   1.095   1.188
  1.344   1.427   1.433   1.483   1.524   1.635   1.708   1.766
  1.842   1.883   1.919   1.970   2.016   2.035   2.071   2.078
  2.081   2.086   2.104   2.121   2.131   2.271   2.300   2.346
  2.398   2.490   2.556   2.584   2.598   2.633   2.645   2.699
  2.741   2.821   2.863   2.916   3.178   3.270   3.379   3.406
  3.456   3.513   4.195   4.219   4.219   4.240   4.261   4.265
  4.297   4.338   4.374   4.394   4.428   4.475   4.608   5.405
  5.481  89.576  89.814
 
 Beta MOs
 -- Occupied --
*******-453.899 -58.101 -58.095 -52.158 -52.157 -52.155 -52.152
-52.151 -52.149 -10.244 -10.199 -10.197  -7.833  -7.827  -5.776
 -5.775  -5.772  -5.769  -5.765  -5.760  -2.111  -2.111  -2.106
 -2.105  -2.102  -2.101  -2.098  -2.098  -2.095  -2.094  -0.810
 -0.694  -0.675  -0.662  -0.577  -0.478  -0.437  -0.427  -0.388
 -0.380  -0.370  -0.360  -0.319  -0.235  -0.231
 -- Virtual --
 -0.162  -0.085  -0.003   0.031   0.057   0.097   0.120   0.130
  0.156   0.160   0.165   0.185   0.219   0.233   0.255   0.262
  0.282   0.298   0.311   0.333   0.398   0.447   0.453   0.500
  0.524   0.546   0.554   0.558   0.582   0.586   0.588   0.606
  0.634   0.671   0.685   0.716   0.754   0.780   0.816   0.822
  0.859   0.876   0.893   0.911   0.930   1.016   1.023   1.081
  1.100   1.195   1.360   1.428   1.453   1.499   1.540   1.641
  1.713   1.767   1.844   1.891   1.935   1.990   2.023   2.036
  2.073   2.077   2.081   2.091   2.105   2.122   2.137   2.277
  2.300   2.349   2.409   2.504   2.568   2.593   2.599   2.635
  2.645   2.702   2.743   2.822   2.863   2.918   3.179   3.272
  3.383   3.408   3.456   3.518   4.210   4.232   4.232   4.254
  4.264   4.267   4.301   4.340   4.379   4.399   4.437   4.478
  4.611   5.420   5.486  89.581  89.815
 --------------------------------------------------------------
 
          Ground-State Mulliken Net Atomic Charges

     Atom                 Charge (a.u.)    Spin (a.u.)
  --------------------------------------------------------
      1 Se                   -0.112630       1.014618
      2 C                    -0.212373       0.927461
      3 C                    -0.150653      -0.110610
      4 C                    -0.311318       0.007883
      5 Se                   -0.093834       0.267072
      6 H                     0.058465      -0.006856
      7 H                     0.079939      -0.026965
      8 H                     0.126409      -0.041503
      9 H                     0.113790      -0.041574
     10 H                     0.138903       0.011260
     11 H                     0.113966      -0.000922
     12 H                     0.130019       0.001167
     13 H                     0.119316      -0.001030
  --------------------------------------------------------
  Sum of atomic charges =     0.000000
  Sum of spin   charges =     2.000000

 -----------------------------------------------------------------
                    Cartesian Multipole Moments
 -----------------------------------------------------------------
    Charge (ESU x 10^10)
                 0.0000
    Dipole Moment (Debye)
         X      -1.5779      Y      -2.3590      Z       0.3839
       Tot       2.8639
    Quadrupole Moments (Debye-Ang)
        XX     -62.9208     XY      -0.3838     YY     -57.1177
        XZ      -0.8168     YZ      -0.4910     ZZ     -56.7504
    Octopole Moments (Debye-Ang^2)
       XXX    -100.4734    XXY      -5.0567    XYY     -33.2598
       YYY      14.0068    XXZ      -4.8724    XYZ      -5.7743
       YYZ     -10.7748    XZZ     -35.3441    YZZ      -1.1226
       ZZZ     -27.8706
    Hexadecapole Moments (Debye-Ang^3)
      XXXX   -1671.3294   XXXY    -272.4741   XXYY    -380.6838
      XYYY    -266.7291   YYYY    -684.3176   XXXZ    -114.2774
      XXYZ     -14.6152   XYYZ     -52.6805   YYYZ     -26.1458
      XXZZ    -311.5249   XYZZ    -102.2044   YYZZ    -144.0795
      XZZZ    -139.9650   YZZZ     -27.5296   ZZZZ    -166.5841
 -----------------------------------------------------------------
 Calculating analytic gradient of the SCF energy
 Gradient of SCF Energy
            1           2           3           4           5           6
    1  -0.0003922   0.0003977  -0.0000319   0.0000077  -0.0000130   0.0000251
    2  -0.0003713   0.0004515  -0.0000045  -0.0000130  -0.0000095   0.0000002
    3  -0.0000494   0.0000494  -0.0000173  -0.0000092   0.0000014   0.0000016
            7           8           9          10          11          12
    1   0.0000406  -0.0000323  -0.0000107   0.0000106  -0.0000067  -0.0000012
    2  -0.0000279   0.0000007  -0.0000309  -0.0000018   0.0000118  -0.0000037
    3  -0.0000109   0.0000293  -0.0000025   0.0000004  -0.0000015  -0.0000018
           13
    1   0.0000063
    2  -0.0000017
    3   0.0000104
 Max gradient component =       4.515E-04
 RMS gradient           =       1.308E-04
 Gradient time:  CPU 17.55 s  wall 1.50 s
 Geometry Optimization Parameters
   NAtoms,    NIC,     NZ,  NCons,   NDum,   NFix, NCnnct, MaxDiis
       13      77       0       1       0       0       0       0


** CONSTRAINED OPTIMIZATION IN DELOCALIZED INTERNAL COORDINATES **
   Searching for a Minimum

   Optimization Cycle:   1

                       Coordinates (Angstroms)
     ATOM                X               Y               Z
      1  Se        3.3178760000    1.1199750000    0.6487570000
      2  C         0.4463080000   -1.9187820000    0.2486940000
      3  C        -0.7909470000   -1.5024120000   -0.3868650000
      4  C        -2.0758700000   -2.0605950000    0.2150230000
      5  Se       -0.8560350000    0.6071740000   -0.3349650000
      6  H        -0.9923510000    0.6471330000    1.1333890000
      7  H         2.0838490000    0.2976500000    0.6540170000
      8  H         1.3856540000   -1.8982500000   -0.2914400000
      9  H         0.4740440000   -2.1201600000    1.3154690000
     10  H        -0.7635370000   -1.6349700000   -1.4714860000
     11  H        -2.1344480000   -1.8475190000    1.2871850000
     12  H        -2.9608630000   -1.6388560000   -0.2659300000
     13  H        -2.0956810000   -3.1497940000    0.0896510000
   Point Group: c1    Number of degrees of freedom:    33


   Energy is  -4921.639980278

              Constraints and their Current Values
                                        Value     Constraint
   Distance(Angs):        1   2             4.200000     4.100000

 Attempting to Generate Delocalized Internal Coordinates

   Using Lagrange Multiplier Algorithm


 34 Hessian modes will be used to form the next step
  Hessian Eigenvalues:
    -0.996721    0.035633    0.045000    0.045000    0.045000    0.045000
     0.045330    0.045469    0.072088    0.081351    0.082435    0.084124
     0.108341    0.115399    0.159364    0.160000    0.160000    0.160000
     0.160000    0.160000    0.160000    0.172789    0.180008    0.193800
     0.202369    0.299136    0.340643    0.342753    0.343467    0.344642
     0.345863    0.352825    0.379933    1.003290

 Minimum Search - Taking P-RFO Step
 Searching for Lamda that Maximizes Along the Constraint modes Only
 Value Taken    Lamda =   0.01775632
 Searching for Lamda that Minimizes Along All other modes
 Value Taken    Lamda =  -0.01733970
 Step Taken.  Stepsize is  0.185716

                             Maximum     Tolerance    Cnvgd?
         Gradient            0.188972       0.000300      NO
         Displacement        0.185713       0.001200      NO
         Energy change     *********       0.000001      NO


 New Cartesian Coordinates Obtained by Inverse Iteration

 Displacement from previous Coordinates is:  0.374267
 ----------------------------------------------------------------
             Standard Nuclear Orientation (Angstroms)
    I     Atom           X                Y                Z
 ----------------------------------------------------------------
    1      Se      3.1973113043     1.0974764200     0.6849590015
    2      C       0.4639916274    -1.9265080456     0.2282014242
    3      C      -0.7774260697    -1.5027278656    -0.3941938766
    4      C      -2.0596745134    -2.0444622729     0.2280976834
    5      Se     -0.8220720917     0.6077253703    -0.3562607806
    6      H      -0.9395087707     0.6591087762     1.1133668282
    7      H       1.9899190580     0.2675276574     0.6728197231
    8      H       1.3876121342    -1.9186085129    -0.3189479229
    9      H       0.5037547786    -2.1205956094     1.2959434725
   10      H      -0.7653646701    -1.6429777398    -1.4781263282
   11      H      -2.1022985510    -1.8235705607     1.2994290385
   12      H      -2.9467847058    -1.6175468599    -0.2443095868
   13      H      -2.0914605301    -3.1342467572     0.1105203237
 ----------------------------------------------------------------
 Nuclear Repulsion Energy =   503.3386772838 hartrees
 There are       48 alpha and       46 beta electrons

                       Distance Matrix (Angstroms)
             Se(  1)   C (  2)   C (  3)   C (  4)   Se(  5)   H (  6)
   C (  2)  4.101725
   C (  3)  4.870746  1.451924
   C (  4)  6.141368  2.526421  1.524757
   Se(  5)  4.180842  2.901361  2.111266  2.984499
   H (  6)  4.181983  3.072254  2.640558  3.057412  1.475207
   H (  7)  1.465182  2.709231  3.454059  4.684259  3.013642  2.988137
   H (  8)  3.657815  1.073550  2.205903  3.492690  3.356555  3.756547
   H (  9)  4.240818  1.085967  2.209015  2.777996  3.454176  3.137372
   H ( 10)  5.281271  2.122089  1.093035  2.178905  2.515445  3.470701
   H ( 11)  6.082430  2.782799  2.174071  1.094697  3.208035  2.747798
   H ( 12)  6.781210  3.457184  2.177560  1.091966  3.078762  3.324997
   H ( 13)  6.797688  2.828925  2.154826  1.096570  3.978893  4.089284
             H (  7)   H (  8)   H (  9)   H ( 10)   H ( 11)   H ( 12)
   H (  8)  2.474988
   H (  9)  2.880989  1.851993
   H ( 10)  3.983489  2.460686  3.087757
   H ( 11)  4.638057  3.848071  2.622928  3.087850
   H ( 12)  5.363364  4.345481  3.812041  2.506301  1.771647
   H ( 13)  5.342837  3.710278  3.027847  2.550728  1.769603  1.777038

 
 Applying Cartesian multipole field
    Component          Value
    ---------          -----
     (2,0,0)        1.00000E-11
     (0,2,0)        2.00000E-11
     (0,0,2)       -3.00000E-10
 Nucleus-field energy     =    -0.0000000060 hartrees
 Requested basis set is 6-31G(d,p)
 There are 52 shells and 155 basis functions
 A cutoff of  1.0D-14 yielded   1203 shell pairs
 There are     10419 function pairs
 Smallest overlap matrix eigenvalue = 6.74E-04
 Guess from superposition of atomic densities
 Warning:  Energy on first SCF cycle will be non-variational
 SAD guess density has 93.936381 electrons

 -----------------------------------------------------------------------
  General SCF calculation program by
  Eric Jon Sundstrom, Paul Horn, Yuezhi Mao, Dmitri Zuev, Alec White,
  David Stuck, Shaama M.S., Shane Yost, Joonho Lee, David Small,
  Daniel Levine, Susi Lehtola, Hugh Burton, Evgeny Epifanovsky
 -----------------------------------------------------------------------
 Exchange:     0.2000 Hartree-Fock + 0.0800 Slater + 0.7200 B88
 Correlation:  0.1900 VWN1RPA + 0.8100 LYP
 Using SG-1 standard quadrature grid
 using 12 threads for integral computing
 -------------------------------------------------------
 OpenMP Integral computing Module                
 Release: version 1.0, May 2013, Q-Chem Inc. Pittsburgh 
 -------------------------------------------------------
 -------------------------------------------------------
 OpenMP BLAS3 based DFT computing Module                
 Release: version 1.0, May 2013, Q-Chem Inc. Pittsburgh 
 -------------------------------------------------------
 A unrestricted SCF calculation will be
 performed using DIIS
 SCF converges when DIIS error is below 1.0e-06
 Alpha HF Exchange    Energy = -18.84473606223642
 Beta HF Exchange     Energy = -18.84473606223642
 DFT Correlation      Energy =  -5.12810804077497
 DFT Exchange         Energy = -149.85298305328652
 One-Electron (alpha) Energy = -3920.96805223726506
 One-Electron (beta)  Energy = -3920.96805223726506
 Total Coulomb        Energy = 2603.81495850230340
 ---------------------------------------
  Cycle       Energy         DIIS error
 ---------------------------------------
    1   -4927.4530319130      1.50e-01  
 Alpha HF Exchange    Energy = -19.06416890238638
 Beta HF Exchange     Energy = -18.86342397569723
 DFT Correlation      Energy =  -5.17604025092492
 DFT Exchange         Energy = -151.01396932175726
 One-Electron (alpha) Energy = -3954.05612230177303
 One-Electron (beta)  Energy = -3906.78587004369092
 Total Coulomb        Energy = 2630.13981638511177
    2   -4921.4811011333      9.32e-03  
 Alpha HF Exchange    Energy = -18.92601790762317
 Beta HF Exchange     Energy = -18.75609930484067
 DFT Correlation      Energy =  -5.13278001198387
 DFT Exchange         Energy = -149.98570283273648
 One-Electron (alpha) Energy = -3940.37220233422886
 One-Electron (beta)  Energy = -3895.56594447588077
 Total Coulomb        Energy = 2603.89790607356235
    3   -4921.5021635160      3.66e-03  
 Alpha HF Exchange    Energy = -19.03899815334395
 Beta HF Exchange     Energy = -18.84297866261475
 DFT Correlation      Energy =  -5.16557328284648
 DFT Exchange         Energy = -150.81076702924395
 One-Electron (alpha) Energy = -3950.05150941106831
 One-Electron (beta)  Energy = -3902.80249778767029
 Total Coulomb        Energy = 2621.92486355876963
    4   -4921.4487834902      3.50e-03  
 Alpha HF Exchange    Energy = -19.00735740257275
 Beta HF Exchange     Energy = -18.82875733262651
 DFT Correlation      Energy =  -5.15438998953197
 DFT Exchange         Energy = -150.59121734056467
 One-Electron (alpha) Energy = -3948.59633670119365
 One-Electron (beta)  Energy = -3902.98149806168067
 Total Coulomb        Energy = 2620.20933848667892
    5   -4921.6115410637      1.40e-03  
 Alpha HF Exchange    Energy = -18.99691445007157
 Beta HF Exchange     Energy = -18.81586128380172
 DFT Correlation      Energy =  -5.15209943870694
 DFT Exchange         Energy = -150.50290406778049
 One-Electron (alpha) Energy = -3946.98468483659099
 One-Electron (beta)  Energy = -3901.20931739258594
 Total Coulomb        Energy = 2616.68530858535632
    6   -4921.6377956064      2.69e-04  
 Alpha HF Exchange    Energy = -18.99641651770916
 Beta HF Exchange     Energy = -18.81479797276173
 DFT Correlation      Energy =  -5.15150682124045
 DFT Exchange         Energy = -150.49636007956099
 One-Electron (alpha) Energy = -3946.88938380857735
 One-Electron (beta)  Energy = -3901.06129786244128
 Total Coulomb        Energy = 2616.43171532834640
    7   -4921.6393704562      1.23e-04  
 Alpha HF Exchange    Energy = -18.99683752027618
 Beta HF Exchange     Energy = -18.81525224843383
 DFT Correlation      Energy =  -5.15178464164111
 DFT Exchange         Energy = -150.49976589060276
 One-Electron (alpha) Energy = -3946.85875838767925
 One-Electron (beta)  Energy = -3901.05232330026956
 Total Coulomb        Energy = 2616.39647015536048
    8   -4921.6395745558      5.56e-05  
 Alpha HF Exchange    Energy = -18.99681718999907
 Beta HF Exchange     Energy = -18.81545286281417
 DFT Correlation      Energy =  -5.15164193237022
 DFT Exchange         Energy = -150.49978285546680
 One-Electron (alpha) Energy = -3946.87473655511212
 One-Electron (beta)  Energy = -3901.08964296027671
 Total Coulomb        Energy = 2616.44977869714330
    9   -4921.6396183811      1.65e-05  
 Alpha HF Exchange    Energy = -18.99681796622769
 Beta HF Exchange     Energy = -18.81557562111736
 DFT Correlation      Energy =  -5.15163484776243
 DFT Exchange         Energy = -150.50011570314456
 One-Electron (alpha) Energy = -3946.86614133398234
 One-Electron (beta)  Energy = -3901.09249832724754
 Total Coulomb        Energy = 2616.44448174354102
   10   -4921.6396247782      8.44e-06  
 Alpha HF Exchange    Energy = -18.99682138088735
 Beta HF Exchange     Energy = -18.81557139997422
 DFT Correlation      Energy =  -5.15162357351418
 DFT Exchange         Energy = -150.50005352309611
 One-Electron (alpha) Energy = -3946.86137531611166
 One-Electron (beta)  Energy = -3901.09075980425678
 Total Coulomb        Energy = 2616.43790143775459
   11   -4921.6396262823      2.10e-06  
 Alpha HF Exchange    Energy = -18.99682235673967
 Beta HF Exchange     Energy = -18.81559649980351
 DFT Correlation      Energy =  -5.15162094338585
 DFT Exchange         Energy = -150.50011398125304
 One-Electron (alpha) Energy = -3946.86113072156968
 One-Electron (beta)  Energy = -3901.09408018664772
 Total Coulomb        Energy = 2616.44106052945745
   12   -4921.6396268822      1.20e-06  
 Alpha HF Exchange    Energy = -18.99681770686484
 Beta HF Exchange     Energy = -18.81559649550850
 DFT Correlation      Energy =  -5.15161826703375
 DFT Exchange         Energy = -150.50008768886963
 One-Electron (alpha) Energy = -3946.85980716190943
 One-Electron (beta)  Energy = -3901.09389516189776
 Total Coulomb        Energy = 2616.43951792951566
   13   -4921.6396272748      1.05e-06  
 Alpha HF Exchange    Energy = -18.99681866625053
 Beta HF Exchange     Energy = -18.81559743375579
 DFT Correlation      Energy =  -5.15161872078429
 DFT Exchange         Energy = -150.50009555995788
 One-Electron (alpha) Energy = -3946.85975590702310
 One-Electron (beta)  Energy = -3901.09421463842136
 Total Coulomb        Energy = 2616.43979586124897
   14   -4921.6396277872      9.93e-07  Convergence criterion met
 ---------------------------------------
 SCF time:   CPU 65.59s  wall 5.00s 
<S^2> =          2.011035332
 Alpha HF Exchange    Energy = -18.99681866625053
 Beta HF Exchange     Energy = -18.81559743375579
 DFT Correlation      Energy =  -5.15161872078429
 DFT Exchange         Energy = -150.50009555995788
 One-Electron (alpha) Energy = -3946.85975590702310
 One-Electron (beta)  Energy = -3901.09421463842136
 Total Coulomb        Energy = 2616.43979586124897
 Nuclear repulsion Energy = 503.33867727778016
 SCF   energy in the final basis set =    -4921.6396277872
 Total energy in the final basis set =    -4921.6396277872
 
 --------------------------------------------------------------
 
                    Orbital Energies (a.u.)
 --------------------------------------------------------------
 
 Alpha MOs
 -- Occupied --
*******-453.901 -58.100 -58.096 -52.159 -52.156 -52.154 -52.153
-52.153 -52.151 -10.244 -10.211 -10.198  -7.833  -7.830  -5.782
 -5.775  -5.775  -5.772  -5.764  -5.762  -2.114  -2.113  -2.109
 -2.108  -2.104  -2.100  -2.100  -2.098  -2.098  -2.097  -0.819
 -0.704  -0.696  -0.694  -0.587  -0.485  -0.440  -0.433  -0.393
 -0.385  -0.382  -0.363  -0.337  -0.284  -0.244  -0.242  -0.208
 -- Virtual --
 -0.013   0.028   0.048   0.095   0.116   0.123   0.150   0.158
  0.163   0.179   0.215   0.230   0.246   0.256   0.270   0.290
  0.309   0.327   0.388   0.441   0.442   0.496   0.515   0.525
  0.540   0.543   0.546   0.551   0.569   0.579   0.626   0.668
  0.683   0.710   0.750   0.775   0.806   0.815   0.857   0.874
  0.891   0.908   0.928   1.005   1.018   1.084   1.103   1.192
  1.346   1.427   1.432   1.483   1.529   1.635   1.708   1.766
  1.843   1.883   1.924   1.969   2.018   2.035   2.072   2.079
  2.082   2.089   2.106   2.127   2.139   2.270   2.302   2.346
  2.401   2.495   2.558   2.584   2.598   2.642   2.653   2.699
  2.742   2.825   2.863   2.919   3.178   3.278   3.381   3.409
  3.455   3.521   4.195   4.221   4.222   4.244   4.264   4.266
  4.296   4.337   4.374   4.394   4.430   4.474   4.609   5.410
  5.482  89.584  89.820
 
 Beta MOs
 -- Occupied --
*******-453.901 -58.099 -58.096 -52.155 -52.155 -52.153 -52.152
-52.152 -52.150 -10.245 -10.199 -10.198  -7.830  -7.829  -5.774
 -5.773  -5.773  -5.770  -5.762  -5.762  -2.109  -2.108  -2.107
 -2.107  -2.099  -2.099  -2.099  -2.097  -2.096  -2.095  -0.811
 -0.695  -0.676  -0.662  -0.579  -0.480  -0.438  -0.428  -0.389
 -0.381  -0.370  -0.361  -0.320  -0.236  -0.229
 -- Virtual --
 -0.161  -0.086  -0.004   0.032   0.062   0.097   0.119   0.131
  0.156   0.160   0.165   0.185   0.221   0.234   0.254   0.261
  0.283   0.301   0.313   0.335   0.400   0.447   0.452   0.502
  0.523   0.547   0.555   0.562   0.584   0.587   0.590   0.606
  0.638   0.673   0.687   0.715   0.754   0.781   0.817   0.826
  0.860   0.876   0.893   0.913   0.930   1.017   1.024   1.088
  1.108   1.200   1.362   1.427   1.453   1.499   1.544   1.641
  1.713   1.767   1.844   1.891   1.939   1.989   2.024   2.036
  2.074   2.078   2.082   2.093   2.107   2.129   2.144   2.276
  2.302   2.349   2.411   2.508   2.570   2.594   2.599   2.644
  2.654   2.702   2.744   2.827   2.863   2.921   3.179   3.280
  3.385   3.410   3.456   3.526   4.209   4.234   4.235   4.257
  4.266   4.268   4.300   4.339   4.380   4.399   4.439   4.477
  4.613   5.424   5.487  89.589  89.822
 --------------------------------------------------------------
 
          Ground-State Mulliken Net Atomic Charges

     Atom                 Charge (a.u.)    Spin (a.u.)
  --------------------------------------------------------
      1 Se                   -0.118903       1.007911
      2 C                    -0.213513       0.927122
      3 C                    -0.151589      -0.110606
      4 C                    -0.311514       0.008015
      5 Se                   -0.089846       0.273019
      6 H                     0.059287      -0.006977
      7 H                     0.079250      -0.026385
      8 H                     0.129162      -0.041098
      9 H                     0.114289      -0.041570
     10 H                     0.139266       0.011248
     11 H                     0.114235      -0.000938
     12 H                     0.130108       0.001194
     13 H                     0.119769      -0.000934
  --------------------------------------------------------
  Sum of atomic charges =    -0.000000
  Sum of spin   charges =     2.000000

 -----------------------------------------------------------------
                    Cartesian Multipole Moments
 -----------------------------------------------------------------
    Charge (ESU x 10^10)
                 0.0000
    Dipole Moment (Debye)
         X      -1.6877      Y      -2.4160      Z       0.3478
       Tot       2.9676
    Quadrupole Moments (Debye-Ang)
        XX     -63.0430     XY      -0.4615     YY     -57.1195
        XZ      -0.8186     YZ      -0.5003     ZZ     -56.6967
    Octopole Moments (Debye-Ang^2)
       XXX     -97.2566    XXY      -4.5949    XYY     -32.0256
       YYY      14.5628    XXZ      -5.3252    XYZ      -5.5888
       YYZ     -11.0432    XZZ     -33.5078    YZZ      -0.8805
       ZZZ     -28.6395
    Hexadecapole Moments (Debye-Ang^3)
      XXXX   -1576.0295   XXXY    -259.1108   XXYY    -363.4517
      XYYY    -254.5735   YYYY    -677.3647   XXXZ    -116.9209
      XXYZ     -13.9032   XYYZ     -52.8416   YYYZ     -27.2210
      XXZZ    -294.2337   XYZZ     -97.4139   YYZZ    -144.0277
      XZZZ    -141.1679   YZZZ     -28.6369   ZZZZ    -173.3987
 -----------------------------------------------------------------
 Calculating analytic gradient of the SCF energy
 Gradient of SCF Energy
            1           2           3           4           5           6
    1  -0.0059565   0.0063996   0.0000423   0.0000573   0.0005001   0.0001533
    2  -0.0041212   0.0004800   0.0001258  -0.0001498  -0.0000704  -0.0000055
    3   0.0001496  -0.0034910  -0.0001640  -0.0000376   0.0001682   0.0000216
            7           8           9          10          11          12
    1   0.0049365  -0.0062627   0.0001600  -0.0000504  -0.0000151   0.0000482
    2   0.0036119   0.0000434   0.0000539  -0.0000225   0.0000375   0.0000360
    3  -0.0004104   0.0037399  -0.0000404   0.0000032   0.0000415  -0.0000067
           13
    1  -0.0000128
    2  -0.0000191
    3   0.0000262
 Max gradient component =       6.400E-03
 RMS gradient           =       2.248E-03
 Gradient time:  CPU 18.03 s  wall 1.59 s
 Geometry Optimization Parameters
   NAtoms,    NIC,     NZ,  NCons,   NDum,   NFix, NCnnct, MaxDiis
       13      77       0       1       0       0       0       0

 Cartesian Hessian Update
 Hessian Updated using BFGS Update


** CONSTRAINED OPTIMIZATION IN DELOCALIZED INTERNAL COORDINATES **
   Searching for a Minimum

   Optimization Cycle:   2

                       Coordinates (Angstroms)
     ATOM                X               Y               Z
      1  Se        3.1973113043    1.0974764200    0.6849590015
      2  C         0.4639916274   -1.9265080456    0.2282014242
      3  C        -0.7774260697   -1.5027278656   -0.3941938766
      4  C        -2.0596745134   -2.0444622729    0.2280976834
      5  Se       -0.8220720917    0.6077253703   -0.3562607806
      6  H        -0.9395087707    0.6591087762    1.1133668282
      7  H         1.9899190580    0.2675276574    0.6728197231
      8  H         1.3876121342   -1.9186085129   -0.3189479229
      9  H         0.5037547786   -2.1205956094    1.2959434725
     10  H        -0.7653646701   -1.6429777398   -1.4781263282
     11  H        -2.1022985510   -1.8235705607    1.2994290385
     12  H        -2.9467847058   -1.6175468599   -0.2443095868
     13  H        -2.0914605301   -3.1342467572    0.1105203237
   Point Group: c1    Number of degrees of freedom:    33


   Energy is  -4921.639627787

              Constraints and their Current Values
                                        Value     Constraint
   Distance(Angs):        1   2             4.101725     4.100000
 Hessian Updated using BFGS Update

   Using Lagrange Multiplier Algorithm


 28 Hessian modes will be used to form the next step
  Hessian Eigenvalues:
    -0.993104    0.038113    0.044995    0.045192    0.045464    0.049474
     0.072321    0.081509    0.082440    0.084124    0.108369    0.115404
     0.159368    0.159999    0.160860    0.180008    0.190228    0.202250
     0.213179    0.299136    0.340643    0.342753    0.344642    0.345863
     0.352825    0.379314    0.442122    1.009654

 Minimum Search - Taking P-RFO Step
 Searching for Lamda that Maximizes Along the Constraint modes Only
 Value Taken    Lamda =   0.00001097
 Searching for Lamda that Minimizes Along All other modes
 Value Taken    Lamda =  -0.00025280
 Step Taken.  Stepsize is  0.040064

                             Maximum     Tolerance    Cnvgd?
         Gradient            0.005678       0.000300      NO
         Displacement        0.019226       0.001200      NO
         Energy change      0.000352       0.000001      NO


 New Cartesian Coordinates Obtained by Inverse Iteration

 Displacement from previous Coordinates is:  0.113000
 ----------------------------------------------------------------
             Standard Nuclear Orientation (Angstroms)
    I     Atom           X                Y                Z
 ----------------------------------------------------------------
    1      Se      3.2270638975     1.0792789420     0.6874654826
    2      C       0.4639121624    -1.9147857988     0.2285852574
    3      C      -0.7805230338    -1.4983663428    -0.3939433237
    4      C      -2.0590654448    -2.0480528703     0.2290234721
    5      Se     -0.8448400687     0.6118920631    -0.3607998798
    6      H      -0.9659526256     0.6654793916     1.1084498968
    7      H       2.0043724036     0.2560638144     0.6775296574
    8      H       1.3920475157    -1.9077793562    -0.3221602728
    9      H       0.5039722642    -2.1101121275     1.2961230801
   10      H      -0.7673871325    -1.6405048774    -1.4776199738
   11      H      -2.1033547219    -1.8260373508     1.3000038785
   12      H      -2.9492494523    -1.6282988548    -0.2440659531
   13      H      -2.0829967638    -3.1381826325     0.1129076784
 ----------------------------------------------------------------
 Nuclear Repulsion Energy =   501.1963799734 hartrees
 There are       48 alpha and       46 beta electrons

                       Distance Matrix (Angstroms)
             Se(  1)   C (  2)   C (  3)   C (  4)   Se(  5)   H (  6)
   C (  2)  4.100000
   C (  3)  4.886149  1.452434
   C (  4)  6.159021  2.526495  1.524767
   Se(  5)  4.230569  2.905909  2.111498  2.982875
   H (  6)  4.234365  3.078383  2.640795  3.054758  1.475207
   H (  7)  1.474027  2.699473  3.461462  4.692722  3.053318  3.029215
   H (  8)  3.648170  1.079261  2.211975  3.497665  3.369555  3.772065
   H (  9)  4.237677  1.085999  2.209182  2.776998  3.460346  3.146396
   H ( 10)  5.295324  2.121901  1.093038  2.178798  2.515269  3.470555
   H ( 11)  6.101592  2.783285  2.174100  1.094647  3.207121  2.745548
   H ( 12)  6.807758  3.457621  2.177779  1.091987  3.075812  3.320269
   H ( 13)  6.805427  2.827866  2.154607  1.096558  3.977498  4.087388
             H (  7)   H (  8)   H (  9)   H ( 10)   H ( 11)   H ( 12)
   H (  8)  2.461004
   H (  9)  2.869259  1.857002
   H ( 10)  3.990525  2.463672  3.087157
   H ( 11)  4.647154  3.854340  2.622760  3.087787
   H ( 12)  5.379454  4.350985  3.811701  2.506457  1.771663
   H ( 13)  5.342873  3.712022  3.024787  2.550225  1.769558  1.776956

 
 Applying Cartesian multipole field
    Component          Value
    ---------          -----
     (2,0,0)        1.00000E-11
     (0,2,0)        2.00000E-11
     (0,0,2)       -3.00000E-10
 Nucleus-field energy     =    -0.0000000061 hartrees
 Requested basis set is 6-31G(d,p)
 There are 52 shells and 155 basis functions
 A cutoff of  1.0D-14 yielded   1201 shell pairs
 There are     10392 function pairs
 Smallest overlap matrix eigenvalue = 6.74E-04
 Guess from superposition of atomic densities
 Warning:  Energy on first SCF cycle will be non-variational
 SAD guess density has 93.936381 electrons

 -----------------------------------------------------------------------
  General SCF calculation program by
  Eric Jon Sundstrom, Paul Horn, Yuezhi Mao, Dmitri Zuev, Alec White,
  David Stuck, Shaama M.S., Shane Yost, Joonho Lee, David Small,
  Daniel Levine, Susi Lehtola, Hugh Burton, Evgeny Epifanovsky
 -----------------------------------------------------------------------
 Exchange:     0.2000 Hartree-Fock + 0.0800 Slater + 0.7200 B88
 Correlation:  0.1900 VWN1RPA + 0.8100 LYP
 Using SG-1 standard quadrature grid
 using 12 threads for integral computing
 -------------------------------------------------------
 OpenMP Integral computing Module                
 Release: version 1.0, May 2013, Q-Chem Inc. Pittsburgh 
 -------------------------------------------------------
 -------------------------------------------------------
 OpenMP BLAS3 based DFT computing Module                
 Release: version 1.0, May 2013, Q-Chem Inc. Pittsburgh 
 -------------------------------------------------------
 A unrestricted SCF calculation will be
 performed using DIIS
 SCF converges when DIIS error is below 1.0e-06
 Alpha HF Exchange    Energy = -18.84383246300941
 Beta HF Exchange     Energy = -18.84383246300941
 DFT Correlation      Energy =  -5.12779515250308
 DFT Exchange         Energy = -149.85095593576759
 One-Electron (alpha) Energy = -3918.83530366643390
 One-Electron (beta)  Energy = -3918.83530366643390
 Total Coulomb        Energy = 2601.70209660955925
 ---------------------------------------
  Cycle       Energy         DIIS error
 ---------------------------------------
    1   -4927.4385467703      1.50e-01  
 Alpha HF Exchange    Energy = -19.06348656621310
 Beta HF Exchange     Energy = -18.86301149967019
 DFT Correlation      Energy =  -5.17570211619003
 DFT Exchange         Energy = -151.01010323306221
 One-Electron (alpha) Energy = -3951.87150925914921
 One-Electron (beta)  Energy = -3904.71762811345752
 Total Coulomb        Energy = 2628.02183644765091
    2   -4921.4832243728      9.32e-03  
 Alpha HF Exchange    Energy = -18.92550196845455
 Beta HF Exchange     Energy = -18.75542150636445
 DFT Correlation      Energy =  -5.13238775606985
 DFT Exchange         Energy = -149.98141852891285
 One-Electron (alpha) Energy = -3938.15335975717835
 One-Electron (beta)  Energy = -3893.41129283211694
 Total Coulomb        Energy = 2601.65758766757517
    3   -4921.5054147142      3.64e-03  
 Alpha HF Exchange    Energy = -19.03878871335491
 Beta HF Exchange     Energy = -18.84201110362721
 DFT Correlation      Energy =  -5.16548552570077
 DFT Exchange         Energy = -150.80854239110568
 One-Electron (alpha) Energy = -3947.95205246700152
 One-Electron (beta)  Energy = -3900.83705889765542
 Total Coulomb        Energy = 2619.98167610783685
    4   -4921.4658830233      3.40e-03  
 Alpha HF Exchange    Energy = -19.00623231381229
 Beta HF Exchange     Energy = -18.82749805796605
 DFT Correlation      Energy =  -5.15384462159749
 DFT Exchange         Energy = -150.58222756202440
 One-Electron (alpha) Energy = -3946.34321555594488
 One-Electron (beta)  Energy = -3900.79248992032262
 Total Coulomb        Energy = 2617.89477029548971
    5   -4921.6143577689      1.34e-03  
 Alpha HF Exchange    Energy = -18.99639413549681
 Beta HF Exchange     Energy = -18.81532976474137
 DFT Correlation      Energy =  -5.15175520031547
 DFT Exchange         Energy = -150.49927665076876
 One-Electron (alpha) Energy = -3944.79857720604059
 One-Electron (beta)  Energy = -3899.09336071930966
 Total Coulomb        Energy = 2614.52003414254386
    6   -4921.6382795668      2.43e-04  
 Alpha HF Exchange    Energy = -18.99582618066631
 Beta HF Exchange     Energy = -18.81435027055749
 DFT Correlation      Energy =  -5.15113121966477
 DFT Exchange         Energy = -150.49257137846107
 One-Electron (alpha) Energy = -3944.70116193884360
 One-Electron (beta)  Energy = -3898.95453725101197
 Total Coulomb        Energy = 2614.27364706079788
    7   -4921.6395512111      1.19e-04  
 Alpha HF Exchange    Energy = -18.99624683971588
 Beta HF Exchange     Energy = -18.81484090782962
 DFT Correlation      Energy =  -5.15140554610597
 DFT Exchange         Energy = -150.49610079187073
 One-Electron (alpha) Energy = -3944.67641463776545
 One-Electron (beta)  Energy = -3898.95213257389105
 Total Coulomb        Energy = 2614.25101119758165
    8   -4921.6397501323      5.34e-05  
 Alpha HF Exchange    Energy = -18.99623359397664
 Beta HF Exchange     Energy = -18.81503678552711
 DFT Correlation      Energy =  -5.15127194256950
 DFT Exchange         Energy = -150.49614849374015
 One-Electron (alpha) Energy = -3944.69127841403042
 One-Electron (beta)  Energy = -3898.98776600247038
 Total Coulomb        Energy = 2614.30156343543877
    9   -4921.6397918296      1.52e-05  
 Alpha HF Exchange    Energy = -18.99623457709337
 Beta HF Exchange     Energy = -18.81516164880210
 DFT Correlation      Energy =  -5.15126237862486
 DFT Exchange         Energy = -150.49647986136770
 One-Electron (alpha) Energy = -3944.68380631812215
 One-Electron (beta)  Energy = -3898.99173541037317
 Total Coulomb        Energy = 2614.29850255294878
   10   -4921.6397976741      7.94e-06  
 Alpha HF Exchange    Energy = -18.99623701404250
 Beta HF Exchange     Energy = -18.81515787428948
 DFT Correlation      Energy =  -5.15125169519064
 DFT Exchange         Energy = -150.49641761968581
 One-Electron (alpha) Energy = -3944.67891376344414
 One-Electron (beta)  Energy = -3898.98981295070598
 Total Coulomb        Energy = 2614.29161191556523
   11   -4921.6397990345      2.00e-06  
 Alpha HF Exchange    Energy = -18.99623765978384
 Beta HF Exchange     Energy = -18.81518202728311
 DFT Correlation      Energy =  -5.15124890227012
 DFT Exchange         Energy = -150.49647387397258
 One-Electron (alpha) Energy = -3944.67867417127536
 One-Electron (beta)  Energy = -3898.99298830996622
 Total Coulomb        Energy = 2614.29462540430768
   12   -4921.6397995729      1.13e-06  
 Alpha HF Exchange    Energy = -18.99623357878628
 Beta HF Exchange     Energy = -18.81518199662094
 DFT Correlation      Energy =  -5.15124646966117
 DFT Exchange         Energy = -150.49645057388955
 One-Electron (alpha) Energy = -3944.67748390488578
 One-Electron (beta)  Energy = -3898.99282308201191
 Total Coulomb        Energy = 2614.29323972181010
   13   -4921.6397999167      9.86e-07  Convergence criterion met
 ---------------------------------------
 SCF time:   CPU 60.53s  wall 5.00s 
<S^2> =          2.011047003
 Alpha HF Exchange    Energy = -18.99623357878628
 Beta HF Exchange     Energy = -18.81518199662094
 DFT Correlation      Energy =  -5.15124646966117
 DFT Exchange         Energy = -150.49645057388955
 One-Electron (alpha) Energy = -3944.67748390488578
 One-Electron (beta)  Energy = -3898.99282308201191
 Total Coulomb        Energy = 2614.29323972181010
 Nuclear repulsion Energy = 501.19637996730734
 SCF   energy in the final basis set =    -4921.6397999167
 Total energy in the final basis set =    -4921.6397999167
 
 --------------------------------------------------------------
 
                    Orbital Energies (a.u.)
 --------------------------------------------------------------
 
 Alpha MOs
 -- Occupied --
*******-453.901 -58.101 -58.096 -52.160 -52.157 -52.154 -52.154
-52.153 -52.150 -10.244 -10.211 -10.198  -7.834  -7.829  -5.783
 -5.776  -5.774  -5.771  -5.764  -5.762  -2.115  -2.114  -2.108
 -2.108  -2.105  -2.101  -2.100  -2.099  -2.098  -2.096  -0.819
 -0.703  -0.695  -0.693  -0.587  -0.484  -0.440  -0.433  -0.393
 -0.385  -0.381  -0.363  -0.336  -0.284  -0.244  -0.242  -0.208
 -- Virtual --
 -0.013   0.028   0.047   0.094   0.116   0.123   0.150   0.158
  0.163   0.179   0.214   0.230   0.246   0.257   0.270   0.289
  0.308   0.326   0.388   0.441   0.442   0.496   0.515   0.523
  0.540   0.542   0.545   0.551   0.569   0.580   0.624   0.667
  0.683   0.711   0.750   0.775   0.806   0.815   0.857   0.874
  0.891   0.906   0.928   1.004   1.018   1.082   1.101   1.192
  1.346   1.427   1.433   1.483   1.527   1.635   1.707   1.766
  1.842   1.883   1.922   1.968   2.016   2.035   2.071   2.078
  2.082   2.087   2.105   2.125   2.138   2.271   2.300   2.346
  2.400   2.493   2.557   2.583   2.598   2.639   2.647   2.699
  2.741   2.822   2.863   2.917   3.178   3.273   3.380   3.407
  3.455   3.516   4.195   4.220   4.221   4.243   4.263   4.266
  4.297   4.337   4.375   4.394   4.431   4.474   4.609   5.408
  5.481  89.581  89.817
 
 Beta MOs
 -- Occupied --
*******-453.900 -58.099 -58.096 -52.156 -52.156 -52.153 -52.153
-52.152 -52.150 -10.245 -10.199 -10.197  -7.831  -7.828  -5.774
 -5.774  -5.773  -5.770  -5.763  -5.761  -2.109  -2.109  -2.107
 -2.106  -2.100  -2.100  -2.099  -2.097  -2.096  -2.095  -0.811
 -0.694  -0.676  -0.662  -0.578  -0.479  -0.437  -0.428  -0.389
 -0.381  -0.370  -0.360  -0.319  -0.235  -0.230
 -- Virtual --
 -0.161  -0.086  -0.004   0.032   0.061   0.097   0.119   0.130
  0.156   0.160   0.165   0.185   0.220   0.233   0.254   0.261
  0.283   0.300   0.313   0.334   0.399   0.447   0.452   0.502
  0.524   0.547   0.555   0.560   0.583   0.587   0.589   0.606
  0.636   0.672   0.686   0.716   0.754   0.781   0.817   0.826
  0.859   0.876   0.893   0.912   0.930   1.017   1.023   1.086
  1.106   1.200   1.362   1.427   1.454   1.499   1.543   1.640
  1.712   1.767   1.844   1.891   1.937   1.989   2.022   2.036
  2.073   2.078   2.082   2.091   2.107   2.127   2.143   2.276
  2.301   2.348   2.410   2.506   2.569   2.593   2.599   2.642
  2.648   2.702   2.743   2.824   2.863   2.919   3.179   3.275
  3.384   3.409   3.456   3.521   4.209   4.233   4.234   4.256
  4.265   4.268   4.300   4.340   4.380   4.399   4.440   4.478
  4.613   5.423   5.486  89.586  89.819
 --------------------------------------------------------------
 
          Ground-State Mulliken Net Atomic Charges

     Atom                 Charge (a.u.)    Spin (a.u.)
  --------------------------------------------------------
      1 Se                   -0.116572       1.011254
      2 C                    -0.213936       0.927377
      3 C                    -0.151158      -0.110746
      4 C                    -0.311541       0.008062
      5 Se                   -0.090935       0.270169
      6 H                     0.058940      -0.006936
      7 H                     0.078752      -0.026788
      8 H                     0.128946      -0.041348
      9 H                     0.114448      -0.041609
     10 H                     0.139158       0.011241
     11 H                     0.114168      -0.000938
     12 H                     0.130215       0.001234
     13 H                     0.119515      -0.000974
  --------------------------------------------------------
  Sum of atomic charges =     0.000000
  Sum of spin   charges =     2.000000

 -----------------------------------------------------------------
                    Cartesian Multipole Moments
 -----------------------------------------------------------------
    Charge (ESU x 10^10)
                -0.0000
    Dipole Moment (Debye)
         X      -1.6435      Y      -2.3953      Z       0.3587
       Tot       2.9270
    Quadrupole Moments (Debye-Ang)
        XX     -63.0087     XY      -0.4079     YY     -57.0689
        XZ      -0.8541     YZ      -0.4855     ZZ     -56.7320
    Octopole Moments (Debye-Ang^2)
       XXX     -97.1648    XXY      -4.1952    XYY     -32.0234
       YYY      15.2699    XXZ      -5.2594    XYZ      -5.6754
       YYZ     -10.9426    XZZ     -33.7201    YZZ      -0.6661
       ZZZ     -28.5999
    Hexadecapole Moments (Debye-Ang^3)
      XXXX   -1600.7741   XXXY    -256.2046   XXYY    -366.5485
      XYYY    -252.2538   YYYY    -671.7814   XXXZ    -119.2685
      XXYZ     -13.9595   XYYZ     -53.5491   YYYZ     -26.1975
      XXZZ    -299.0777   XYZZ     -96.8003   YYZZ    -143.2334
      XZZZ    -143.5848   YZZZ     -27.8276   ZZZZ    -174.2878
 -----------------------------------------------------------------
 Calculating analytic gradient of the SCF energy
 Gradient of SCF Energy
            1           2           3           4           5           6
    1  -0.0032131   0.0032928  -0.0000639   0.0000290   0.0000558   0.0001170
    2  -0.0023534   0.0003174   0.0000516   0.0000473   0.0001307  -0.0000269
    3   0.0001549  -0.0014990   0.0000145  -0.0000128   0.0000566   0.0000101
            7           8           9          10          11          12
    1   0.0023982  -0.0026428   0.0000380   0.0000036  -0.0000125  -0.0000223
    2   0.0018124  -0.0000070   0.0000092  -0.0000171   0.0000246  -0.0000030
    3  -0.0003529   0.0016713  -0.0000254  -0.0000021  -0.0000037  -0.0000017
           13
    1   0.0000203
    2   0.0000142
    3  -0.0000097
 Max gradient component =       3.293E-03
 RMS gradient           =       1.110E-03
 Gradient time:  CPU 17.89 s  wall 1.57 s
 Geometry Optimization Parameters
   NAtoms,    NIC,     NZ,  NCons,   NDum,   NFix, NCnnct, MaxDiis
       13      77       0       1       0       0       0       0

 Cartesian Hessian Update
 Hessian Updated using BFGS Update


** CONSTRAINED OPTIMIZATION IN DELOCALIZED INTERNAL COORDINATES **
   Searching for a Minimum

   Optimization Cycle:   3

                       Coordinates (Angstroms)
     ATOM                X               Y               Z
      1  Se        3.2270638975    1.0792789420    0.6874654826
      2  C         0.4639121624   -1.9147857988    0.2285852574
      3  C        -0.7805230338   -1.4983663428   -0.3939433237
      4  C        -2.0590654448   -2.0480528703    0.2290234721
      5  Se       -0.8448400687    0.6118920631   -0.3607998798
      6  H        -0.9659526256    0.6654793916    1.1084498968
      7  H         2.0043724036    0.2560638144    0.6775296574
      8  H         1.3920475157   -1.9077793562   -0.3221602728
      9  H         0.5039722642   -2.1101121275    1.2961230801
     10  H        -0.7673871325   -1.6405048774   -1.4776199738
     11  H        -2.1033547219   -1.8260373508    1.3000038785
     12  H        -2.9492494523   -1.6282988548   -0.2440659531
     13  H        -2.0829967638   -3.1381826325    0.1129076784
   Point Group: c1    Number of degrees of freedom:    33


   Energy is  -4921.639799917

              Constraints and their Current Values
                                        Value     Constraint
   Distance(Angs):        1   2             4.100000     4.100000
 Hessian Updated using BFGS Update

 28 Hessian modes will be used to form the next step
  Hessian Eigenvalues:
     0.034181    0.043428    0.045000    0.045038    0.045246    0.046764
     0.072208    0.081422    0.082447    0.084125    0.108388    0.115448
     0.154589    0.159384    0.160000    0.160873    0.170949    0.180011
     0.200180    0.202540    0.299130    0.340631    0.342747    0.344642
     0.345835    0.352825    0.359018    0.384564

 Minimum Search - Taking Simple RFO Step
 Searching for Lamda that Minimizes Along All modes
 Value Taken    Lamda =  -0.00011095
 Step Taken.  Stepsize is  0.041298

                             Maximum     Tolerance    Cnvgd?
         Gradient           0.002512      0.000300      NO
         Displacement       0.017255      0.001200      NO
         Energy change     -0.000172      0.000001      NO


 New Cartesian Coordinates Obtained by Inverse Iteration

 Displacement from previous Coordinates is:  0.105565
 ----------------------------------------------------------------
             Standard Nuclear Orientation (Angstroms)
    I     Atom           X                Y                Z
 ----------------------------------------------------------------
    1      Se      3.2558526620     1.0646494762     0.6805254288
    2      C       0.4627133540    -1.9029938096     0.2316731385
    3      C      -0.7832325161    -1.4942408604    -0.3925765190
    4      C      -2.0593112692    -2.0522814650     0.2283122544
    5      Se     -0.8620370462     0.6145684778    -0.3618150468
    6      H      -0.9910945173     0.6698427462     1.1067582794
    7      H       2.0199362149     0.2451089322     0.6839901169
    8      H       1.3936763170    -1.8957823006    -0.3230115628
    9      H       0.5033534343    -2.1000527654     1.2989086589
   10      H      -0.7674531830    -1.6370733349    -1.4761197507
   11      H      -2.1070317296    -1.8305081359     1.2991958495
   12      H      -2.9509749220    -1.6380344161    -0.2467214430
   13      H      -2.0763977988    -3.1426085444     0.1123795959
 ----------------------------------------------------------------
 Nuclear Repulsion Energy =   499.4831998959 hartrees
 There are       48 alpha and       46 beta electrons

                       Distance Matrix (Angstroms)
             Se(  1)   C (  2)   C (  3)   C (  4)   Se(  5)   H (  6)
   C (  2)  4.100000
   C (  3)  4.900375  1.452291
   C (  4)  6.178246  2.526441  1.524890
   Se(  5)  4.271541  2.906082  2.110505  2.982248
   H (  6)  4.286503  3.082015  2.640922  3.053312  1.475269
   H (  7)  1.482953  2.691446  3.470171  4.703818  3.088038  3.070088
   H (  8)  3.638536  1.083706  2.214725  3.500225  3.375146  3.783359
   H (  9)  4.239574  1.086037  2.209849  2.777717  3.462869  3.153192
   H ( 10)  5.304471  2.121457  1.093031  2.178620  2.514063  3.470322
   H ( 11)  6.125783  2.783604  2.174308  1.094647  3.207393  2.744832
   H ( 12)  6.832935  3.457215  2.177397  1.091935  3.074269  3.316525
   H ( 13)  6.815916  2.828067  2.155081  1.096606  3.976922  4.086742
             H (  7)   H (  8)   H (  9)   H ( 10)   H ( 11)   H ( 12)
   H (  8)  2.447380
   H (  9)  2.859708  1.861458
   H ( 10)  3.997277  2.463142  3.087083
   H ( 11)  4.660314  3.858857  2.624265  3.087760
   H ( 12)  5.396518  4.352959  3.812456  2.505831  1.771764
   H ( 13)  5.346337  3.712890  3.024879  2.550157  1.769485  1.776959

 
 Applying Cartesian multipole field
    Component          Value
    ---------          -----
     (2,0,0)        1.00000E-11
     (0,2,0)        2.00000E-11
     (0,0,2)       -3.00000E-10
 Nucleus-field energy     =    -0.0000000056 hartrees
 Requested basis set is 6-31G(d,p)
 There are 52 shells and 155 basis functions
 A cutoff of  1.0D-14 yielded   1201 shell pairs
 There are     10392 function pairs
 Smallest overlap matrix eigenvalue = 6.74E-04
 Guess from superposition of atomic densities
 Warning:  Energy on first SCF cycle will be non-variational
 SAD guess density has 93.936381 electrons

 -----------------------------------------------------------------------
  General SCF calculation program by
  Eric Jon Sundstrom, Paul Horn, Yuezhi Mao, Dmitri Zuev, Alec White,
  David Stuck, Shaama M.S., Shane Yost, Joonho Lee, David Small,
  Daniel Levine, Susi Lehtola, Hugh Burton, Evgeny Epifanovsky
 -----------------------------------------------------------------------
 Exchange:     0.2000 Hartree-Fock + 0.0800 Slater + 0.7200 B88
 Correlation:  0.1900 VWN1RPA + 0.8100 LYP
 Using SG-1 standard quadrature grid
 using 12 threads for integral computing
 -------------------------------------------------------
 OpenMP Integral computing Module                
 Release: version 1.0, May 2013, Q-Chem Inc. Pittsburgh 
 -------------------------------------------------------
 -------------------------------------------------------
 OpenMP BLAS3 based DFT computing Module                
 Release: version 1.0, May 2013, Q-Chem Inc. Pittsburgh 
 -------------------------------------------------------
 A unrestricted SCF calculation will be
 performed using DIIS
 SCF converges when DIIS error is below 1.0e-06
 Alpha HF Exchange    Energy = -18.84317780865929
 Beta HF Exchange     Energy = -18.84317780865929
 DFT Correlation      Energy =  -5.12756253927483
 DFT Exchange         Energy = -149.84943835991459
 One-Electron (alpha) Energy = -3917.12996482653034
 One-Electron (beta)  Energy = -3917.12996482653034
 Total Coulomb        Energy = 2600.01264718043512
 ---------------------------------------
  Cycle       Energy         DIIS error
 ---------------------------------------
    1   -4927.4274390988      1.50e-01  
 Alpha HF Exchange    Energy = -19.06297577660387
 Beta HF Exchange     Energy = -18.86276912902860
 DFT Correlation      Energy =  -5.17545479141517
 DFT Exchange         Energy = -151.00725165733184
 One-Electron (alpha) Energy = -3950.12675894560880
 One-Electron (beta)  Energy = -3903.06771150027498
 Total Coulomb        Energy = 2626.33442634783432
    2   -4921.4852955621      9.32e-03  
 Alpha HF Exchange    Energy = -18.92510299227879
 Beta HF Exchange     Energy = -18.75482848134831
 DFT Correlation      Energy =  -5.13208204520203
 DFT Exchange         Energy = -149.97787283962569
 One-Electron (alpha) Energy = -3936.37572904378521
 One-Electron (beta)  Energy = -3891.67458735371429
 Total Coulomb        Energy = 2599.84854690107295
    3   -4921.5084559646      3.61e-03  
 Alpha HF Exchange    Energy = -19.03872086567079
 Beta HF Exchange     Energy = -18.84132221740694
 DFT Correlation      Energy =  -5.16546984301817
 DFT Exchange         Energy = -150.80710602766214
 One-Electron (alpha) Energy = -3946.29217408464319
 One-Electron (beta)  Energy = -3899.31510786115268
 Total Coulomb        Energy = 2618.48934265914568
    4   -4921.4873583501      3.28e-03  
 Alpha HF Exchange    Energy = -19.00501745854969
 Beta HF Exchange     Energy = -18.82598885424746
 DFT Correlation      Energy =  -5.15331945432306
 DFT Exchange         Energy = -150.57187894179503
 One-Electron (alpha) Energy = -3944.49951556785254
 One-Electron (beta)  Energy = -3898.98250649967667
 Total Coulomb        Energy = 2615.93679971000347
    5   -4921.6182271761      1.24e-03  
 Alpha HF Exchange    Energy = -18.99600201136155
 Beta HF Exchange     Energy = -18.81482311892677
 DFT Correlation      Energy =  -5.15151151011905
 DFT Exchange         Energy = -150.49628891465082
 One-Electron (alpha) Energy = -3943.05097432491539
 One-Electron (beta)  Energy = -3897.38954353418831
 Total Coulomb        Energy = 2612.77721200664610
    6   -4921.6387315172      2.08e-04  
 Alpha HF Exchange    Energy = -18.99535447033115
 Beta HF Exchange     Energy = -18.81395408881680
 DFT Correlation      Energy =  -5.15085617430580
 DFT Exchange         Energy = -150.48944796362545
 One-Electron (alpha) Energy = -3942.94833209024182
 One-Electron (beta)  Energy = -3897.26094459982323
 Total Coulomb        Energy = 2612.53605973305912
    7   -4921.6396297638      1.13e-04  
 Alpha HF Exchange    Energy = -18.99578219206433
 Beta HF Exchange     Energy = -18.81449937668301
 DFT Correlation      Energy =  -5.15111833003051
 DFT Exchange         Energy = -150.49316628607701
 One-Electron (alpha) Energy = -3942.93445200612678
 One-Electron (beta)  Energy = -3897.27029132064581
 Total Coulomb        Energy = 2612.53629297498810
    8   -4921.6398166463      4.85e-05  
 Alpha HF Exchange    Energy = -18.99578385404579
 Beta HF Exchange     Energy = -18.81469097683824
 DFT Correlation      Energy =  -5.15100235358057
 DFT Exchange         Energy = -150.49330071593621
 One-Electron (alpha) Energy = -3942.94793388796688
 One-Electron (beta)  Energy = -3897.30343259834899
 Total Coulomb        Energy = 2612.58309183368237
    9   -4921.6398526627      1.35e-05  
 Alpha HF Exchange    Energy = -18.99578708854326
 Beta HF Exchange     Energy = -18.81481512055640
 DFT Correlation      Energy =  -5.15099037406453
 DFT Exchange         Energy = -150.49362959372584
 One-Electron (alpha) Energy = -3942.94187858620398
 One-Electron (beta)  Energy = -3897.30851681301556
 Total Coulomb        Energy = 2612.58255996281696
   10   -4921.6398577230      7.11e-06  
 Alpha HF Exchange    Energy = -18.99578737981168
 Beta HF Exchange     Energy = -18.81481082511810
 DFT Correlation      Energy =  -5.15098031459619
 DFT Exchange         Energy = -150.49356138157654
 One-Electron (alpha) Energy = -3942.93688860109160
 One-Electron (beta)  Energy = -3897.30634572058261
 Total Coulomb        Energy = 2612.57531547905819
   11   -4921.6398588534      1.84e-06  
 Alpha HF Exchange    Energy = -18.99578730680016
 Beta HF Exchange     Energy = -18.81483270472773
 DFT Correlation      Energy =  -5.15097726526090
 DFT Exchange         Energy = -150.49360836230511
 One-Electron (alpha) Energy = -3942.93658563033250
 One-Electron (beta)  Energy = -3897.30921487894602
 Total Coulomb        Energy = 2612.57794695205666
   12   -4921.6398593060      1.02e-06  
 Alpha HF Exchange    Energy = -18.99578418953959
 Beta HF Exchange     Energy = -18.81483260594666
 DFT Correlation      Energy =  -5.15097527180673
 DFT Exchange         Energy = -150.49359017548355
 One-Electron (alpha) Energy = -3942.93561218429159
 One-Electron (beta)  Energy = -3897.30909087964392
 Total Coulomb        Energy = 2612.57682582919733
   13   -4921.6398595872      8.98e-07  Convergence criterion met
 ---------------------------------------
 SCF time:   CPU 60.12s  wall 5.00s 
<S^2> =          2.011034792
 Alpha HF Exchange    Energy = -18.99578418953959
 Beta HF Exchange     Energy = -18.81483260594666
 DFT Correlation      Energy =  -5.15097527180673
 DFT Exchange         Energy = -150.49359017548355
 One-Electron (alpha) Energy = -3942.93561218429159
 One-Electron (beta)  Energy = -3897.30909087964392
 Total Coulomb        Energy = 2612.57682582919733
 Nuclear repulsion Energy = 499.48319989032706
 SCF   energy in the final basis set =    -4921.6398595872
 Total energy in the final basis set =    -4921.6398595872
 
 --------------------------------------------------------------
 
                    Orbital Energies (a.u.)
 --------------------------------------------------------------
 
 Alpha MOs
 -- Occupied --
*******-453.900 -58.101 -58.096 -52.161 -52.158 -52.155 -52.153
-52.152 -52.150 -10.243 -10.212 -10.198  -7.835  -7.829  -5.783
 -5.776  -5.774  -5.771  -5.765  -5.762  -2.116  -2.115  -2.108
 -2.107  -2.106  -2.101  -2.100  -2.099  -2.097  -2.096  -0.818
 -0.703  -0.695  -0.693  -0.586  -0.484  -0.440  -0.433  -0.392
 -0.385  -0.381  -0.362  -0.336  -0.285  -0.244  -0.243  -0.208
 -- Virtual --
 -0.013   0.027   0.046   0.094   0.117   0.122   0.151   0.158
  0.163   0.179   0.214   0.230   0.246   0.257   0.270   0.288
  0.308   0.326   0.387   0.442   0.443   0.496   0.515   0.521
  0.540   0.542   0.544   0.551   0.570   0.580   0.623   0.667
  0.683   0.711   0.750   0.775   0.806   0.815   0.857   0.874
  0.891   0.906   0.928   1.004   1.019   1.080   1.099   1.191
  1.347   1.427   1.433   1.483   1.526   1.635   1.706   1.766
  1.842   1.883   1.920   1.968   2.015   2.035   2.070   2.078
  2.081   2.086   2.104   2.123   2.137   2.271   2.300   2.345
  2.399   2.491   2.556   2.583   2.598   2.634   2.644   2.699
  2.740   2.820   2.863   2.916   3.178   3.269   3.379   3.406
  3.455   3.513   4.195   4.220   4.220   4.242   4.262   4.265
  4.297   4.338   4.375   4.394   4.432   4.474   4.609   5.407
  5.481  89.578  89.814
 
 Beta MOs
 -- Occupied --
*******-453.900 -58.100 -58.095 -52.157 -52.156 -52.154 -52.153
-52.152 -52.149 -10.245 -10.200 -10.197  -7.832  -7.828  -5.775
 -5.774  -5.773  -5.769  -5.764  -5.761  -2.110  -2.110  -2.107
 -2.106  -2.101  -2.100  -2.099  -2.097  -2.096  -2.095  -0.811
 -0.694  -0.675  -0.661  -0.578  -0.479  -0.437  -0.428  -0.389
 -0.381  -0.369  -0.360  -0.319  -0.235  -0.230
 -- Virtual --
 -0.162  -0.086  -0.004   0.031   0.059   0.097   0.119   0.130
  0.156   0.160   0.164   0.185   0.220   0.233   0.254   0.262
  0.282   0.299   0.312   0.333   0.398   0.447   0.453   0.502
  0.524   0.547   0.555   0.559   0.583   0.587   0.589   0.606
  0.635   0.672   0.686   0.716   0.754   0.781   0.816   0.826
  0.859   0.876   0.893   0.911   0.930   1.017   1.024   1.084
  1.104   1.199   1.363   1.428   1.454   1.499   1.542   1.640
  1.712   1.766   1.844   1.891   1.935   1.988   2.021   2.035
  2.072   2.077   2.081   2.090   2.106   2.124   2.143   2.277
  2.300   2.348   2.409   2.505   2.569   2.592   2.599   2.636
  2.645   2.702   2.742   2.821   2.863   2.918   3.179   3.272
  3.383   3.408   3.456   3.518   4.209   4.233   4.233   4.255
  4.265   4.267   4.301   4.340   4.381   4.398   4.441   4.478
  4.613   5.421   5.485  89.583  89.816
 --------------------------------------------------------------
 
          Ground-State Mulliken Net Atomic Charges

     Atom                 Charge (a.u.)    Spin (a.u.)
  --------------------------------------------------------
      1 Se                   -0.114659       1.013893
      2 C                    -0.214347       0.927348
      3 C                    -0.150801      -0.110571
      4 C                    -0.311596       0.008101
      5 Se                   -0.091495       0.267960
      6 H                     0.058716      -0.006894
      7 H                     0.078156      -0.027187
      8 H                     0.128711      -0.041561
      9 H                     0.114562      -0.041655
     10 H                     0.139075       0.011226
     11 H                     0.114084      -0.000936
     12 H                     0.130234       0.001270
     13 H                     0.119360      -0.000994
  --------------------------------------------------------
  Sum of atomic charges =     0.000000
  Sum of spin   charges =     2.000000

 -----------------------------------------------------------------
                    Cartesian Multipole Moments
 -----------------------------------------------------------------
    Charge (ESU x 10^10)
                -0.0000
    Dipole Moment (Debye)
         X      -1.6133      Y      -2.3768      Z       0.3733
       Tot       2.8968
    Quadrupole Moments (Debye-Ang)
        XX     -62.9880     XY      -0.3522     YY     -57.0598
        XZ      -0.8768     YZ      -0.4855     ZZ     -56.7206
    Octopole Moments (Debye-Ang^2)
       XXX     -97.4122    XXY      -3.8049    XYY     -32.2116
       YYY      15.7532    XXZ      -5.0699    XYZ      -5.7969
       YYZ     -10.8060    XZZ     -33.9089    YZZ      -0.4560
       ZZZ     -28.1489
    Hexadecapole Moments (Debye-Ang^3)
      XXXX   -1624.3619   XXXY    -254.0423   XXYY    -369.8228
      XYYY    -251.0230   YYYY    -667.2811   XXXZ    -119.7297
      XXYZ     -14.0525   XYYZ     -53.8196   YYYZ     -25.0170
      XXZZ    -303.1885   XYZZ     -96.3838   YYZZ    -142.2680
      XZZZ    -143.8404   YZZZ     -26.5958   ZZZZ    -173.2301
 -----------------------------------------------------------------
 Calculating analytic gradient of the SCF energy
 Gradient of SCF Energy
            1           2           3           4           5           6
    1  -0.0004826   0.0005433   0.0001870   0.0000026  -0.0001162   0.0000618
    2  -0.0006441   0.0004434   0.0000801   0.0000810   0.0000519  -0.0000225
    3  -0.0000281   0.0001297   0.0000789   0.0000106  -0.0000315   0.0000363
            7           8           9          10          11          12
    1  -0.0001803  -0.0000218  -0.0000147   0.0000246  -0.0000118   0.0000169
    2   0.0000922  -0.0000106  -0.0000596   0.0000273  -0.0000034  -0.0000155
    3  -0.0001309  -0.0000618   0.0000312  -0.0000021  -0.0000137  -0.0000207
           13
    1  -0.0000088
    2  -0.0000201
    3   0.0000021
[...]
   H ( 13)  6.820477  2.828742  2.154494  1.096577  3.978490  4.084366
             H (  7)   H (  8)   H (  9)   H ( 10)   H ( 11)   H ( 12)
   H (  8)  2.443829
   H (  9)  2.824004  1.861182
   H ( 10)  4.040893  2.465028  3.087111
   H ( 11)  4.656123  3.856519  2.620039  3.087680
   H ( 12)  5.421854  4.354043  3.810654  2.507401  1.771883
   H ( 13)  5.350302  3.715349  3.024807  2.548628  1.769354  1.777013

 
 Applying Cartesian multipole field
    Component          Value
    ---------          -----
     (2,0,0)        1.00000E-11
     (0,2,0)        2.00000E-11
     (0,0,2)       -3.00000E-10
 Nucleus-field energy     =    -0.0000000076 hartrees
 Requested basis set is 6-31G(d,p)
 There are 52 shells and 155 basis functions
 A cutoff of  1.0D-14 yielded   1200 shell pairs
 There are     10380 function pairs
 Smallest overlap matrix eigenvalue = 6.74E-04
 Guess from superposition of atomic densities
 Warning:  Energy on first SCF cycle will be non-variational
 SAD guess density has 93.936381 electrons

 -----------------------------------------------------------------------
  General SCF calculation program by
  Eric Jon Sundstrom, Paul Horn, Yuezhi Mao, Dmitri Zuev, Alec White,
  David Stuck, Shaama M.S., Shane Yost, Joonho Lee, David Small,
  Daniel Levine, Susi Lehtola, Hugh Burton, Evgeny Epifanovsky
 -----------------------------------------------------------------------
 Exchange:     0.2000 Hartree-Fock + 0.0800 Slater + 0.7200 B88
 Correlation:  0.1900 VWN1RPA + 0.8100 LYP
 Using SG-1 standard quadrature grid
 using 12 threads for integral computing
 -------------------------------------------------------
 OpenMP Integral computing Module                
 Release: version 1.0, May 2013, Q-Chem Inc. Pittsburgh 
 -------------------------------------------------------
 -------------------------------------------------------
 OpenMP BLAS3 based DFT computing Module                
 Release: version 1.0, May 2013, Q-Chem Inc. Pittsburgh 
 -------------------------------------------------------
 A unrestricted SCF calculation will be
 performed using DIIS
 SCF converges when DIIS error is below 1.0e-06
 Alpha HF Exchange    Energy = -18.84316691945687
 Beta HF Exchange     Energy = -18.84316691945687
 DFT Correlation      Energy =  -5.12746737699559
 DFT Exchange         Energy = -149.84944163709474
 One-Electron (alpha) Energy = -3915.70693533385611
 One-Electron (beta)  Energy = -3915.70693533385611
 Total Coulomb        Energy = 2598.59484358467580
 ---------------------------------------
  Cycle       Energy         DIIS error
 ---------------------------------------
    1   -4927.4229223116      1.50e-01  
 Alpha HF Exchange    Energy = -19.06299789452252
 Beta HF Exchange     Energy = -18.86284288801901
 DFT Correlation      Energy =  -5.17538376745761
 DFT Exchange         Energy = -151.00752387885348
 One-Electron (alpha) Energy = -3948.67958567933829
 One-Electron (beta)  Energy = -3901.67317995133362
 Total Coulomb        Energy = 2624.91591258351036
    2   -4921.4862538516      9.32e-03  
 Alpha HF Exchange    Energy = -18.92511323495829
 Beta HF Exchange     Energy = -18.75472127544861
 DFT Correlation      Energy =  -5.13196822665957
 DFT Exchange         Energy = -149.97745190941947
 One-Electron (alpha) Energy = -3934.92078349374697
 One-Electron (beta)  Energy = -3890.24084453445403
 Total Coulomb        Energy = 2598.38146947309815
    3   -4921.5100655771      3.60e-03  
 Alpha HF Exchange    Energy = -19.03888436488682
 Beta HF Exchange     Energy = -18.84129966126054
 DFT Correlation      Energy =  -5.16546672835728
 DFT Exchange         Energy = -150.80767713039268
 One-Electron (alpha) Energy = -3944.88420204780368
 One-Electron (beta)  Energy = -3897.98900386615469
 Total Coulomb        Energy = 2617.16799602021092
    4   -4921.4991901542      3.20e-03  
 Alpha HF Exchange    Energy = -19.00456539516047
 Beta HF Exchange     Energy = -18.82530947807696
 DFT Correlation      Energy =  -5.15307337618992
 DFT Exchange         Energy = -150.56739212038951
 One-Electron (alpha) Energy = -3942.99629763092207
 One-Electron (beta)  Energy = -3897.49530326852573
 Total Coulomb        Energy = 2614.36214137394700
    5   -4921.6204522709      1.18e-03  
 Alpha HF Exchange    Energy = -18.99602960636752
 Beta HF Exchange     Energy = -18.81473382024873
 DFT Correlation      Energy =  -5.15143226636809
 DFT Exchange         Energy = -150.49612650164147
 One-Electron (alpha) Energy = -3941.60553212088598
 One-Electron (beta)  Energy = -3895.96605403415060
 Total Coulomb        Energy = 2611.33161547604959
    6   -4921.6389452492      1.88e-04  
 Alpha HF Exchange    Energy = -18.99534423625616
 Beta HF Exchange     Energy = -18.81391802121051
 DFT Correlation      Energy =  -5.15076302591691
 DFT Exchange         Energy = -150.48922871301488
 One-Electron (alpha) Energy = -3941.49954318285245
 One-Electron (beta)  Energy = -3895.84211601591824
 Total Coulomb        Energy = 2611.09190623221411
    7   -4921.6396593385      1.08e-04  
 Alpha HF Exchange    Energy = -18.99577924672308
 Beta HF Exchange     Energy = -18.81449188638944
 DFT Correlation      Energy =  -5.15101617556198
 DFT Exchange         Energy = -150.49305357240769
 One-Electron (alpha) Energy = -3941.49279033031098
 One-Electron (beta)  Energy = -3895.85856691606477
 Total Coulomb        Energy = 2611.10651407842306
    8   -4921.6398364246      4.50e-05  
 Alpha HF Exchange    Energy = -18.99579099886468
 Beta HF Exchange     Energy = -18.81468082810549
 DFT Correlation      Energy =  -5.15091236365224
 DFT Exchange         Energy = -150.49324986560470
 One-Electron (alpha) Energy = -3941.50547773217841
 One-Electron (beta)  Energy = -3895.89014507234424
 Total Coulomb        Energy = 2611.15104107742127
    9   -4921.6398681589      1.25e-05  
 Alpha HF Exchange    Energy = -18.99579642813509
 Beta HF Exchange     Energy = -18.81480274915746
 DFT Correlation      Energy =  -5.15089927832323
 DFT Exchange         Energy = -150.49357696174766
 One-Electron (alpha) Energy = -3941.50022383213764
 One-Electron (beta)  Energy = -3895.89569742430558
 Total Coulomb        Energy = 2611.15177640840511
   10   -4921.6398726410      6.59e-06  
 Alpha HF Exchange    Energy = -18.99579513060844
 Beta HF Exchange     Energy = -18.81479735645859
 DFT Correlation      Energy =  -5.15088950652838
 DFT Exchange         Energy = -150.49350179974519
 One-Electron (alpha) Energy = -3941.49518978917695
 One-Electron (beta)  Energy = -3895.89335052838169
 Total Coulomb        Energy = 2611.14430287032701
   11   -4921.6398736161      1.71e-06  
 Alpha HF Exchange    Energy = -18.99579474825140
 Beta HF Exchange     Energy = -18.81481735720801
 DFT Correlation      Energy =  -5.15088634296019
 DFT Exchange         Energy = -150.49354256273728
 One-Electron (alpha) Energy = -3941.49483169973928
 One-Electron (beta)  Energy = -3895.89599074917760
 Total Coulomb        Energy = 2611.14664183299055
   12   -4921.6398740026      9.43e-07  Convergence criterion met
 ---------------------------------------
 SCF time:   CPU 55.48s  wall 5.00s 
<S^2> =          2.011052818
 Alpha HF Exchange    Energy = -18.99579474825140
 Beta HF Exchange     Energy = -18.81481735720801
 DFT Correlation      Energy =  -5.15088634296019
 DFT Exchange         Energy = -150.49354256273728
 One-Electron (alpha) Energy = -3941.49483169973928
 One-Electron (beta)  Energy = -3895.89599074917760
 Total Coulomb        Energy = 2611.14664183299055
 Nuclear repulsion Energy = 498.05934762444775
 SCF   energy in the final basis set =    -4921.6398740026
 Total energy in the final basis set =    -4921.6398740026
 
 --------------------------------------------------------------
 
                    Orbital Energies (a.u.)
 --------------------------------------------------------------
 
 Alpha MOs
 -- Occupied --
*******-453.900 -58.102 -58.095 -52.161 -52.158 -52.155 -52.153
-52.152 -52.150 -10.243 -10.211 -10.197  -7.836  -7.829  -5.784
 -5.777  -5.774  -5.771  -5.766  -5.761  -2.116  -2.115  -2.108
 -2.107  -2.106  -2.102  -2.100  -2.099  -2.097  -2.095  -0.818
 -0.703  -0.695  -0.693  -0.586  -0.483  -0.440  -0.433  -0.392
 -0.385  -0.381  -0.362  -0.336  -0.285  -0.244  -0.243  -0.207
 -- Virtual --
 -0.013   0.027   0.045   0.094   0.117   0.122   0.150   0.158
  0.163   0.179   0.213   0.229   0.246   0.258   0.270   0.288
  0.307   0.325   0.385   0.441   0.444   0.496   0.516   0.520
  0.539   0.541   0.543   0.551   0.570   0.580   0.621   0.667
  0.682   0.713   0.751   0.775   0.807   0.816   0.857   0.874
  0.891   0.906   0.928   1.006   1.020   1.077   1.100   1.191
  1.347   1.426   1.431   1.483   1.525   1.635   1.707   1.766
  1.843   1.884   1.921   1.968   2.015   2.035   2.070   2.079
  2.081   2.086   2.103   2.121   2.136   2.272   2.300   2.345
  2.399   2.491   2.556   2.583   2.598   2.633   2.644   2.699
  2.740   2.820   2.863   2.916   3.178   3.270   3.379   3.406
  3.455   3.513   4.195   4.219   4.220   4.241   4.262   4.265
  4.297   4.338   4.374   4.393   4.433   4.475   4.609   5.406
  5.480  89.577  89.810
 
 Beta MOs
 -- Occupied --
*******-453.900 -58.101 -58.095 -52.158 -52.157 -52.154 -52.152
-52.151 -52.149 -10.245 -10.199 -10.197  -7.832  -7.828  -5.776
 -5.775  -5.772  -5.769  -5.764  -5.760  -2.111  -2.110  -2.106
 -2.106  -2.101  -2.101  -2.098  -2.098  -2.096  -2.094  -0.811
 -0.694  -0.675  -0.662  -0.578  -0.479  -0.437  -0.428  -0.389
 -0.381  -0.370  -0.360  -0.319  -0.235  -0.230
 -- Virtual --
 -0.162  -0.086  -0.004   0.031   0.059   0.097   0.119   0.130
  0.156   0.160   0.164   0.185   0.220   0.233   0.254   0.262
  0.282   0.299   0.312   0.333   0.395   0.447   0.454   0.502
  0.525   0.546   0.554   0.558   0.583   0.587   0.589   0.606
  0.632   0.672   0.685   0.718   0.754   0.781   0.816   0.829
  0.859   0.876   0.893   0.911   0.930   1.017   1.026   1.081
  1.105   1.199   1.363   1.428   1.451   1.500   1.541   1.640
  1.712   1.766   1.844   1.892   1.936   1.989   2.021   2.036
  2.072   2.078   2.081   2.090   2.105   2.122   2.142   2.277
  2.300   2.348   2.409   2.505   2.569   2.592   2.599   2.635
  2.645   2.702   2.742   2.822   2.863   2.918   3.179   3.272
  3.383   3.408   3.456   3.518   4.210   4.232   4.233   4.254
  4.264   4.267   4.301   4.341   4.380   4.398   4.442   4.478
  4.613   5.421   5.484  89.582  89.812
 --------------------------------------------------------------
 
          Ground-State Mulliken Net Atomic Charges

     Atom                 Charge (a.u.)    Spin (a.u.)
  --------------------------------------------------------
      1 Se                   -0.113041       1.014621
      2 C                    -0.214363       0.926013
      3 C                    -0.150522      -0.110360
      4 C                    -0.311879       0.007945
      5 Se                   -0.091851       0.268279
      6 H                     0.058596      -0.006955
      7 H                     0.077448      -0.027021
      8 H                     0.128614      -0.041464
      9 H                     0.114222      -0.041606
     10 H                     0.139045       0.011274
     11 H                     0.113999      -0.000916
     12 H                     0.130220       0.001205
     13 H                     0.119514      -0.001015
  --------------------------------------------------------
  Sum of atomic charges =     0.000000
  Sum of spin   charges =     2.000000

 -----------------------------------------------------------------
                    Cartesian Multipole Moments
 -----------------------------------------------------------------
    Charge (ESU x 10^10)
                -0.0000
    Dipole Moment (Debye)
         X      -1.5878      Y      -2.3653      Z       0.3831
       Tot       2.8744
    Quadrupole Moments (Debye-Ang)
        XX     -62.9243     XY      -0.2864     YY     -57.0585
        XZ      -0.9049     YZ      -0.4630     ZZ     -56.7316
    Octopole Moments (Debye-Ang^2)
       XXX     -97.2495    XXY      -3.4506    XYY     -32.2434
       YYY      16.2135    XXZ      -5.0103    XYZ      -5.8841
       YYZ     -10.9132    XZZ     -33.7093    YZZ      -0.4196
       ZZZ     -28.5096
    Hexadecapole Moments (Debye-Ang^3)
      XXXX   -1636.9726   XXXY    -252.1612   XXYY    -370.9222
      XYYY    -249.8902   YYYY    -663.9275   XXXZ    -126.4971
      XXYZ     -14.3481   XYYZ     -56.0558   YYYZ     -25.9804
      XXZZ    -305.7804   XYZZ     -96.1947   YYZZ    -142.9577
      XZZZ    -150.6788   YZZZ     -27.7325   ZZZZ    -179.7509
 -----------------------------------------------------------------
 Calculating analytic gradient of the SCF energy
 Gradient of SCF Energy
            1           2           3           4           5           6
    1  -0.0005376   0.0005335  -0.0000346   0.0000145  -0.0000209   0.0000125
    2  -0.0004800   0.0005820  -0.0000026  -0.0000236  -0.0000070  -0.0000097
    3  -0.0000781   0.0000679  -0.0000219  -0.0000050   0.0000142   0.0000156
            7           8           9          10          11          12
    1   0.0000504  -0.0000437  -0.0000002   0.0000068   0.0000026  -0.0000002
    2  -0.0000183   0.0000115  -0.0000269   0.0000060  -0.0000065  -0.0000152
    3  -0.0000283   0.0000323  -0.0000091   0.0000004   0.0000015   0.0000065
           13
    1   0.0000169
    2  -0.0000098
    3   0.0000039
 Max gradient component =       5.820E-04
 RMS gradient           =       1.729E-04
 Gradient time:  CPU 17.78 s  wall 1.57 s
 Geometry Optimization Parameters
   NAtoms,    NIC,     NZ,  NCons,   NDum,   NFix, NCnnct, MaxDiis
       13      77       0       1       0       0       0       0

 Cartesian Hessian Update
 Hessian Updated using BFGS Update


** CONSTRAINED OPTIMIZATION IN DELOCALIZED INTERNAL COORDINATES **
   Searching for a Minimum

   Optimization Cycle:   9

                       Coordinates (Angstroms)
     ATOM                X               Y               Z
      1  Se        3.2690700578    1.0562455537    0.7096684372
      2  C         0.4625505024   -1.8917437720    0.2169117337
      3  C        -0.7908853637   -1.4951947812   -0.4001694964
      4  C        -2.0581376542   -2.0550940691    0.2365058040
      5  Se       -0.8736103518    0.6134616144   -0.3837496050
      6  H        -1.0088153624    0.6797445976    1.0836701411
      7  H         2.0432577274    0.2223187763    0.7182693571
      8  H         1.3896888593   -1.8793600072   -0.3438485140
      9  H         0.5122627081   -2.0820028669    1.2849727463
     10  H        -0.7840229683   -1.6461331834   -1.4826827721
     11  H        -2.0953707648   -1.8282724808    1.3067543931
     12  H        -2.9567047511   -1.6473380553   -0.2310799163
     13  H        -2.0712836389   -3.1460373260    0.1262766913
   Point Group: c1    Number of degrees of freedom:    33


   Energy is  -4921.639874003

              Constraints and their Current Values
                                        Value     Constraint
   Distance(Angs):        1   2             4.100000     4.100000
 Hessian Updated using BFGS Update

 32 Hessian modes will be used to form the next step
  Hessian Eigenvalues:
     0.005192    0.015760    0.039977    0.045000    0.045077    0.045759
     0.048561    0.072591    0.081375    0.082326    0.084104    0.108364
     0.114615    0.151334    0.159402    0.159855    0.160001    0.160008
     0.160341    0.174584    0.179873    0.192240    0.198267    0.202837
     0.300042    0.340627    0.342797    0.344658    0.345877    0.353667
     0.365970    0.403771

 Minimum Search - Taking Simple RFO Step
 Searching for Lamda that Minimizes Along All modes
 Value Taken    Lamda =   0.00000000
 Step Taken.  Stepsize is  0.004740

                             Maximum     Tolerance    Cnvgd?
         Gradient           0.000073      0.000300     YES
         Displacement       0.001589      0.001200      NO
         Energy change     -0.000000      0.000001     YES


                       Distance Matrix (Angstroms)
             Se(  1)   C (  2)   C (  3)   C (  4)   Se(  5)   H (  6)
   C (  2)  4.100000
   C (  3)  4.921872  1.452288
   C (  4)  6.187363  2.526051  1.524720
   Se(  5)  4.307368  2.902098  2.110342  2.984797
   H (  6)  4.310677  3.086866  2.641900  3.049280  1.475125
   H (  7)  1.482607  2.686867  3.497589  4.715946  3.142540  3.107717
   H (  8)  3.641394  1.083601  2.214872  3.500743  3.367236  3.786773
   H (  9)  4.216582  1.086013  2.209580  2.776142  3.459885  3.159343
   H ( 10)  5.341986  2.122002  1.093007  2.178584  2.514249  3.470793
   H ( 11)  6.119982  2.781141  2.173985  1.094654  3.211319  2.742356
   H ( 12)  6.852346  3.457128  2.177731  1.091936  3.077955  3.307288
   H ( 13)  6.820477  2.828742  2.154494  1.096577  3.978490  4.084366
             H (  7)   H (  8)   H (  9)   H ( 10)   H ( 11)   H ( 12)
   H (  8)  2.443829
   H (  9)  2.824004  1.861182
   H ( 10)  4.040893  2.465028  3.087111
   H ( 11)  4.656123  3.856519  2.620039  3.087680
   H ( 12)  5.421854  4.354043  3.810654  2.507401  1.771883
   H ( 13)  5.350302  3.715349  3.024807  2.548628  1.769354  1.777013

 
 Final energy is   -4921.63987400264     


 ******************************
 **  OPTIMIZATION CONVERGED  **
 ******************************

                       Coordinates (Angstroms)
     ATOM                X               Y               Z
      1  Se        3.2690700578    1.0562455537    0.7096684372
      2  C         0.4625505024   -1.8917437720    0.2169117337
      3  C        -0.7908853637   -1.4951947812   -0.4001694964
      4  C        -2.0581376542   -2.0550940691    0.2365058040
      5  Se       -0.8736103518    0.6134616144   -0.3837496050
      6  H        -1.0088153624    0.6797445976    1.0836701411
      7  H         2.0432577274    0.2223187763    0.7182693571
      8  H         1.3896888593   -1.8793600072   -0.3438485140
      9  H         0.5122627081   -2.0820028669    1.2849727463
     10  H        -0.7840229683   -1.6461331834   -1.4826827721
     11  H        -2.0953707648   -1.8282724808    1.3067543931
     12  H        -2.9567047511   -1.6473380553   -0.2310799163
     13  H        -2.0712836389   -3.1460373260    0.1262766913

Z-matrix Print:
$molecule
0 3
Se
H  1 1.475125
C  1 2.110342 2 93.223491
H  3 1.093007 1 98.391507 2 174.888105 0
C  3 1.452288 1 107.659486 2 -68.520218 0
H  5 1.083601 3 121.027489 1 -80.823441 0
H  5 1.086013 3 120.346103 1 91.109926 0
C  3 1.524720 1 109.335053 2 58.397579 0
H  8 1.091936 3 111.593312 1 53.336026 0
H  8 1.094654 3 111.127166 1 -67.606032 0
H  8 1.096577 3 109.470252 1 173.558059 0
H  6 2.443829 5 90.787195 3 101.688106 0
Se 12 1.482607 6 134.613239 5 173.481078 0
$end

PES scan, value:    4.1000 energy: -4921.6398740026
------- Summary of potential scan: ------ 
    4.1000     -4921.6398740026
----------------------------------------- 
Archival summary:
1\1\hpc0248\JobtypUnspecified\ProcedureUnspecified\6-31G**\e238(3)\knomura\ThuMar1409:36:152019ThuMar1409:36:152019\0\\#,JobtypUnspecified,ProcedureUnspecified,6-31G**,\\0,3\Se\H,1,1.47513\C,1,2.11034,2,93.2235\H,3,1.09301,1,98.3915,2,174.888,0\C,3,1.45229,1,107.659,2,-68.5202,0\H,5,1.0836,3,121.027,1,-80.8234,0\H,5,1.08601,3,120.346,1,91.1099,0\C,3,1.52472,1,109.335,2,58.3976,0\H,8,1.09194,3,111.593,1,53.336,0\H,8,1.09465,3,111.127,1,-67.606,0\H,8,1.09658,3,109.47,1,173.558,0\H,6,2.44383,5,90.7872,3,101.688,0\Se,12,1.48261,6,134.613,5,173.481,0\\\@

 Total job time:  68.41s(wall), 740.37s(cpu) 
 Thu Mar 14 09:36:15 2019

        *************************************************************
        *                                                           *
        *  Thank you very much for using Q-Chem.  Have a nice day.  *
        *                                                           *
        *************************************************************


