
Running Job 1 of 1 selenium/03/C-Se.xyz.data/inputs/bond_singlet_2.4.in
qchem selenium/03/C-Se.xyz.data/inputs/bond_singlet_2.4.in_9852.0 /staging/scratch/2868765/qchem9852/ 1
/usr/usc/qchem/5.1.1/exe/qcprog.exe_s selenium/03/C-Se.xyz.data/inputs/bond_singlet_2.4.in_9852.0 /staging/scratch/2868765/qchem9852/
Check license passed

                  Welcome to Q-Chem
     A Quantum Leap Into The Future Of Chemistry


 Q-Chem 5.1, Q-Chem, Inc., Pleasanton, CA (2018)

 Yihan Shao,  Zhengting Gan,  E. Epifanovsky,  A. T. B. Gilbert,  M. Wormit,  
 J. Kussmann,  A. W. Lange,  A. Behn,  Jia Deng,  Xintian Feng,  D. Ghosh,  
 M. Goldey,  P. R. Horn,  L. D. Jacobson,  I. Kaliman,  T. Kus,  A. Landau,  
 Jie Liu,  E. I. Proynov,  R. M. Richard,  R. P. Steele,  E. J. Sundstrom,  
 H. L. Woodcock III,  P. M. Zimmerman,  D. Zuev,  B. Albrecht,  E. Alguire,  
 S. A. Baeppler,  D. Barton,  Z. Benda,  Y. A. Bernard,  E. J. Berquist,  
 K. B. Bravaya,  H. Burton,  D. Casanova,  Chun-Min Chang,  Yunqing Chen,  
 A. Chien,  K. D. Closser,  M. P. Coons,  S. Coriani,  S. Dasgupta,  
 A. L. Dempwolff,  M. Diedenhofen,  Hainam Do,  R. G. Edgar,  Po-Tung Fang,  
 S. Faraji,  S. Fatehi,  Qingguo Feng,  K. D. Fenk,  J. Fosso-Tande,  
 Qinghui Ge,  A. Ghysels,  G. Gidofalvi,  J. Gomes,  J. Gonthier,  A. Gunina,  
 D. Hait,  M. W. D. Hanson-Heine,  P. H. P. Harbach,  A. W. Hauser,  
 J. E. Herr,  E. G. Hohenstein,  Z. C. Holden,  Kerwin Hui,  B. C. Huynh,  
 T.-C. Jagau,  Hyunjun Ji,  B. Kaduk,  K. Khistyaev,  Jaehoon Kim,  
 P. Klunzinger,  K. Koh,  D. Kosenkov,  L. Koulias,  T. Kowalczyk,  
 C. M. Krauter,  A. Kunitsa,  Ka Un Lao,  A. Laurent,  K. V. Lawler,  
 Joonho Lee,  D. Lefrancois,  S. Lehtola,  D. S. Levine,  Yi-Pei Li,  
 You-Sheng Lin,  Fenglai Liu,  E. Livshits,  A. Luenser,  P. Manohar,  
 E. Mansoor,  S. F. Manzer,  Shan-Ping Mao,  Yuezhi Mao,  N. Mardirossian,  
 A. V. Marenich,  T. Markovich,  L. A. Martinez-Martinez,  S. A. Maurer,  
 N. J. Mayhall,  S. C. McKenzie,  J.-M. Mewes,  A. F. Morrison,  
 J. W. Mullinax,  K. Nanda,  T. S. Nguyen-Beck,  R. Olivares-Amaya,  
 J. A. Parkhill,  T. M. Perrine,  F. Plasser,  P. Pokhilko,  S. Prager,  
 A. Prociuk,  E. Ramos,  D. R. Rehn,  F. Rob,  M. Schneider,  N. Sergueev,  
 S. M. Sharada,  S. Sharma,  D. W. Small,  T. Stauch,  T. Stein,  
 Yu-Chuan Su,  A. J. W. Thom,  A. Tkatchenko,  T. Tsuchimochi,  N. M. Tubman,  
 L. Vogt,  M. L. Vidal,  O. Vydrov,  M. A. Watson,  J. Wenzel,  
 M. de Wergifosse,  T. A. Wesolowski,  A. White,  J. Witte,  A. Yamada,  
 Jun Yang,  K. Yao,  S. Yeganeh,  S. R. Yost,  Zhi-Qiang You,  A. Zech,  
 Igor Ying Zhang,  Xing Zhang,  Yan Zhao,  Ying Zhu,  B. R. Brooks,  
 G. K. L. Chan,  C. J. Cramer,  M. S. Gordon,  W. J. Hehre,  A. Klamt,  
 M. W. Schmidt,  C. D. Sherrill,  D. G. Truhlar,  A. Aspuru-Guzik,  R. Baer,  
 A. T. Bell,  N. A. Besley,  Jeng-Da Chai,  A. E. DePrince, III,  
 R. A. DiStasio Jr.,  A. Dreuw,  B. D. Dunietz,  T. R. Furlani,  
 Chao-Ping Hsu,  Yousung Jung,  Jing Kong,  D. S. Lambrecht,  WanZhen Liang,  
 C. Ochsenfeld,  V. A. Rassolov,  L. V. Slipchenko,  J. E. Subotnik,  
 T. Van Voorhis,  J. M. Herbert,  A. I. Krylov,  P. M. W. Gill,  M. Head-Gordon

 Contributors to earlier versions of Q-Chem not listed above: 
 R. D. Adamson,  B. Austin,  J. Baker,  G. J. O. Beran,  K. Brandhorst,  
 S. T. Brown,  E. F. C. Byrd,  A. K. Chakraborty,  C.-L. Cheng,  
 Siu Hung Chien,  D. M. Chipman,  D. L. Crittenden,  H. Dachsel,  
 R. J. Doerksen,  A. D. Dutoi,  L. Fusti-Molnar,  W. A. Goddard III,  
 A. Golubeva-Zadorozhnaya,  S. R. Gwaltney,  G. Hawkins,  A. Heyden,  
 S. Hirata,  G. Kedziora,  F. J. Keil,  C. Kelley,  Jihan Kim,  R. A. King,  
 R. Z. Khaliullin,  P. P. Korambath,  W. Kurlancheek,  A. M. Lee,  M. S. Lee,  
 S. V. Levchenko,  Ching Yeh Lin,  D. Liotard,  R. C. Lochan,  I. Lotan,  
 P. E. Maslen,  N. Nair,  D. P. O'Neill,  D. Neuhauser,  E. Neuscamman,  
 C. M. Oana,  R. Olson,  B. Peters,  R. Peverati,  P. A. Pieniazek,  
 Y. M. Rhee,  J. Ritchie,  M. A. Rohrdanz,  E. Rosta,  N. J. Russ,  
 H. F. Schaefer III,  N. E. Schultz,  N. Shenvi,  A. C. Simmonett,  A. Sodt,  
 D. Stuck,  K. S. Thanthiriwatte,  V. Vanovschi,  Tao Wang,  A. Warshel,  
 C. F. Williams,  Q. Wu,  X. Xu,  W. Zhang

 Please cite Q-Chem as follows:
 Y. Shao et al., Mol. Phys. 113, 184-215 (2015)
 DOI: 10.1080/00268976.2014.952696

 Q-Chem 5.1.1 for Intel X86 EM64T Linux

 Parts of Q-Chem use Armadillo 8.300.2 (Tropical Shenanigans).
 http://arma.sourceforge.net/

 Q-Chem begins on Thu Mar 14 07:21:29 2019  

Host: 
0

     Scratch files written to /staging/scratch/2868765/qchem9852//
 Aug318 |scratch|qcdevops|jenkins|workspace|build_RNUM 6013   
Processing $rem in /usr/usc/qchem/5.1.1/config/preferences.
 MEM_TOTAL  2000 
Input Ideriv = 2
Curr. Ideriv = -1
Max.  Ideriv = 2

Checking the input file for inconsistencies... 	...done.

--------------------------------------------------------------
User input:
--------------------------------------------------------------

$comment
potential surface scanner
$end

$rem
JOBTYPE  PES_SCAN
UNRESTRICTED TRUE
SYM_IGNORE  TRUE
GEOM_OPT_MAX_CYCLES 400
SCF_MAX_CYCLES 400
METHOD   B3LYP
BASIS   6-31G**
PDB_PRINT 2
SCF_CONVERGENCE 6
THRESH 14
SCF_PRINT 1
$end
$molecule
0 1
Se 2.021036 0.484580 0.247915
C 0.523639 -1.217346 0.636827
C -0.678064 -1.062013 -0.264375
C -1.667491 -2.218401 -0.062671
Se -1.577667 0.712504 -0.060982
H -2.099569 0.434216 1.294180
H 3.185430 -0.430911 0.272682
H 1.115113 -2.108207 0.421430
H 0.312389 -1.118924 1.699566
H -0.351219 -1.032624 -1.307428
H -2.036644 -2.250184 0.967608
H -2.527586 -2.113662 -0.728119
H -1.181367 -3.178426 -0.275131
$end
$scan
stre 1 2 2.400000 2.401000 0.100000
$end
--------------------------------------------------------------
 ----------------------------------------------------------------
             Standard Nuclear Orientation (Angstroms)
    I     Atom           X                Y                Z
 ----------------------------------------------------------------
    1      Se      2.0210360000     0.4845800000     0.2479150000
    2      C       0.5236390000    -1.2173460000     0.6368270000
    3      C      -0.6780640000    -1.0620130000    -0.2643750000
    4      C      -1.6674910000    -2.2184010000    -0.0626710000
    5      Se     -1.5776670000     0.7125040000    -0.0609820000
    6      H      -2.0995690000     0.4342160000     1.2941800000
    7      H       3.1854300000    -0.4309110000     0.2726820000
    8      H       1.1151130000    -2.1082070000     0.4214300000
    9      H       0.3123890000    -1.1189240000     1.6995660000
   10      H      -0.3512190000    -1.0326240000    -1.3074280000
   11      H      -2.0366440000    -2.2501840000     0.9676080000
   12      H      -2.5275860000    -2.1136620000    -0.7281190000
   13      H      -1.1813670000    -3.1784260000    -0.2751310000
 ----------------------------------------------------------------
 Nuclear Repulsion Energy =   573.1036932372 hartrees
 There are       47 alpha and       47 beta electrons
 Requested basis set is 6-31G(d,p)
 There are 52 shells and 155 basis functions

 Total QAlloc Memory Limit   2000 MB
 Mega-Array Size       188 MB
 MEM_STATIC part       192 MB
A total of 1 constraints
  
            1
    1   1.0100000
    2   1.0100000
    3   2.0100000
    4   2.4000000
    5   2.4010000
    6   0.1000000
    7   0.0000000
    8   0.0000000
    9   0.0000000
   10   0.0000000

                       Distance Matrix (Angstroms)
             Se(  1)   C (  2)   C (  3)   C (  4)   Se(  5)   H (  6)
   C (  2)  2.300001
   C (  3)  3.152702  1.510094
   C (  4)  4.583427  2.508477  1.535214
   Se(  5)  3.619120  2.937132  1.999891  2.932282
   H (  6)  4.251658  3.168752  2.586208  3.010667  1.478611
   H (  7)  1.481402  2.799324  3.951368  5.182511  4.909768  5.451891
   H (  8)  2.751972  1.090812  2.186398  2.826549  3.929401  4.190440
   H (  9)  2.756445  1.087992  2.200295  2.869539  3.166381  2.897261
   H ( 10)  3.216923  2.140006  1.093458  2.165193  2.470481  3.460739
   H ( 11)  4.945873  2.780507  2.185240  1.094878  3.169571  2.704924
   H ( 12)  5.328552  3.460698  2.177557  1.092499  3.055263  3.280941
   H ( 13)  4.893524  2.754006  2.175462  1.096861  3.916918  4.044381
             H (  7)   H (  8)   H (  9)   H ( 10)   H ( 11)   H ( 12)
   H (  8)  2.668644
   H (  9)  3.280812  1.804627
   H ( 10)  3.920037  2.509175  3.080558
   H ( 11)  5.573395  3.201881  2.708038  3.082028
   H ( 12)  6.039189  3.819784  3.866344  2.498162  1.770636
   H ( 13)  5.188242  2.627620  3.220603  2.521755  1.771308  1.775169

 
 A cutoff of  1.0D-14 yielded   1232 shell pairs
 There are     10936 function pairs
 
 -------------------------------------------------------
 OpenMP Integral Computing Module                       
 Release: version 1.0, May 2013, Q-Chem Inc. Pittsburgh 
 -------------------------------------------------------
 Integral Job Info:
 Integral job number is                      11
 Integral operator is                         1
 short-range coefficients                     0
 long-range coefficients              100000000
 Omega coefficients                           0
 if combine SR and LR in K                    0
 Integral screening is                        0
 Integral computing path is                   2
 max size of driver memory is            800000
 size of driver memory is                593474
 size of scratch memory is             15267112
 max col of scratch BK array               1296
 max len of scratch array in speh3          155
 max len of scratch index in speh4           18
 max int batch size is                      520
 min int batch size is                       52
 fixed nKL is                                52
 max L of basis functions is                  2
 order of int derivative is                   0
 number of shells is                         52
 number of basis is                         155
 number of cartesian basis is               155
 number of contracted shell pairs          1232
 number of primitive shell pairs           4998
 maxK2 (contraction) of shell pair           36
 max number of K2 of shell pair               1
 max number of CS2 of shell pair             83
 max number of PS2 of shell pair            456
 mem total for path MDJ                  537180
 -------------------------------------------------------
 Smallest overlap matrix eigenvalue = 6.74E-04

 Scale SEOQF with 1.000000e-01/1.000000e-01/1.000000e-01

 Standard Electronic Orientation quadrupole field applied
 Nucleus-field energy     =     0.0000000153 hartrees
 Guess from superposition of atomic densities
 Warning:  Energy on first SCF cycle will be non-variational
 SAD guess density has 93.936381 electrons

 -----------------------------------------------------------------------
  General SCF calculation program by
  Eric Jon Sundstrom, Paul Horn, Yuezhi Mao, Dmitri Zuev, Alec White,
  David Stuck, Shaama M.S., Shane Yost, Joonho Lee, David Small,
  Daniel Levine, Susi Lehtola, Hugh Burton, Evgeny Epifanovsky
 -----------------------------------------------------------------------
 Exchange:     0.2000 Hartree-Fock + 0.0800 Slater + 0.7200 B88
 Correlation:  0.1900 VWN1RPA + 0.8100 LYP
 Using SG-1 standard quadrature grid
 using 12 threads for integral computing
 -------------------------------------------------------
 OpenMP Integral computing Module                
 Release: version 1.0, May 2013, Q-Chem Inc. Pittsburgh 
 -------------------------------------------------------
 -------------------------------------------------------
 OpenMP BLAS3 based DFT computing Module                
 Release: version 1.0, May 2013, Q-Chem Inc. Pittsburgh 
 -------------------------------------------------------
 A unrestricted SCF calculation will be
 performed using DIIS
 SCF converges when DIIS error is below 1.0e-06
 Alpha HF Exchange    Energy = -18.86138739203513
 Beta HF Exchange     Energy = -18.86138739203513
 DFT Correlation      Energy =  -5.13944764412106
 DFT Exchange         Energy = -149.88240655070507
 One-Electron (alpha) Energy = -3990.69946330137827
 One-Electron (beta)  Energy = -3990.69946330137827
 Total Coulomb        Energy = 2673.28647799363216
 ---------------------------------------
  Cycle       Energy         DIIS error
 ---------------------------------------
    1   -4927.7533843355      1.50e-01  
 Alpha HF Exchange    Energy = -18.96810974687666
 Beta HF Exchange     Energy = -18.96810974687669
 DFT Correlation      Energy =  -5.19276864260402
 DFT Exchange         Energy = -151.01914097457393
 One-Electron (alpha) Energy = -4001.81236307458221
 One-Electron (beta)  Energy = -4001.81236307458539
 Total Coulomb        Energy = 2703.08812579034520
    2   -4921.5810362173      9.31e-03  
 Alpha HF Exchange    Energy = -18.83425959458734
 Beta HF Exchange     Energy = -18.83425959458733
 DFT Correlation      Energy =  -5.15143685312017
 DFT Exchange         Energy = -149.94512651240370
 One-Electron (alpha) Energy = -3985.60098219613928
 One-Electron (beta)  Energy = -3985.60098219613792
 Total Coulomb        Energy = 2669.27065823178691
    3   -4921.5926954627      3.65e-03  
 Alpha HF Exchange    Energy = -18.94898307657441
 Beta HF Exchange     Energy = -18.94898307657444
 DFT Correlation      Energy =  -5.18549151812612
 DFT Exchange         Energy = -150.85389801223172
 One-Electron (alpha) Energy = -3999.49313439647631
 One-Electron (beta)  Energy = -3999.49313439647995
 Total Coulomb        Energy = 2698.16665814708858
    4   -4921.6532730769      2.67e-03  
 Alpha HF Exchange    Energy = -18.90429442926082
 Beta HF Exchange     Energy = -18.90429442926084
 DFT Correlation      Energy =  -5.17238966663053
 DFT Exchange         Energy = -150.49934137519048
 One-Electron (alpha) Energy = -3994.31124616508259
 One-Electron (beta)  Energy = -3994.31124616508487
 Total Coulomb        Energy = 2687.28534202947594
    5   -4921.7137769485      3.54e-04  
 Alpha HF Exchange    Energy = -18.90270981907966
 Beta HF Exchange     Energy = -18.90270981907967
 DFT Correlation      Energy =  -5.17244761070842
 DFT Exchange         Energy = -150.48846977226751
 One-Electron (alpha) Energy = -3994.02606429797015
 One-Electron (beta)  Energy = -3994.02606429797061
 Total Coulomb        Energy = 2686.69943483964244
    6   -4921.7153375249      1.18e-04  
 Alpha HF Exchange    Energy = -18.90217820034935
 Beta HF Exchange     Energy = -18.90217820034934
 DFT Correlation      Energy =  -5.17198242063250
 DFT Exchange         Energy = -150.48328483198901
 One-Electron (alpha) Energy = -3993.99606640206139
 One-Electron (beta)  Energy = -3993.99606640206184
 Total Coulomb        Energy = 2686.63256351491873
    7   -4921.7154996900      3.43e-05  
 Alpha HF Exchange    Energy = -18.90219410149763
 Beta HF Exchange     Energy = -18.90219410149765
 DFT Correlation      Energy =  -5.17201219026623
 DFT Exchange         Energy = -150.48357091940665
 One-Electron (alpha) Energy = -3993.97917301753478
 One-Electron (beta)  Energy = -3993.97917301753751
 Total Coulomb        Energy = 2686.59911151640335
    8   -4921.7155125788      1.31e-05  
 Alpha HF Exchange    Energy = -18.90224414167727
 Beta HF Exchange     Energy = -18.90224414167728
 DFT Correlation      Energy =  -5.17202460962373
 DFT Exchange         Energy = -150.48393686359560
 One-Electron (alpha) Energy = -3993.99000936406128
 One-Electron (beta)  Energy = -3993.99000936406264
 Total Coulomb        Energy = 2686.62126005257596
    9   -4921.7155151796      1.52e-06  
 Alpha HF Exchange    Energy = -18.90224960611319
 Beta HF Exchange     Energy = -18.90224960611321
 DFT Correlation      Energy =  -5.17202900524574
 DFT Exchange         Energy = -150.48398014879953
 One-Electron (alpha) Energy = -3993.99174324445221
 One-Electron (beta)  Energy = -3993.99174324445539
 Total Coulomb        Energy = 2686.62478639298433
   10   -4921.7155152097      3.59e-07  Convergence criterion met
 ---------------------------------------
 SCF time:   CPU 49.97s  wall 4.00s 
<S^2> =          0.000000000
 Alpha HF Exchange    Energy = -18.90224960611319
 Beta HF Exchange     Energy = -18.90224960611321
 DFT Correlation      Energy =  -5.17202900524574
 DFT Exchange         Energy = -150.48398014879953
 One-Electron (alpha) Energy = -3993.99174324445221
 One-Electron (beta)  Energy = -3993.99174324445539
 Total Coulomb        Energy = 2686.62478639298433
 Nuclear repulsion Energy = 573.10369325250178
 SCF   energy in the final basis set =    -4921.7155152097
 Total energy in the final basis set =    -4921.7155152097
 
 --------------------------------------------------------------
 
                    Orbital Energies (a.u.)
 --------------------------------------------------------------
 
 Alpha MOs
 -- Occupied --
*******-453.891 -58.093 -58.085 -52.150 -52.149 -52.147 -52.143
-52.142 -52.139 -10.242 -10.242 -10.200  -7.826  -7.818  -5.772
 -5.768  -5.763  -5.760  -5.758  -5.749  -2.105  -2.105  -2.097
 -2.097  -2.096  -2.094  -2.092  -2.087  -2.085  -2.083  -0.822
 -0.712  -0.696  -0.657  -0.586  -0.476  -0.448  -0.427  -0.414
 -0.387  -0.360  -0.359  -0.319  -0.289  -0.231  -0.224
 -- Virtual --
 -0.048   0.004   0.039   0.047   0.090   0.120   0.129   0.155
  0.165   0.168   0.193   0.214   0.224   0.230   0.276   0.297
  0.308   0.320   0.322   0.367   0.427   0.458   0.481   0.500
  0.528   0.551   0.553   0.586   0.624   0.650   0.667   0.681
  0.692   0.729   0.746   0.766   0.830   0.841   0.852   0.871
  0.879   0.904   0.909   0.939   0.969   1.028   1.051   1.135
  1.333   1.355   1.379   1.500   1.564   1.599   1.672   1.721
  1.760   1.819   1.856   1.908   2.022   2.033   2.043   2.055
  2.081   2.085   2.096   2.104   2.112   2.133   2.262   2.272
  2.344   2.434   2.513   2.548   2.593   2.606   2.617   2.635
  2.715   2.728   2.818   2.855   2.891   3.179   3.236   3.315
  3.420   3.453   3.466   4.201   4.271   4.283   4.306   4.325
  4.334   4.349   4.368   4.395   4.459   4.473   4.488   4.621
  5.465   5.483  89.706  89.819
 
 Beta MOs
 -- Occupied --
*******-453.891 -58.093 -58.085 -52.150 -52.149 -52.147 -52.143
-52.142 -52.139 -10.242 -10.242 -10.200  -7.826  -7.818  -5.772
 -5.768  -5.763  -5.760  -5.758  -5.749  -2.105  -2.105  -2.097
 -2.097  -2.096  -2.094  -2.092  -2.087  -2.085  -2.083  -0.822
 -0.712  -0.696  -0.657  -0.586  -0.476  -0.448  -0.427  -0.414
 -0.387  -0.360  -0.359  -0.319  -0.289  -0.231  -0.224
 -- Virtual --
 -0.048   0.004   0.039   0.047   0.090   0.120   0.129   0.155
  0.165   0.168   0.193   0.214   0.224   0.230   0.276   0.297
  0.308   0.320   0.322   0.367   0.427   0.458   0.481   0.500
  0.528   0.551   0.553   0.586   0.624   0.650   0.667   0.681
  0.692   0.729   0.746   0.766   0.830   0.841   0.852   0.871
  0.879   0.904   0.909   0.939   0.969   1.028   1.051   1.135
  1.333   1.355   1.379   1.500   1.564   1.599   1.672   1.721
  1.760   1.819   1.856   1.908   2.022   2.033   2.043   2.055
  2.081   2.085   2.096   2.104   2.112   2.133   2.262   2.272
  2.344   2.434   2.513   2.548   2.593   2.606   2.617   2.635
  2.715   2.728   2.818   2.855   2.891   3.179   3.236   3.315
  3.420   3.453   3.466   4.201   4.271   4.283   4.306   4.325
  4.334   4.349   4.368   4.395   4.459   4.473   4.488   4.621
  5.465   5.483  89.706  89.819
 --------------------------------------------------------------
 
          Ground-State Mulliken Net Atomic Charges

     Atom                 Charge (a.u.)    Spin (a.u.)
  --------------------------------------------------------
      1 Se                   -0.117202       0.000000
      2 C                    -0.239653      -0.000000
      3 C                    -0.150972       0.000000
      4 C                    -0.316181       0.000000
      5 Se                   -0.062327       0.000000
      6 H                     0.050009       0.000000
      7 H                     0.041784      -0.000000
      8 H                     0.136000       0.000000
      9 H                     0.147441      -0.000000
     10 H                     0.149155      -0.000000
     11 H                     0.113979      -0.000000
     12 H                     0.137038      -0.000000
     13 H                     0.110928       0.000000
  --------------------------------------------------------
  Sum of atomic charges =    -0.000000
  Sum of spin   charges =     0.000000

 -----------------------------------------------------------------
                    Cartesian Multipole Moments
 -----------------------------------------------------------------
    Charge (ESU x 10^10)
                 0.0000
    Dipole Moment (Debye)
         X      -0.6671      Y      -3.0643      Z       0.5445
       Tot       3.1830
    Quadrupole Moments (Debye-Ang)
        XX     -58.0331     XY      -1.1966     YY     -55.1584
        XZ      -2.3893     YZ      -0.4944     ZZ     -57.3786
    Octopole Moments (Debye-Ang^2)
       XXX      23.7630    XXY       3.9238    XYY       2.5175
       YYY      23.2200    XXZ      -2.1149    XYZ      -3.4886
       YYZ      -7.6532    XZZ      -4.2618    YZZ       6.9129
       ZZZ     -20.4825
    Hexadecapole Moments (Debye-Ang^3)
      XXXX    -996.7680   XXXY     -75.1733   XXYY    -244.8813
      XYYY     -75.2744   YYYY    -485.7375   XXXZ     -57.2607
      XXYZ       2.3011   XYYZ     -15.0394   YYYZ       3.7136
      XXZZ    -199.5853   XYZZ     -26.5235   YYZZ    -104.9062
      XZZZ     -48.7201   YZZZ      -0.1870   ZZZZ    -124.6901
 -----------------------------------------------------------------
 Calculating analytic gradient of the SCF energy
 Gradient of SCF Energy
            1           2           3           4           5           6
    1   0.0277933  -0.0278005   0.0000178  -0.0000859   0.0000418   0.0000768
    2   0.0314863  -0.0316365   0.0000620   0.0000495   0.0000543   0.0000178
    3  -0.0072027   0.0072266   0.0000211   0.0000258   0.0000625   0.0000940
            7           8           9          10          11          12
    1   0.0000375   0.0000299   0.0000368  -0.0000345   0.0000116  -0.0000531
    2  -0.0001006   0.0000200  -0.0000632  -0.0000405   0.0000199   0.0000982
    3  -0.0001069  -0.0001360  -0.0000305  -0.0000045   0.0000324   0.0000584
           13
    1  -0.0000716
    2   0.0000330
    3  -0.0000403
 Max gradient component =       3.164E-02
 RMS gradient           =       9.663E-03
 Gradient time:  CPU 20.03 s  wall 1.71 s
 Geometry Optimization Parameters
   NAtoms,    NIC,     NZ,  NCons,   NDum,   NFix, NCnnct, MaxDiis
       13      82       0       1       0       0       0       0


** CONSTRAINED OPTIMIZATION IN DELOCALIZED INTERNAL COORDINATES **
   Searching for a Minimum

   Optimization Cycle:   1

                       Coordinates (Angstroms)
     ATOM                X               Y               Z
      1  Se        2.0210360000    0.4845800000    0.2479150000
      2  C         0.5236390000   -1.2173460000    0.6368270000
      3  C        -0.6780640000   -1.0620130000   -0.2643750000
      4  C        -1.6674910000   -2.2184010000   -0.0626710000
      5  Se       -1.5776670000    0.7125040000   -0.0609820000
      6  H        -2.0995690000    0.4342160000    1.2941800000
      7  H         3.1854300000   -0.4309110000    0.2726820000
      8  H         1.1151130000   -2.1082070000    0.4214300000
      9  H         0.3123890000   -1.1189240000    1.6995660000
     10  H        -0.3512190000   -1.0326240000   -1.3074280000
     11  H        -2.0366440000   -2.2501840000    0.9676080000
     12  H        -2.5275860000   -2.1136620000   -0.7281190000
     13  H        -1.1813670000   -3.1784260000   -0.2751310000
   Point Group: c1    Number of degrees of freedom:    33


   Energy is  -4921.715515210

              Constraints and their Current Values
                                        Value     Constraint
   Distance(Angs):        1   2             2.300001     2.400000

 Attempting to Generate Delocalized Internal Coordinates

   Using Lagrange Multiplier Algorithm


 34 Hessian modes will be used to form the next step
  Hessian Eigenvalues:
    -0.962258    0.045000    0.045000    0.045000    0.045000    0.073171
     0.077095    0.078289    0.079813    0.082890    0.083470    0.095995
     0.128638    0.142367    0.150769    0.160000    0.160000    0.160000
     0.160000    0.160000    0.177071    0.178387    0.182365    0.208322
     0.221079    0.289471    0.313410    0.340317    0.342549    0.344160
     0.345254    0.347190    0.350457    1.039222

 Minimum Search - Taking P-RFO Step
 Searching for Lamda that Maximizes Along the Constraint modes Only
 Value Taken    Lamda =   0.02774406
 Searching for Lamda that Minimizes Along All other modes
 Value Taken    Lamda =  -0.00959340
 Step Taken.  Stepsize is  0.185001

                             Maximum     Tolerance    Cnvgd?
         Gradient            0.188972       0.000300      NO
         Displacement        0.184989       0.001200      NO
         Energy change     *********       0.000001      NO


 New Cartesian Coordinates Obtained by Inverse Iteration

 Displacement from previous Coordinates is:  0.226692
 ----------------------------------------------------------------
             Standard Nuclear Orientation (Angstroms)
    I     Atom           X                Y                Z
 ----------------------------------------------------------------
    1      Se      2.0840110558     0.5327305485     0.2404461940
    2      C       0.5123690248    -1.2332924187     0.6416842629
    3      C      -0.6862294846    -1.0710933985    -0.2624625807
    4      C      -1.6820427441    -2.2225553367    -0.0641717899
    5      Se     -1.5770681129     0.7079057293    -0.0599653228
    6      H      -2.1038338044     0.4313311724     1.2936676244
    7      H       3.2432347328    -0.3891529279     0.2681363990
    8      H       1.0993654926    -2.1274552355     0.4276157208
    9      H       0.2989883451    -1.1341757250     1.7039448014
   10      H      -0.3565871901    -1.0425019922    -1.3046453602
   11      H      -2.0541339660    -2.2531849397     0.9650813825
   12      H      -2.5398431670    -2.1130668485    -0.7318375810
   13      H      -1.2002301821    -3.1848866273    -0.2759917502
 ----------------------------------------------------------------
 Nuclear Repulsion Energy =   566.2026413457 hartrees
 There are       47 alpha and       47 beta electrons

                       Distance Matrix (Angstroms)
             Se(  1)   C (  2)   C (  3)   C (  4)   Se(  5)   H (  6)
   C (  2)  2.397892
   C (  3)  3.240278  1.510109
   C (  4)  4.676276  2.508449  1.535196
   Se(  5)  3.677558  2.937058  1.999859  2.932344
   H (  6)  4.319445  3.168686  2.586199  3.010772  1.478613
   H (  7)  1.481363  2.882661  4.023340  5.265943  4.954443  5.506001
   H (  8)  2.842736  1.090833  2.186426  2.826151  3.929415  4.190217
   H (  9)  2.847229  1.088004  2.200316  2.869720  3.166107  2.897015
   H ( 10)  3.290165  2.140020  1.093447  2.165210  2.470370  3.460677
   H ( 11)  5.040899  2.780594  2.185261  1.094875  3.169601  2.705008
   H ( 12)  5.415312  3.460717  2.177592  1.092514  3.055525  3.281271
   H ( 13)  4.987347  2.753878  2.175431  1.096856  3.916951  4.044423
             H (  7)   H (  8)   H (  9)   H ( 10)   H ( 11)   H ( 12)
   H (  8)  2.764653
   H (  9)  3.359344  1.804501
   H ( 10)  3.982364  2.509512  3.080552
   H ( 11)  5.658839  3.201443  2.708373  3.082057
   H ( 12)  6.116847  3.819474  3.866552  2.498164  1.770616
   H ( 13)  5.277934  2.627045  3.220748  2.521839  1.771294  1.775150

 
 Applying Cartesian multipole field
    Component          Value
    ---------          -----
     (2,0,0)        1.00000E-11
     (0,2,0)        2.00000E-11
     (0,0,2)       -3.00000E-11
 Nucleus-field energy     =     0.0000000158 hartrees
 Requested basis set is 6-31G(d,p)
 There are 52 shells and 155 basis functions
 A cutoff of  1.0D-14 yielded   1232 shell pairs
 There are     10936 function pairs
 Smallest overlap matrix eigenvalue = 6.74E-04
 Guess from superposition of atomic densities
 Warning:  Energy on first SCF cycle will be non-variational
 SAD guess density has 93.936381 electrons

 -----------------------------------------------------------------------
  General SCF calculation program by
  Eric Jon Sundstrom, Paul Horn, Yuezhi Mao, Dmitri Zuev, Alec White,
  David Stuck, Shaama M.S., Shane Yost, Joonho Lee, David Small,
  Daniel Levine, Susi Lehtola, Hugh Burton, Evgeny Epifanovsky
 -----------------------------------------------------------------------
 Exchange:     0.2000 Hartree-Fock + 0.0800 Slater + 0.7200 B88
 Correlation:  0.1900 VWN1RPA + 0.8100 LYP
 Using SG-1 standard quadrature grid
 using 12 threads for integral computing
 -------------------------------------------------------
 OpenMP Integral computing Module                
 Release: version 1.0, May 2013, Q-Chem Inc. Pittsburgh 
 -------------------------------------------------------
 -------------------------------------------------------
 OpenMP BLAS3 based DFT computing Module                
 Release: version 1.0, May 2013, Q-Chem Inc. Pittsburgh 
 -------------------------------------------------------
 A unrestricted SCF calculation will be
 performed using DIIS
 SCF converges when DIIS error is below 1.0e-06
 Alpha HF Exchange    Energy = -18.85733544539844
 Beta HF Exchange     Energy = -18.85733544539844
 DFT Correlation      Energy =  -5.13767003531733
 DFT Exchange         Energy = -149.87460606124313
 One-Electron (alpha) Energy = -3983.80910053206298
 One-Electron (beta)  Energy = -3983.80910053206298
 Total Coulomb        Energy = 2666.44100394763609
 ---------------------------------------
  Cycle       Energy         DIIS error
 ---------------------------------------
    1   -4927.7015027424      1.50e-01  
 Alpha HF Exchange    Energy = -18.96604715763044
 Beta HF Exchange     Energy = -18.96604715763045
 DFT Correlation      Energy =  -5.19081724642012
 DFT Exchange         Energy = -151.00628967709511
 One-Electron (alpha) Energy = -3994.94191717155491
 One-Electron (beta)  Energy = -3994.94191717155718
 Total Coulomb        Energy = 2696.23790375607268
    2   -4921.5724904644      9.31e-03  
 Alpha HF Exchange    Energy = -18.83258251012644
 Beta HF Exchange     Energy = -18.83258251012641
 DFT Correlation      Energy =  -5.15021710425817
 DFT Exchange         Energy = -149.93754049610783
 One-Electron (alpha) Energy = -3978.60339643946827
 One-Electron (beta)  Energy = -3978.60339643946509
 Total Coulomb        Energy = 2662.17287674628733
    3   -4921.5841973918      3.67e-03  
 Alpha HF Exchange    Energy = -18.94695079791319
 Beta HF Exchange     Energy = -18.94695079791317
 DFT Correlation      Energy =  -5.18279366902963
 DFT Exchange         Energy = -150.83804865083050
 One-Electron (alpha) Energy = -3992.78378115143641
 One-Electron (beta)  Energy = -3992.78378115143414
 Total Coulomb        Energy = 2691.63570348594385
    4   -4921.6439613712      2.72e-03  
 Alpha HF Exchange    Energy = -18.90282314094789
 Beta HF Exchange     Energy = -18.90282314094789
 DFT Correlation      Energy =  -5.17142184535509
 DFT Exchange         Energy = -150.49451389158469
 One-Electron (alpha) Energy = -3987.29653167396054
 One-Electron (beta)  Energy = -3987.29653167396054
 Total Coulomb        Energy = 2680.15708723144553
    5   -4921.7049167739      4.14e-04  
 Alpha HF Exchange    Energy = -18.90064699275669
 Beta HF Exchange     Energy = -18.90064699275670
 DFT Correlation      Energy =  -5.17034272590703
 DFT Exchange         Energy = -150.47514614772689
 One-Electron (alpha) Energy = -3987.18759465669746
 One-Electron (beta)  Energy = -3987.18759465670018
 Total Coulomb        Energy = 2679.91243564561819
    6   -4921.7068951655      1.20e-04  
 Alpha HF Exchange    Energy = -18.90023405818966
 Beta HF Exchange     Energy = -18.90023405818967
 DFT Correlation      Energy =  -5.17033008455280
 DFT Exchange         Energy = -150.47250833588870
 One-Electron (alpha) Energy = -3987.06674250166225
 One-Electron (beta)  Energy = -3987.06674250166270
 Total Coulomb        Energy = 2679.66706185150178
    7   -4921.7070883272      5.22e-05  
 Alpha HF Exchange    Energy = -18.90020579182209
 Beta HF Exchange     Energy = -18.90020579182207
 DFT Correlation      Energy =  -5.17021801857594
 DFT Exchange         Energy = -150.47196352488831
 One-Electron (alpha) Energy = -3987.07610465855214
 One-Electron (beta)  Energy = -3987.07610465854896
 Total Coulomb        Energy = 2679.68503545962676
    8   -4921.7071256231      9.56e-06  
 Alpha HF Exchange    Energy = -18.90027278729633
 Beta HF Exchange     Energy = -18.90027278729633
 DFT Correlation      Energy =  -5.17025527691089
 DFT Exchange         Energy = -150.47253741591675
 One-Electron (alpha) Energy = -3987.08418864589657
 One-Electron (beta)  Energy = -3987.08418864589567
 Total Coulomb        Energy = 2679.70194743994443
    9   -4921.7071267578      1.55e-06  
 Alpha HF Exchange    Energy = -18.90027759526168
 Beta HF Exchange     Energy = -18.90027759526168
 DFT Correlation      Energy =  -5.17025907057152
 DFT Exchange         Energy = -150.47257311923093
 One-Electron (alpha) Energy = -3987.08600239207135
 One-Electron (beta)  Energy = -3987.08600239207271
 Total Coulomb        Energy = 2679.70562401443067
   10   -4921.7071267886      3.67e-07  Convergence criterion met
 ---------------------------------------
 SCF time:   CPU 49.57s  wall 4.00s 
<S^2> =         -0.000000000
 Alpha HF Exchange    Energy = -18.90027759526168
 Beta HF Exchange     Energy = -18.90027759526168
 DFT Correlation      Energy =  -5.17025907057152
 DFT Exchange         Energy = -150.47257311923093
 One-Electron (alpha) Energy = -3987.08600239207135
 One-Electron (beta)  Energy = -3987.08600239207271
 Total Coulomb        Energy = 2679.70562401443067
 Nuclear repulsion Energy = 566.20264136144715
 SCF   energy in the final basis set =    -4921.7071267886
 Total energy in the final basis set =    -4921.7071267886
 
 --------------------------------------------------------------
 
                    Orbital Energies (a.u.)
 --------------------------------------------------------------
 
 Alpha MOs
 -- Occupied --
*******-453.891 -58.093 -58.085 -52.151 -52.149 -52.147 -52.143
-52.142 -52.139 -10.246 -10.244 -10.202  -7.826  -7.817  -5.772
 -5.768  -5.762  -5.759  -5.758  -5.749  -2.106  -2.105  -2.097
 -2.096  -2.096  -2.094  -2.092  -2.087  -2.085  -2.083  -0.822
 -0.708  -0.697  -0.659  -0.587  -0.477  -0.448  -0.427  -0.415
 -0.388  -0.361  -0.360  -0.318  -0.284  -0.231  -0.223
 -- Virtual --
 -0.062   0.002   0.039   0.048   0.088   0.119   0.129   0.154
  0.164   0.168   0.191   0.214   0.221   0.230   0.275   0.296
  0.308   0.320   0.324   0.368   0.429   0.458   0.484   0.501
  0.530   0.550   0.553   0.577   0.619   0.643   0.665   0.680
  0.692   0.718   0.745   0.765   0.823   0.830   0.851   0.868
  0.880   0.900   0.905   0.937   0.962   1.020   1.047   1.130
  1.323   1.352   1.369   1.496   1.560   1.598   1.666   1.719
  1.758   1.815   1.851   1.899   2.019   2.031   2.037   2.051
  2.080   2.085   2.095   2.104   2.111   2.127   2.258   2.269
  2.342   2.431   2.510   2.543   2.593   2.605   2.614   2.633
  2.713   2.726   2.815   2.853   2.890   3.178   3.234   3.313
  3.419   3.450   3.464   4.199   4.271   4.282   4.296   4.316
  4.329   4.347   4.360   4.392   4.430   4.481   4.488   4.622
  5.460   5.481  89.689  89.810
 
 Beta MOs
 -- Occupied --
*******-453.891 -58.093 -58.085 -52.151 -52.149 -52.147 -52.143
-52.142 -52.139 -10.246 -10.244 -10.202  -7.826  -7.817  -5.772
 -5.768  -5.762  -5.759  -5.758  -5.749  -2.106  -2.105  -2.097
 -2.096  -2.096  -2.094  -2.092  -2.087  -2.085  -2.083  -0.822
 -0.708  -0.697  -0.659  -0.587  -0.477  -0.448  -0.427  -0.415
 -0.388  -0.361  -0.360  -0.318  -0.284  -0.231  -0.223
 -- Virtual --
 -0.062   0.002   0.039   0.048   0.088   0.119   0.129   0.154
  0.164   0.168   0.191   0.214   0.221   0.230   0.275   0.296
  0.308   0.320   0.324   0.368   0.429   0.458   0.484   0.501
  0.530   0.550   0.553   0.577   0.619   0.643   0.665   0.680
  0.692   0.718   0.745   0.765   0.823   0.830   0.851   0.868
  0.880   0.900   0.905   0.937   0.962   1.020   1.047   1.130
  1.323   1.352   1.369   1.496   1.560   1.598   1.666   1.719
  1.758   1.815   1.851   1.899   2.019   2.031   2.037   2.051
  2.080   2.085   2.095   2.104   2.111   2.127   2.258   2.269
  2.342   2.431   2.510   2.543   2.593   2.605   2.614   2.633
  2.713   2.726   2.815   2.853   2.890   3.178   3.234   3.313
  3.419   3.450   3.464   4.199   4.271   4.282   4.296   4.316
  4.329   4.347   4.360   4.392   4.430   4.481   4.488   4.622
  5.460   5.481  89.689  89.810
 --------------------------------------------------------------
 
          Ground-State Mulliken Net Atomic Charges

     Atom                 Charge (a.u.)    Spin (a.u.)
  --------------------------------------------------------
      1 Se                   -0.136945       0.000000
      2 C                    -0.225649       0.000000
      3 C                    -0.153207       0.000000
      4 C                    -0.316979       0.000000
      5 Se                   -0.060053       0.000000
      6 H                     0.049643      -0.000000
      7 H                     0.043163      -0.000000
      8 H                     0.136664      -0.000000
      9 H                     0.147684       0.000000
     10 H                     0.150391      -0.000000
     11 H                     0.114746       0.000000
     12 H                     0.138890      -0.000000
     13 H                     0.111652      -0.000000
  --------------------------------------------------------
  Sum of atomic charges =    -0.000000
  Sum of spin   charges =     0.000000

 -----------------------------------------------------------------
                    Cartesian Multipole Moments
 -----------------------------------------------------------------
    Charge (ESU x 10^10)
                 0.0000
    Dipole Moment (Debye)
         X      -0.7993      Y      -3.1641      Z       0.5470
       Tot       3.3090
    Quadrupole Moments (Debye-Ang)
        XX     -58.1856     XY      -1.1813     YY     -54.9751
        XZ      -2.4243     YZ      -0.5497     ZZ     -57.4194
    Octopole Moments (Debye-Ang^2)
       XXX      20.4687    XXY       2.9416    XYY       1.1280
       YYY      20.8281    XXZ      -2.1272    XYZ      -3.5584
       YYZ      -7.5027    XZZ      -5.5678    YZZ       6.0356
       ZZZ     -20.2319
    Hexadecapole Moments (Debye-Ang^3)
      XXXX   -1027.2014   XXXY     -84.2817   XXYY    -251.6862
      XYYY     -84.2370   YYYY    -491.8101   XXXZ     -57.4138
      XXYZ       2.1414   XYYZ     -15.0513   YYYZ       3.2311
      XXZZ    -205.7361   XYZZ     -29.8013   YYZZ    -106.0827
      XZZZ     -48.8379   YZZZ      -0.6076   ZZZZ    -124.5862
 -----------------------------------------------------------------
 Calculating analytic gradient of the SCF energy
 Gradient of SCF Energy
            1           2           3           4           5           6
    1   0.0311073  -0.0258488  -0.0021667  -0.0003653   0.0001882   0.0000551
    2   0.0346363  -0.0298548  -0.0025648   0.0007596   0.0000718   0.0000422
    3  -0.0079088   0.0076497   0.0002728  -0.0005545   0.0001154   0.0000742
            7           8           9          10          11          12
    1   0.0001759  -0.0016373  -0.0013976   0.0000309   0.0000381  -0.0001879
    2   0.0001223  -0.0013320  -0.0019498   0.0000941   0.0000279  -0.0001207
    3  -0.0001725   0.0004061  -0.0000339   0.0000076   0.0000559   0.0001259
           13
    1   0.0000080
    2   0.0000679
    3  -0.0000380
 Max gradient component =       3.464E-02
 RMS gradient           =       9.963E-03
 Gradient time:  CPU 19.95 s  wall 1.71 s
 Geometry Optimization Parameters
   NAtoms,    NIC,     NZ,  NCons,   NDum,   NFix, NCnnct, MaxDiis
       13      82       0       1       0       0       0       0

 Cartesian Hessian Update
 Hessian Updated using BFGS Update


** CONSTRAINED OPTIMIZATION IN DELOCALIZED INTERNAL COORDINATES **
   Searching for a Minimum

   Optimization Cycle:   2

                       Coordinates (Angstroms)
     ATOM                X               Y               Z
      1  Se        2.0840110558    0.5327305485    0.2404461940
      2  C         0.5123690248   -1.2332924187    0.6416842629
      3  C        -0.6862294846   -1.0710933985   -0.2624625807
      4  C        -1.6820427441   -2.2225553367   -0.0641717899
      5  Se       -1.5770681129    0.7079057293   -0.0599653228
      6  H        -2.1038338044    0.4313311724    1.2936676244
      7  H         3.2432347328   -0.3891529279    0.2681363990
      8  H         1.0993654926   -2.1274552355    0.4276157208
      9  H         0.2989883451   -1.1341757250    1.7039448014
     10  H        -0.3565871901   -1.0425019922   -1.3046453602
     11  H        -2.0541339660   -2.2531849397    0.9650813825
     12  H        -2.5398431670   -2.1130668485   -0.7318375810
     13  H        -1.2002301821   -3.1848866273   -0.2759917502
   Point Group: c1    Number of degrees of freedom:    33


   Energy is  -4921.707126789

              Constraints and their Current Values
                                        Value     Constraint
   Distance(Angs):        1   2             2.397892     2.400000
 Hessian Updated using BFGS Update

   Using Lagrange Multiplier Algorithm


 29 Hessian modes will be used to form the next step
  Hessian Eigenvalues:
    -0.987207    0.044999    0.045003    0.073174    0.077112    0.079579
     0.082877    0.083455    0.086939    0.096065    0.133809    0.142400
     0.150769    0.160000    0.161018    0.177071    0.178387    0.182495
     0.210378    0.221973    0.289551    0.317149    0.340317    0.342549
     0.344160    0.345257    0.347206    0.350472    1.013551

 Minimum Search - Taking P-RFO Step
 Searching for Lamda that Maximizes Along the Constraint modes Only
 Value Taken    Lamda =   0.00000413
 Searching for Lamda that Minimizes Along All other modes
 Value Taken    Lamda =  -0.00020713
 Step Taken.  Stepsize is  0.036400

                             Maximum     Tolerance    Cnvgd?
         Gradient            0.006818       0.000300      NO
         Displacement        0.025148       0.001200      NO
         Energy change      0.008388       0.000001      NO


 New Cartesian Coordinates Obtained by Inverse Iteration

 Displacement from previous Coordinates is:  0.030937
 ----------------------------------------------------------------
             Standard Nuclear Orientation (Angstroms)
    I     Atom           X                Y                Z
 ----------------------------------------------------------------
    1      Se      2.0790583432     0.5310723978     0.2377299246
    2      C       0.5082445845    -1.2375779025     0.6432136949
    3      C      -0.6855497591    -1.0699648163    -0.2620983269
    4      C      -1.6809680885    -2.2224308956    -0.0644999064
    5      Se     -1.5762884133     0.7090179360    -0.0590425139
    6      H      -2.1047598081     0.4305254710     1.2935776124
    7      H       3.2356301924    -0.3940983510     0.2670598766
    8      H       1.1046259931    -2.1252832904     0.4288205928
    9      H       0.3041467306    -1.1298224077     1.7063289154
   10      H      -0.3547349837    -1.0410198200    -1.3038710993
   11      H      -2.0544579397    -2.2536172270     0.9642111586
   12      H      -2.5374391831    -2.1112822235    -0.7335156667
   13      H      -1.1995076683    -3.1849168708    -0.2764122620
 ----------------------------------------------------------------
 Nuclear Repulsion Energy =   566.6065692960 hartrees
 There are       47 alpha and       47 beta electrons

                       Distance Matrix (Angstroms)
             Se(  1)   C (  2)   C (  3)   C (  4)   Se(  5)   H (  6)
   C (  2)  2.399999
   C (  3)  3.233606  1.507590
   C (  4)  4.670216  2.502688  1.535604
   Se(  5)  3.671689  2.937291  1.999857  2.933322
   H (  6)  4.316162  3.167544  2.585683  3.010341  1.478655
   H (  7)  1.481371  2.879511  4.014032  5.256013  4.947501  5.500319
   H (  8)  2.835888  1.090714  2.189930  2.830607  3.931740  4.192865
   H (  9)  2.840012  1.087879  2.204039  2.875814  3.167634  2.899634
   H ( 10)  3.281975  2.138810  1.093420  2.165795  2.470713  3.460458
   H ( 11)  5.036688  2.775395  2.186042  1.094858  3.170631  2.704743
   H ( 12)  5.407162  3.454697  2.176252  1.092465  3.054966  3.279803
   H ( 13)  4.982160  2.748501  2.176552  1.096855  3.918155  4.044227
             H (  7)   H (  8)   H (  9)   H ( 10)   H ( 11)   H ( 12)
   H (  8)  2.750336
   H (  9)  3.347593  1.806582
   H ( 10)  3.972034  2.511490  3.082745
   H ( 11)  5.650563  3.206700  2.716002  3.082799
   H ( 12)  6.105588  3.823069  3.871785  2.496991  1.770821
   H ( 13)  5.268252  2.632339  3.227329  2.523015  1.771272  1.775302

 
 Applying Cartesian multipole field
    Component          Value
    ---------          -----
     (2,0,0)        1.00000E-11
     (0,2,0)        2.00000E-11
     (0,0,2)       -3.00000E-11
 Nucleus-field energy     =     0.0000000157 hartrees
 Requested basis set is 6-31G(d,p)
 There are 52 shells and 155 basis functions
 A cutoff of  1.0D-14 yielded   1232 shell pairs
 There are     10936 function pairs
 Smallest overlap matrix eigenvalue = 6.74E-04
 Guess from superposition of atomic densities
 Warning:  Energy on first SCF cycle will be non-variational
 SAD guess density has 93.936381 electrons

 -----------------------------------------------------------------------
  General SCF calculation program by
  Eric Jon Sundstrom, Paul Horn, Yuezhi Mao, Dmitri Zuev, Alec White,
  David Stuck, Shaama M.S., Shane Yost, Joonho Lee, David Small,
  Daniel Levine, Susi Lehtola, Hugh Burton, Evgeny Epifanovsky
 -----------------------------------------------------------------------
 Exchange:     0.2000 Hartree-Fock + 0.0800 Slater + 0.7200 B88
 Correlation:  0.1900 VWN1RPA + 0.8100 LYP
 Using SG-1 standard quadrature grid
 using 12 threads for integral computing
 -------------------------------------------------------
 OpenMP Integral computing Module                
 Release: version 1.0, May 2013, Q-Chem Inc. Pittsburgh 
 -------------------------------------------------------
 -------------------------------------------------------
 OpenMP BLAS3 based DFT computing Module                
 Release: version 1.0, May 2013, Q-Chem Inc. Pittsburgh 
 -------------------------------------------------------
 A unrestricted SCF calculation will be
 performed using DIIS
 SCF converges when DIIS error is below 1.0e-06
 Alpha HF Exchange    Energy = -18.85754802877274
 Beta HF Exchange     Energy = -18.85754802877274
 DFT Correlation      Energy =  -5.13774102690573
 DFT Exchange         Energy = -149.87502622900689
 One-Electron (alpha) Energy = -3984.21176848847472
 One-Electron (beta)  Energy = -3984.21176848847472
 Total Coulomb        Energy = 2666.84029530668022
 ---------------------------------------
  Cycle       Energy         DIIS error
 ---------------------------------------
    1   -4927.7045356720      1.50e-01  
 Alpha HF Exchange    Energy = -18.96617354819312
 Beta HF Exchange     Energy = -18.96617354819312
 DFT Correlation      Energy =  -5.19089141875356
 DFT Exchange         Energy = -151.00721768605746
 One-Electron (alpha) Energy = -3995.36220929720321
 One-Electron (beta)  Energy = -3995.36220929720503
 Total Coulomb        Energy = 2696.67618105877773
    2   -4921.5721244251      9.31e-03  
 Alpha HF Exchange    Energy = -18.83260516409187
 Beta HF Exchange     Energy = -18.83260516409186
 DFT Correlation      Energy =  -5.15031796967106
 DFT Exchange         Energy = -149.93792343665041
 One-Electron (alpha) Energy = -3978.98318523737953
 One-Electron (beta)  Energy = -3978.98318523737862
 Total Coulomb        Energy = 2662.52980889666469
    3   -4921.5834440009      3.68e-03  
 Alpha HF Exchange    Energy = -18.94706551349521
 Beta HF Exchange     Energy = -18.94706551349528
 DFT Correlation      Energy =  -5.18279932309240
 DFT Exchange         Energy = -150.83854467691231
 One-Electron (alpha) Energy = -3993.22020363506454
 One-Electron (beta)  Energy = -3993.22020363507181
 Total Coulomb        Energy = 2692.10633067294475
    4   -4921.6429823125      2.74e-03  
 Alpha HF Exchange    Energy = -18.90300740984043
 Beta HF Exchange     Energy = -18.90300740984045
 DFT Correlation      Energy =  -5.17158603894811
 DFT Exchange         Energy = -150.49623858838564
 One-Electron (alpha) Energy = -3987.69720565261241
 One-Electron (beta)  Energy = -3987.69720565261468
 Total Coulomb        Energy = 2680.55718364980567
    5   -4921.7044977907      4.43e-04  
 Alpha HF Exchange    Energy = -18.90074080593400
 Beta HF Exchange     Energy = -18.90074080593400
 DFT Correlation      Energy =  -5.17041022972860
 DFT Exchange         Energy = -150.47586760467692
 One-Electron (alpha) Energy = -3987.59997689780221
 One-Electron (beta)  Energy = -3987.59997689780175
 Total Coulomb        Energy = 2680.33435036112360
    6   -4921.7067935690      1.25e-04  
 Alpha HF Exchange    Energy = -18.90031385641198
 Beta HF Exchange     Energy = -18.90031385641197
 DFT Correlation      Energy =  -5.17041098389285
 DFT Exchange         Energy = -150.47317602458185
 One-Electron (alpha) Energy = -3987.47468260997948
 One-Electron (beta)  Energy = -3987.47468260997948
 Total Coulomb        Energy = 2680.07999916694553
    7   -4921.7070114626      5.32e-05  
 Alpha HF Exchange    Energy = -18.90028029858350
 Beta HF Exchange     Energy = -18.90028029858350
 DFT Correlation      Energy =  -5.17029560394854
 DFT Exchange         Energy = -150.47259188382475
 One-Electron (alpha) Energy = -3987.48193674494041
 One-Electron (beta)  Energy = -3987.48193674493996
 Total Coulomb        Energy = 2680.09370281988458
    8   -4921.7070494432      9.55e-06  
 Alpha HF Exchange    Energy = -18.90034866932240
 Beta HF Exchange     Energy = -18.90034866932242
 DFT Correlation      Energy =  -5.17033203991162
 DFT Exchange         Energy = -150.47317093389162
 One-Electron (alpha) Energy = -3987.49066864080032
 One-Electron (beta)  Energy = -3987.49066864080123
 Total Coulomb        Energy = 2680.11191767118362
    9   -4921.7070506111      1.55e-06  
 Alpha HF Exchange    Energy = -18.90035337056626
 Beta HF Exchange     Energy = -18.90035337056628
 DFT Correlation      Energy =  -5.17033586113721
 DFT Exchange         Energy = -150.47320591378340
 One-Electron (alpha) Energy = -3987.49246663547092
 One-Electron (beta)  Energy = -3987.49246663547183
 Total Coulomb        Energy = 2680.11556183297034
   10   -4921.7070506423      3.68e-07  Convergence criterion met
 ---------------------------------------
 SCF time:   CPU 49.77s  wall 4.00s 
<S^2> =         -0.000000000
 Alpha HF Exchange    Energy = -18.90035337056626
 Beta HF Exchange     Energy = -18.90035337056628
 DFT Correlation      Energy =  -5.17033586113721
 DFT Exchange         Energy = -150.47320591378340
 One-Electron (alpha) Energy = -3987.49246663547092
 One-Electron (beta)  Energy = -3987.49246663547183
 Total Coulomb        Energy = 2680.11556183297034
 Nuclear repulsion Energy = 566.60656931172480
 SCF   energy in the final basis set =    -4921.7070506423
 Total energy in the final basis set =    -4921.7070506423
 
 --------------------------------------------------------------
 
                    Orbital Energies (a.u.)
 --------------------------------------------------------------
 
 Alpha MOs
 -- Occupied --
*******-453.890 -58.093 -58.084 -52.151 -52.150 -52.147 -52.142
-52.141 -52.138 -10.247 -10.244 -10.202  -7.827  -7.816  -5.772
 -5.768  -5.761  -5.759  -5.758  -5.748  -2.106  -2.105  -2.097
 -2.095  -2.095  -2.094  -2.092  -2.086  -2.084  -2.082  -0.823
 -0.708  -0.697  -0.658  -0.588  -0.477  -0.449  -0.427  -0.415
 -0.388  -0.361  -0.359  -0.319  -0.283  -0.231  -0.222
 -- Virtual --
 -0.062   0.002   0.039   0.048   0.089   0.119   0.128   0.154
  0.164   0.168   0.192   0.214   0.221   0.231   0.275   0.297
  0.308   0.320   0.324   0.368   0.429   0.458   0.484   0.501
  0.530   0.550   0.553   0.577   0.619   0.643   0.665   0.680
  0.691   0.718   0.744   0.765   0.824   0.830   0.851   0.868
  0.879   0.900   0.906   0.937   0.963   1.021   1.047   1.131
  1.322   1.352   1.369   1.496   1.561   1.599   1.666   1.715
  1.757   1.815   1.852   1.902   2.017   2.030   2.039   2.051
  2.079   2.085   2.095   2.105   2.110   2.128   2.256   2.273
  2.342   2.432   2.513   2.539   2.594   2.605   2.615   2.633
  2.715   2.724   2.814   2.853   2.891   3.178   3.235   3.314
  3.418   3.451   3.464   4.199   4.271   4.282   4.296   4.316
  4.329   4.347   4.361   4.393   4.430   4.481   4.488   4.622
  5.461   5.481  89.689  89.811
 
 Beta MOs
 -- Occupied --
*******-453.890 -58.093 -58.084 -52.151 -52.150 -52.147 -52.142
-52.141 -52.138 -10.247 -10.244 -10.202  -7.827  -7.816  -5.772
 -5.768  -5.761  -5.759  -5.758  -5.748  -2.106  -2.105  -2.097
 -2.095  -2.095  -2.094  -2.092  -2.086  -2.084  -2.082  -0.823
 -0.708  -0.697  -0.658  -0.588  -0.477  -0.449  -0.427  -0.415
 -0.388  -0.361  -0.359  -0.319  -0.283  -0.231  -0.222
 -- Virtual --
 -0.062   0.002   0.039   0.048   0.089   0.119   0.128   0.154
  0.164   0.168   0.192   0.214   0.221   0.231   0.275   0.297
  0.308   0.320   0.324   0.368   0.429   0.458   0.484   0.501
  0.530   0.550   0.553   0.577   0.619   0.643   0.665   0.680
  0.691   0.718   0.744   0.765   0.824   0.830   0.851   0.868
  0.879   0.900   0.906   0.937   0.963   1.021   1.047   1.131
  1.322   1.352   1.369   1.496   1.561   1.599   1.666   1.715
  1.757   1.815   1.852   1.902   2.017   2.030   2.039   2.051
  2.079   2.085   2.095   2.105   2.110   2.128   2.256   2.273
  2.342   2.432   2.513   2.539   2.594   2.605   2.615   2.633
  2.715   2.724   2.814   2.853   2.891   3.178   3.235   3.314
  3.418   3.451   3.464   4.199   4.271   4.282   4.296   4.316
  4.329   4.347   4.361   4.393   4.430   4.481   4.488   4.622
  5.461   5.481  89.689  89.811
 --------------------------------------------------------------
 
          Ground-State Mulliken Net Atomic Charges

     Atom                 Charge (a.u.)    Spin (a.u.)
  --------------------------------------------------------
      1 Se                   -0.140148      -0.000000
      2 C                    -0.225601      -0.000000
      3 C                    -0.152765       0.000000
      4 C                    -0.317144      -0.000000
      5 Se                   -0.059134       0.000000
      6 H                     0.049736       0.000000
      7 H                     0.042752      -0.000000
      8 H                     0.137441       0.000000
      9 H                     0.148756      -0.000000
     10 H                     0.150819      -0.000000
     11 H                     0.114814       0.000000
     12 H                     0.138684      -0.000000
     13 H                     0.111789       0.000000
  --------------------------------------------------------
  Sum of atomic charges =    -0.000000
  Sum of spin   charges =     0.000000

 -----------------------------------------------------------------
                    Cartesian Multipole Moments
 -----------------------------------------------------------------
    Charge (ESU x 10^10)
                 0.0000
    Dipole Moment (Debye)
         X      -0.8261      Y      -3.1750      Z       0.5533
       Tot       3.3271
    Quadrupole Moments (Debye-Ang)
        XX     -58.2560     XY      -1.2402     YY     -54.9682
        XZ      -2.4178     YZ      -0.5650     ZZ     -57.3993
    Octopole Moments (Debye-Ang^2)
       XXX      20.3447    XXY       2.9067    XYY       1.2212
       YYY      20.8749    XXZ      -2.0904    XYZ      -3.5741
       YYZ      -7.4809    XZZ      -5.4711    YZZ       6.0435
       ZZZ     -20.0970
    Hexadecapole Moments (Debye-Ang^3)
      XXXX   -1025.5566   XXXY     -84.2197   XXYY    -251.2771
      XYYY     -83.9491   YYYY    -491.8621   XXXZ     -57.0608
      XXYZ       2.1042   XYYZ     -14.9157   YYYZ       3.3173
      XXZZ    -205.1913   XYZZ     -29.6634   YYZZ    -106.0898
      XZZZ     -48.2824   YZZZ      -0.4920   ZZZZ    -124.3969
 -----------------------------------------------------------------
 Calculating analytic gradient of the SCF energy
 Gradient of SCF Energy
            1           2           3           4           5           6
    1   0.0305616  -0.0280484  -0.0012671   0.0001018   0.0001291   0.0000631
    2   0.0345062  -0.0315208  -0.0014863   0.0005057   0.0002482   0.0000063
    3  -0.0079389   0.0073529   0.0000528  -0.0000999   0.0000217   0.0000989
            7           8           9          10          11          12
    1   0.0000679  -0.0008496  -0.0006925  -0.0000145   0.0000139  -0.0000146
    2  -0.0000656  -0.0009658  -0.0013879   0.0001333  -0.0000376   0.0000889
    3  -0.0001569   0.0004196   0.0001737  -0.0000640   0.0000698   0.0000775
           13
    1  -0.0000507
    2  -0.0000245
    3  -0.0000072
 Max gradient component =       3.451E-02
 RMS gradient           =       1.017E-02
 Gradient time:  CPU 19.94 s  wall 1.70 s
 Geometry Optimization Parameters
   NAtoms,    NIC,     NZ,  NCons,   NDum,   NFix, NCnnct, MaxDiis
       13      82       0       1       0       0       0       0

 Cartesian Hessian Update
 Hessian Updated using BFGS Update


** CONSTRAINED OPTIMIZATION IN DELOCALIZED INTERNAL COORDINATES **
   Searching for a Minimum

   Optimization Cycle:   3

                       Coordinates (Angstroms)
     ATOM                X               Y               Z
      1  Se        2.0790583432    0.5310723978    0.2377299246
      2  C         0.5082445845   -1.2375779025    0.6432136949
      3  C        -0.6855497591   -1.0699648163   -0.2620983269
      4  C        -1.6809680885   -2.2224308956   -0.0644999064
      5  Se       -1.5762884133    0.7090179360   -0.0590425139
      6  H        -2.1047598081    0.4305254710    1.2935776124
      7  H         3.2356301924   -0.3940983510    0.2670598766
      8  H         1.1046259931   -2.1252832904    0.4288205928
      9  H         0.3041467306   -1.1298224077    1.7063289154
     10  H        -0.3547349837   -1.0410198200   -1.3038710993
     11  H        -2.0544579397   -2.2536172270    0.9642111586
     12  H        -2.5374391831   -2.1112822235   -0.7335156667
     13  H        -1.1995076683   -3.1849168708   -0.2764122620
   Point Group: c1    Number of degrees of freedom:    33


   Energy is  -4921.707050642

              Constraints and their Current Values
                                        Value     Constraint
   Distance(Angs):        1   2             2.399999     2.400000
 Hessian Updated using BFGS Update

   Using Lagrange Multiplier Algorithm


 31 Hessian modes will be used to form the next step
  Hessian Eigenvalues:
    -0.985627    0.038465    0.045000    0.045004    0.048484    0.073245
     0.077115    0.079627    0.082930    0.083517    0.095925    0.125896
     0.142381    0.150967    0.159853    0.160000    0.164325    0.177090
     0.178392    0.182037    0.212832    0.232596    0.289313    0.313392
     0.340381    0.342568    0.344246    0.345381    0.347688    0.351003
     1.015400

 Minimum Search - Taking P-RFO Step
 Searching for Lamda that Maximizes Along the Constraint modes Only
 Value Taken    Lamda =   0.00000000
 Searching for Lamda that Minimizes Along All other modes
 Value Taken    Lamda =  -0.00010880
 Step Taken.  Stepsize is  0.050994

                             Maximum     Tolerance    Cnvgd?
         Gradient            0.001373       0.000300      NO
         Displacement        0.034755       0.001200      NO
         Energy change      0.000076       0.000001      NO


 New Cartesian Coordinates Obtained by Inverse Iteration

 Displacement from previous Coordinates is:  0.044130
 ----------------------------------------------------------------
             Standard Nuclear Orientation (Angstroms)
    I     Atom           X                Y                Z
 ----------------------------------------------------------------
    1      Se      2.0759537008     0.5258721017     0.2335744281
    2      C       0.5046207246    -1.2408477810     0.6454157876
    3      C      -0.6848664378    -1.0687384501    -0.2607063287
    4      C      -1.6818260257    -2.2224689266    -0.0660203523
    5      Se     -1.5771470108     0.7081304437    -0.0563255585
    6      H      -2.1076946533     0.4270198478     1.2948928518
    7      H       3.2306305202    -0.4011990451     0.2674986022
    8      H       1.1128016181    -2.1192745932     0.4292241966
    9      H       0.3123359116    -1.1181202211     1.7084725793
   10      H      -0.3524273534    -1.0402581331    -1.3017154942
   11      H      -2.0572939609    -2.2540043348     0.9618322918
   12      H      -2.5372540626    -2.1110347187    -0.7365759059
   13      H      -1.1998329708    -3.1844741892    -0.2780650978
 ----------------------------------------------------------------
 Nuclear Repulsion Energy =   566.9761004397 hartrees
 There are       47 alpha and       47 beta electrons

                       Distance Matrix (Angstroms)
             Se(  1)   C (  2)   C (  3)   C (  4)   Se(  5)   H (  6)
   C (  2)  2.400000
   C (  3)  3.226333  1.505177
   C (  4)  4.665195  2.500054  1.537181
   Se(  5)  3.669115  2.936786  1.998799  2.932484
   H (  6)  4.317300  3.166669  2.584883  3.008860  1.478613
   H (  7)  1.481179  2.877318  4.006960  5.249808  4.944714  5.499018
   H (  8)  2.821833  1.090072  2.193454  2.840046  3.932658  4.195783
   H (  9)  2.826373  1.087256  2.207831  2.888787  3.165415  2.900871
   H ( 10)  3.272142  2.136841  1.093173  2.166071  2.471396  3.460671
   H ( 11)  5.034065  2.773087  2.187010  1.094738  3.168821  2.702103
   H ( 12)  5.401496  3.452554  2.178112  1.092620  3.054871  3.279193
   H ( 13)  4.975864  2.745116  2.177574  1.096692  3.917130  4.042437
             H (  7)   H (  8)   H (  9)   H ( 10)   H ( 11)   H ( 12)
   H (  8)  2.731874
   H (  9)  3.332690  1.810948
   H ( 10)  3.963475  2.511439  3.083700
   H ( 11)  5.645984  3.217348  2.731822  3.082758
   H ( 12)  6.099196  3.831718  3.883852  2.497882  1.770704
   H ( 13)  5.260539  2.642572  3.240803  2.522621  1.771541  1.775162

 
 Applying Cartesian multipole field
    Component          Value
    ---------          -----
     (2,0,0)        1.00000E-11
     (0,2,0)        2.00000E-11
     (0,0,2)       -3.00000E-11
 Nucleus-field energy     =     0.0000000157 hartrees
 Requested basis set is 6-31G(d,p)
 There are 52 shells and 155 basis functions
 A cutoff of  1.0D-14 yielded   1232 shell pairs
 There are     10936 function pairs
 Smallest overlap matrix eigenvalue = 6.74E-04
 Guess from superposition of atomic densities
 Warning:  Energy on first SCF cycle will be non-variational
 SAD guess density has 93.936381 electrons

 -----------------------------------------------------------------------
  General SCF calculation program by
  Eric Jon Sundstrom, Paul Horn, Yuezhi Mao, Dmitri Zuev, Alec White,
  David Stuck, Shaama M.S., Shane Yost, Joonho Lee, David Small,
  Daniel Levine, Susi Lehtola, Hugh Burton, Evgeny Epifanovsky
 -----------------------------------------------------------------------
 Exchange:     0.2000 Hartree-Fock + 0.0800 Slater + 0.7200 B88
 Correlation:  0.1900 VWN1RPA + 0.8100 LYP
 Using SG-1 standard quadrature grid
 using 12 threads for integral computing
 -------------------------------------------------------
 OpenMP Integral computing Module                
 Release: version 1.0, May 2013, Q-Chem Inc. Pittsburgh 
 -------------------------------------------------------
 -------------------------------------------------------
 OpenMP BLAS3 based DFT computing Module                
 Release: version 1.0, May 2013, Q-Chem Inc. Pittsburgh 
 -------------------------------------------------------
 A unrestricted SCF calculation will be
 performed using DIIS
 SCF converges when DIIS error is below 1.0e-06
 Alpha HF Exchange    Energy = -18.85784570121583
 Beta HF Exchange     Energy = -18.85784570121583
 DFT Correlation      Energy =  -5.13784308706261
 DFT Exchange         Energy = -149.87566572601133
 One-Electron (alpha) Energy = -3984.57940990537236
 One-Electron (beta)  Energy = -3984.57940990537236
 Total Coulomb        Energy = 2667.20394629017028
 ---------------------------------------
  Cycle       Energy         DIIS error
 ---------------------------------------
    1   -4927.7079732807      1.50e-01  
 Alpha HF Exchange    Energy = -18.96638569211163
 Beta HF Exchange     Energy = -18.96638569211163
 DFT Correlation      Energy =  -5.19100080903442
 DFT Exchange         Energy = -151.00868140928000
 One-Electron (alpha) Energy = -3995.74552463826012
 One-Electron (beta)  Energy = -3995.74552463826058
 Total Coulomb        Energy = 2697.07545770580691
    2   -4921.5719447179      9.31e-03  
 Alpha HF Exchange    Energy = -18.83270987526272
 Beta HF Exchange     Energy = -18.83270987526269
 DFT Correlation      Energy =  -5.15046232417343
 DFT Exchange         Energy = -149.93883701586236
 One-Electron (alpha) Energy = -3979.33495079351087
 One-Electron (beta)  Energy = -3979.33495079350632
 Total Coulomb        Energy = 2662.86555617338990
    3   -4921.5829640488      3.68e-03  
 Alpha HF Exchange    Energy = -18.94724498499962
 Beta HF Exchange     Energy = -18.94724498499962
 DFT Correlation      Energy =  -5.18284162322028
 DFT Exchange         Energy = -150.83944282730823
 One-Electron (alpha) Energy = -3993.61533567595325
 One-Electron (beta)  Energy = -3993.61533567595188
 Total Coulomb        Energy = 2692.52911585100719
    4   -4921.6422294661      2.75e-03  
 Alpha HF Exchange    Energy = -18.90326165083021
 Beta HF Exchange     Energy = -18.90326165083019
 DFT Correlation      Energy =  -5.17177757029052
 DFT Exchange         Energy = -150.49835544527733
 One-Electron (alpha) Energy = -3988.06566143441160
 One-Electron (beta)  Energy = -3988.06566143441023
 Total Coulomb        Energy = 2680.92764600862438
    5   -4921.7042327221      4.69e-04  
 Alpha HF Exchange    Energy = -18.90090816099157
 Beta HF Exchange     Energy = -18.90090816099157
 DFT Correlation      Energy =  -5.17051841393333
 DFT Exchange         Energy = -150.47705389628592
 One-Electron (alpha) Energy = -3987.97632183019095
 One-Electron (beta)  Energy = -3987.97632183018959
 Total Coulomb        Energy = 2680.71909821608369
    6   -4921.7068336211      1.29e-04  
 Alpha HF Exchange    Energy = -18.90046761478411
 Beta HF Exchange     Energy = -18.90046761478416
 DFT Correlation      Energy =  -5.17052680451033
 DFT Exchange         Energy = -150.47429259227567
 One-Electron (alpha) Energy = -3987.84805028788787
 One-Electron (beta)  Energy = -3987.84805028789424
 Total Coulomb        Energy = 2680.45868479139017
    7   -4921.7070699554      5.36e-05  
 Alpha HF Exchange    Energy = -18.90043117797033
 Beta HF Exchange     Energy = -18.90043117797033
 DFT Correlation      Energy =  -5.17041003415220
 DFT Exchange         Energy = -150.47369028015947
 One-Electron (alpha) Energy = -3987.85357901233783
 One-Electron (beta)  Energy = -3987.85357901233692
 Total Coulomb        Energy = 2680.46891236763213
    8   -4921.7071078719      9.62e-06  
 Alpha HF Exchange    Energy = -18.90050077204234
 Beta HF Exchange     Energy = -18.90050077204232
 DFT Correlation      Energy =  -5.17044597149697
 DFT Exchange         Energy = -150.47427479031612
 One-Electron (alpha) Energy = -3987.86283793838629
 One-Electron (beta)  Energy = -3987.86283793838402
 Total Coulomb        Energy = 2680.48818864144141
    9   -4921.7071090859      1.56e-06  
 Alpha HF Exchange    Energy = -18.90050525255893
 Beta HF Exchange     Energy = -18.90050525255895
 DFT Correlation      Energy =  -5.17044978892658
 DFT Exchange         Energy = -150.47430815099580
 One-Electron (alpha) Energy = -3987.86458722597035
 One-Electron (beta)  Energy = -3987.86458722597263
 Total Coulomb        Energy = 2680.49173332430564
   10   -4921.7071091173      3.69e-07  Convergence criterion met
 ---------------------------------------
 SCF time:   CPU 49.78s  wall 4.00s 
<S^2> =         -0.000000000
 Alpha HF Exchange    Energy = -18.90050525255893
 Beta HF Exchange     Energy = -18.90050525255895
 DFT Correlation      Energy =  -5.17044978892658
 DFT Exchange         Energy = -150.47430815099580
 One-Electron (alpha) Energy = -3987.86458722597035
 One-Electron (beta)  Energy = -3987.86458722597263
 Total Coulomb        Energy = 2680.49173332430564
 Nuclear repulsion Energy = 566.97610045536294
 SCF   energy in the final basis set =    -4921.7071091173
 Total energy in the final basis set =    -4921.7071091173
 
 --------------------------------------------------------------
 
                    Orbital Energies (a.u.)
 --------------------------------------------------------------
 
 Alpha MOs
 -- Occupied --
*******-453.889 -58.093 -58.084 -52.151 -52.150 -52.147 -52.141
-52.140 -52.137 -10.247 -10.244 -10.202  -7.827  -7.816  -5.772
 -5.768  -5.761  -5.759  -5.758  -5.747  -2.106  -2.106  -2.097
 -2.095  -2.094  -2.094  -2.093  -2.085  -2.084  -2.081  -0.823
 -0.708  -0.697  -0.658  -0.588  -0.478  -0.450  -0.427  -0.415
 -0.388  -0.361  -0.359  -0.319  -0.282  -0.232  -0.222
 -- Virtual --
 -0.062   0.002   0.039   0.048   0.089   0.119   0.128   0.154
  0.164   0.169   0.191   0.213   0.221   0.231   0.276   0.297
  0.308   0.320   0.325   0.367   0.429   0.457   0.484   0.500
  0.531   0.550   0.554   0.578   0.618   0.643   0.665   0.680
  0.690   0.717   0.744   0.765   0.824   0.831   0.851   0.869
  0.879   0.900   0.908   0.936   0.966   1.021   1.048   1.132
  1.321   1.353   1.371   1.496   1.564   1.599   1.665   1.710
  1.756   1.815   1.852   1.904   2.014   2.030   2.039   2.051
  2.079   2.085   2.095   2.105   2.110   2.130   2.255   2.280
  2.342   2.433   2.516   2.534   2.595   2.606   2.615   2.633
  2.716   2.723   2.813   2.852   2.891   3.178   3.237   3.315
  3.417   3.451   3.464   4.200   4.270   4.283   4.297   4.317
  4.330   4.347   4.361   4.393   4.431   4.481   4.488   4.622
  5.462   5.481  89.691  89.811
 
 Beta MOs
 -- Occupied --
*******-453.889 -58.093 -58.084 -52.151 -52.150 -52.147 -52.141
-52.140 -52.137 -10.247 -10.244 -10.202  -7.827  -7.816  -5.772
 -5.768  -5.761  -5.759  -5.758  -5.747  -2.106  -2.106  -2.097
 -2.095  -2.094  -2.094  -2.093  -2.085  -2.084  -2.081  -0.823
 -0.708  -0.697  -0.658  -0.588  -0.478  -0.450  -0.427  -0.415
 -0.388  -0.361  -0.359  -0.319  -0.282  -0.232  -0.222
 -- Virtual --
 -0.062   0.002   0.039   0.048   0.089   0.119   0.128   0.154
  0.164   0.169   0.191   0.213   0.221   0.231   0.276   0.297
  0.308   0.320   0.325   0.367   0.429   0.457   0.484   0.500
  0.531   0.550   0.554   0.578   0.618   0.643   0.665   0.680
  0.690   0.717   0.744   0.765   0.824   0.831   0.851   0.869
  0.879   0.900   0.908   0.936   0.966   1.021   1.048   1.132
  1.321   1.353   1.371   1.496   1.564   1.599   1.665   1.710
  1.756   1.815   1.852   1.904   2.014   2.030   2.039   2.051
  2.079   2.085   2.095   2.105   2.110   2.130   2.255   2.280
  2.342   2.433   2.516   2.534   2.595   2.606   2.615   2.633
  2.716   2.723   2.813   2.852   2.891   3.178   3.237   3.315
  3.417   3.451   3.464   4.200   4.270   4.283   4.297   4.317
  4.330   4.347   4.361   4.393   4.431   4.481   4.488   4.622
  5.462   5.481  89.691  89.811
 --------------------------------------------------------------
 
          Ground-State Mulliken Net Atomic Charges

     Atom                 Charge (a.u.)    Spin (a.u.)
  --------------------------------------------------------
      1 Se                   -0.143619       0.000000
      2 C                    -0.225920      -0.000000
      3 C                    -0.152552       0.000000
      4 C                    -0.317167      -0.000000
      5 Se                   -0.058277      -0.000000
      6 H                     0.049791      -0.000000
      7 H                     0.042351       0.000000
      8 H                     0.138575       0.000000
      9 H                     0.150360      -0.000000
     10 H                     0.151321      -0.000000
     11 H                     0.114833      -0.000000
     12 H                     0.138497       0.000000
     13 H                     0.111807       0.000000
  --------------------------------------------------------
  Sum of atomic charges =    -0.000000
  Sum of spin   charges =    -0.000000

 -----------------------------------------------------------------
                    Cartesian Multipole Moments
 -----------------------------------------------------------------
    Charge (ESU x 10^10)
                -0.0000
    Dipole Moment (Debye)
         X      -0.8514      Y      -3.1863      Z       0.5635
       Tot       3.3459
    Quadrupole Moments (Debye-Ang)
        XX     -58.3108     XY      -1.3078     YY     -54.9852
        XZ      -2.3959     YZ      -0.5731     ZZ     -57.3735
    Octopole Moments (Debye-Ang^2)
       XXX      20.2122    XXY       2.9083    XYY       1.3173
       YYY      21.2285    XXZ      -2.0220    XYZ      -3.5987
       YYZ      -7.5172    XZZ      -5.3688    YZZ       6.1640
       ZZZ     -19.9497
    Hexadecapole Moments (Debye-Ang^3)
      XXXX   -1025.4422   XXXY     -84.0764   XXYY    -250.9713
      XYYY     -83.5363   YYYY    -491.2710   XXXZ     -56.3786
      XXYZ       2.0457   XYYZ     -14.6765   YYYZ       3.4295
      XXZZ    -204.9079   XYZZ     -29.4676   YYZZ    -105.9691
      XZZZ     -47.4533   YZZZ      -0.4017   ZZZZ    -124.0895
 -----------------------------------------------------------------
 Calculating analytic gradient of the SCF energy
 Gradient of SCF Energy
            1           2           3           4           5           6
    1   0.0300409  -0.0302699   0.0001805   0.0000491   0.0000724   0.0000605
    2   0.0338132  -0.0335312   0.0000297   0.0001011   0.0000355   0.0000208
    3  -0.0078634   0.0074816  -0.0000290   0.0001785   0.0000238   0.0001058
            7           8           9          10          11          12
    1  -0.0000055   0.0000611   0.0000804  -0.0000691  -0.0000040  -0.0001081
    2  -0.0000889  -0.0001167  -0.0003755   0.0000268   0.0000031   0.0000421
    3  -0.0001533   0.0001329   0.0000859   0.0000290   0.0000139   0.0000414
           13
    1  -0.0000885
    2   0.0000401
    3  -0.0000471
 Max gradient component =       3.381E-02
 RMS gradient           =       1.038E-02
 Gradient time:  CPU 20.05 s  wall 1.71 s
 Geometry Optimization Parameters
   NAtoms,    NIC,     NZ,  NCons,   NDum,   NFix, NCnnct, MaxDiis
       13      82       0       1       0       0       0       0

 Cartesian Hessian Update
 Hessian Updated using BFGS Update


** CONSTRAINED OPTIMIZATION IN DELOCALIZED INTERNAL COORDINATES **
   Searching for a Minimum

   Optimization Cycle:   4

                       Coordinates (Angstroms)
     ATOM                X               Y               Z
      1  Se        2.0759537008    0.5258721017    0.2335744281
      2  C         0.5046207246   -1.2408477810    0.6454157876
      3  C        -0.6848664378   -1.0687384501   -0.2607063287
      4  C        -1.6818260257   -2.2224689266   -0.0660203523
      5  Se       -1.5771470108    0.7081304437   -0.0563255585
      6  H        -2.1076946533    0.4270198478    1.2948928518
      7  H         3.2306305202   -0.4011990451    0.2674986022
      8  H         1.1128016181   -2.1192745932    0.4292241966
      9  H         0.3123359116   -1.1181202211    1.7084725793
     10  H        -0.3524273534   -1.0402581331   -1.3017154942
     11  H        -2.0572939609   -2.2540043348    0.9618322918
     12  H        -2.5372540626   -2.1110347187   -0.7365759059
     13  H        -1.1998329708   -3.1844741892   -0.2780650978
   Point Group: c1    Number of degrees of freedom:    33


   Energy is  -4921.707109117

              Constraints and their Current Values
                                        Value     Constraint
   Distance(Angs):        1   2             2.400000     2.400000
 Hessian Updated using BFGS Update

 31 Hessian modes will be used to form the next step
  Hessian Eigenvalues:
     0.032346    0.045000    0.045001    0.045003    0.050638    0.073298
     0.077129    0.079623    0.082930    0.083518    0.095915    0.129313
     0.142377    0.150981    0.159906    0.160000    0.160197    0.164311
     0.177098    0.178392    0.182202    0.212922    0.234417    0.289558
     0.316626    0.340389    0.342570    0.344271    0.345423    0.347609
     0.350861

 Minimum Search - Taking Simple RFO Step
 Searching for Lamda that Minimizes Along All modes
 Value Taken    Lamda =  -0.00000351
 Step Taken.  Stepsize is  0.008964

                             Maximum     Tolerance    Cnvgd?
         Gradient           0.000233      0.000300     YES
         Displacement       0.003759      0.001200      NO
         Energy change     -0.000058      0.000001      NO


 New Cartesian Coordinates Obtained by Inverse Iteration

 Displacement from previous Coordinates is:  0.012153
 ----------------------------------------------------------------
             Standard Nuclear Orientation (Angstroms)
    I     Atom           X                Y                Z
 ----------------------------------------------------------------
    1      Se      2.0773358708     0.5244716263     0.2316770461
    2      C       0.5044129834    -1.2402757544     0.6458992615
    3      C      -0.6852638642    -1.0684231613    -0.2602234473
    4      C      -1.6819135022    -2.2226926502    -0.0664237206
    5      Se     -1.5784924699     0.7078795897    -0.0552872114
    6      H      -2.1088182159     0.4255478916     1.2957467995
    7      H       3.2313998423    -0.4032938372     0.2683279710
    8      H       1.1128947445    -2.1181960337     0.4291993405
    9      H       0.3131518693    -1.1142499027     1.7086153924
   10      H      -0.3526870588    -1.0400859963    -1.3012367949
   11      H      -2.0578741559    -2.2546499067     0.9612466663
   12      H      -2.5368041172    -2.1110072950    -0.7375071387
   13      H      -1.1993419262    -3.1844225702    -0.2785321642
 ----------------------------------------------------------------
 Nuclear Repulsion Energy =   566.8577788029 hartrees
 There are       47 alpha and       47 beta electrons

                       Distance Matrix (Angstroms)
             Se(  1)   C (  2)   C (  3)   C (  4)   Se(  5)   H (  6)
   C (  2)  2.400000
   C (  3)  3.226645  1.505298
   C (  4)  4.665590  2.500514  1.537273
   Se(  5)  3.671657  2.936915  1.998777  2.932418
   H (  6)  4.320407  3.166425  2.584473  3.008477  1.478597
   H (  7)  1.481201  2.877422  4.007745  5.250040  4.947171  5.500954
   H (  8)  2.820081  1.089933  2.193331  2.840337  3.932556  4.195351
   H (  9)  2.824730  1.087120  2.207999  2.891314  3.163831  2.899548
   H ( 10)  3.271495  2.136828  1.093215  2.165679  2.471917  3.460694
   H ( 11)  5.035449  2.773755  2.187049  1.094748  3.168553  2.701471
   H ( 12)  5.401422  3.452678  2.177839  1.092550  3.054490  3.278934
   H ( 13)  4.975221  2.745371  2.177628  1.096718  3.917092  4.041954
             H (  7)   H (  8)   H (  9)   H ( 10)   H ( 11)   H ( 12)
   H (  8)  2.730354
   H (  9)  3.331075  1.812292
   H ( 10)  3.964179  2.510908  3.083513
[...]
 There are       47 alpha and       47 beta electrons

                       Distance Matrix (Angstroms)
             Se(  1)   C (  2)   C (  3)   C (  4)   Se(  5)   H (  6)
   C (  2)  2.400000
   C (  3)  3.240466  1.505223
   C (  4)  4.670475  2.498799  1.537416
   Se(  5)  3.754984  2.934831  1.997664  2.935795
   H (  6)  4.418304  3.165284  2.585904  3.016898  1.478272
   H (  7)  1.480811  2.830060  4.000283  5.202384  4.998780  5.519997
   H (  8)  2.808771  1.089969  2.189728  2.806514  3.932863  4.179838
   H (  9)  2.826314  1.086950  2.208717  2.916793  3.136959  2.880442
   H ( 10)  3.252995  2.137949  1.093192  2.163997  2.470595  3.461587
   H ( 11)  5.063274  2.771803  2.188214  1.094751  3.175846  2.715090
   H ( 12)  5.412201  3.451529  2.178162  1.092496  3.059424  3.288131
   H ( 13)  4.944393  2.742123  2.176202  1.096773  3.918322  4.049961
             H (  7)   H (  8)   H (  9)   H ( 10)   H ( 11)   H ( 12)
   H (  8)  2.676003
   H (  9)  3.251085  1.812919
   H ( 10)  3.978526  2.527617  3.081220
   H ( 11)  5.587795  3.170928  2.766293  3.082032
   H ( 12)  6.071495  3.805129  3.905020  2.495720  1.771112
   H ( 13)  5.178628  2.602234  3.279444  2.517321  1.771605  1.775285

 
 Applying Cartesian multipole field
    Component          Value
    ---------          -----
     (2,0,0)        1.00000E-11
     (0,2,0)        2.00000E-11
     (0,0,2)       -3.00000E-11
 Nucleus-field energy     =     0.0000000161 hartrees
 Requested basis set is 6-31G(d,p)
 There are 52 shells and 155 basis functions
 A cutoff of  1.0D-14 yielded   1232 shell pairs
 There are     10936 function pairs
 Smallest overlap matrix eigenvalue = 6.74E-04
 Guess from superposition of atomic densities
 Warning:  Energy on first SCF cycle will be non-variational
 SAD guess density has 93.936381 electrons

 -----------------------------------------------------------------------
  General SCF calculation program by
  Eric Jon Sundstrom, Paul Horn, Yuezhi Mao, Dmitri Zuev, Alec White,
  David Stuck, Shaama M.S., Shane Yost, Joonho Lee, David Small,
  Daniel Levine, Susi Lehtola, Hugh Burton, Evgeny Epifanovsky
 -----------------------------------------------------------------------
 Exchange:     0.2000 Hartree-Fock + 0.0800 Slater + 0.7200 B88
 Correlation:  0.1900 VWN1RPA + 0.8100 LYP
 Using SG-1 standard quadrature grid
 using 12 threads for integral computing
 -------------------------------------------------------
 OpenMP Integral computing Module                
 Release: version 1.0, May 2013, Q-Chem Inc. Pittsburgh 
 -------------------------------------------------------
 -------------------------------------------------------
 OpenMP BLAS3 based DFT computing Module                
 Release: version 1.0, May 2013, Q-Chem Inc. Pittsburgh 
 -------------------------------------------------------
 A unrestricted SCF calculation will be
 performed using DIIS
 SCF converges when DIIS error is below 1.0e-06
 Alpha HF Exchange    Energy = -18.85781997015608
 Beta HF Exchange     Energy = -18.85781997015608
 DFT Correlation      Energy =  -5.13772361646366
 DFT Exchange         Energy = -149.87572566080033
 One-Electron (alpha) Energy = -3980.61477472710294
 One-Electron (beta)  Energy = -3980.61477472710294
 Total Coulomb        Energy = 2663.25599210512200
 ---------------------------------------
  Cycle       Energy         DIIS error
 ---------------------------------------
    1   -4927.6942374347      1.50e-01  
 Alpha HF Exchange    Energy = -18.96641992990348
 Beta HF Exchange     Energy = -18.96641992990348
 DFT Correlation      Energy =  -5.19086716781160
 DFT Exchange         Energy = -151.00909763948215
 One-Electron (alpha) Energy = -3991.72346076347185
 One-Electron (beta)  Energy = -3991.72346076347139
 Total Coulomb        Energy = 2692.99861808498872
    2   -4921.5726989771      9.31e-03  
 Alpha HF Exchange    Energy = -18.83282200993489
 Beta HF Exchange     Energy = -18.83282200993488
 DFT Correlation      Energy =  -5.15034371251074
 DFT Exchange         Energy = -149.93961123249392
 One-Electron (alpha) Energy = -3975.42656800688655
 One-Electron (beta)  Energy = -3975.42656800688701
 Total Coulomb        Energy = 2659.01601052488013
    3   -4921.5843153218      3.67e-03  
 Alpha HF Exchange    Energy = -18.94718377120430
 Beta HF Exchange     Energy = -18.94718377120425
 DFT Correlation      Energy =  -5.18269524861138
 DFT Exchange         Energy = -150.83924102927639
 One-Electron (alpha) Energy = -3989.57007502528086
 One-Electron (beta)  Energy = -3989.57007502527858
 Total Coulomb        Energy = 2688.40502485144907
    4   -4921.6430198874      2.74e-03  
 Alpha HF Exchange    Energy = -18.90327434707772
 Beta HF Exchange     Energy = -18.90327434707774
 DFT Correlation      Energy =  -5.17160217759006
 DFT Exchange         Energy = -150.49840922307854
 One-Electron (alpha) Energy = -3984.09042981846869
 One-Electron (beta)  Energy = -3984.09042981847142
 Total Coulomb        Energy = 2676.94461770257931
    5   -4921.7043928972      4.63e-04  
 Alpha HF Exchange    Energy = -18.90094732963002
 Beta HF Exchange     Energy = -18.90094732963002
 DFT Correlation      Energy =  -5.17038397433495
 DFT Exchange         Energy = -150.47741746816337
 One-Electron (alpha) Energy = -3983.99501623966762
 One-Electron (beta)  Energy = -3983.99501623966626
 Total Coulomb        Energy = 2676.72439443618941
    6   -4921.7069250129      1.27e-04  
 Alpha HF Exchange    Energy = -18.90049699614639
 Beta HF Exchange     Energy = -18.90049699614640
 DFT Correlation      Energy =  -5.17038442928368
 DFT Exchange         Energy = -150.47456909849950
 One-Electron (alpha) Energy = -3983.86620696818682
 One-Electron (beta)  Energy = -3983.86620696818818
 Total Coulomb        Energy = 2676.46280051944586
    7   -4921.7071518050      5.39e-05  
 Alpha HF Exchange    Energy = -18.90046061943941
 Beta HF Exchange     Energy = -18.90046061943944
 DFT Correlation      Energy =  -5.17026632891571
 DFT Exchange         Energy = -150.47396145770020
 One-Electron (alpha) Energy = -3983.87236936947465
 One-Electron (beta)  Energy = -3983.87236936947693
 Total Coulomb        Energy = 2676.47428816527645
    8   -4921.7071904672      9.30e-06  
 Alpha HF Exchange    Energy = -18.90053033971587
 Beta HF Exchange     Energy = -18.90053033971589
 DFT Correlation      Energy =  -5.17030225930652
 DFT Exchange         Energy = -150.47454730196921
 One-Electron (alpha) Energy = -3983.88167106522314
 One-Electron (beta)  Energy = -3983.88167106522405
 Total Coulomb        Energy = 2676.49365164533538
    9   -4921.7071915938      1.58e-06  
 Alpha HF Exchange    Energy = -18.90053424636525
 Beta HF Exchange     Energy = -18.90053424636525
 DFT Correlation      Energy =  -5.17030593574916
 DFT Exchange         Energy = -150.47457632046104
 One-Electron (alpha) Energy = -3983.88323233378105
 One-Electron (beta)  Energy = -3983.88323233378151
 Total Coulomb        Energy = 2676.49681465889216
   10   -4921.7071916256      3.66e-07  Convergence criterion met
 ---------------------------------------
 SCF time:   CPU 49.44s  wall 4.00s 
<S^2> =         -0.000000000
 Alpha HF Exchange    Energy = -18.90053424636525
 Beta HF Exchange     Energy = -18.90053424636525
 DFT Correlation      Energy =  -5.17030593574916
 DFT Exchange         Energy = -150.47457632046104
 One-Electron (alpha) Energy = -3983.88323233378105
 One-Electron (beta)  Energy = -3983.88323233378151
 Total Coulomb        Energy = 2676.49681465889216
 Nuclear repulsion Energy = 563.00840913199988
 SCF   energy in the final basis set =    -4921.7071916256
 Total energy in the final basis set =    -4921.7071916256
 
 --------------------------------------------------------------
 
                    Orbital Energies (a.u.)
 --------------------------------------------------------------
 
 Alpha MOs
 -- Occupied --
*******-453.890 -58.094 -58.084 -52.151 -52.150 -52.147 -52.142
-52.141 -52.138 -10.247 -10.244 -10.202  -7.827  -7.816  -5.773
 -5.769  -5.761  -5.759  -5.759  -5.748  -2.106  -2.106  -2.097
 -2.095  -2.095  -2.094  -2.093  -2.086  -2.084  -2.082  -0.823
 -0.709  -0.698  -0.658  -0.588  -0.477  -0.451  -0.427  -0.414
 -0.388  -0.362  -0.359  -0.319  -0.283  -0.232  -0.222
 -- Virtual --
 -0.062   0.001   0.037   0.048   0.088   0.119   0.129   0.155
  0.164   0.167   0.191   0.213   0.221   0.231   0.274   0.295
  0.308   0.319   0.323   0.365   0.428   0.457   0.486   0.498
  0.531   0.550   0.553   0.572   0.620   0.639   0.663   0.679
  0.692   0.717   0.743   0.764   0.827   0.832   0.851   0.869
  0.878   0.900   0.908   0.936   0.961   1.024   1.049   1.125
  1.317   1.353   1.371   1.494   1.565   1.596   1.668   1.715
  1.754   1.815   1.851   1.904   2.014   2.028   2.038   2.052
  2.078   2.083   2.094   2.104   2.109   2.130   2.255   2.282
  2.342   2.433   2.517   2.537   2.594   2.605   2.616   2.632
  2.715   2.722   2.812   2.853   2.891   3.179   3.241   3.312
  3.418   3.449   3.463   4.200   4.270   4.281   4.297   4.311
  4.332   4.347   4.363   4.393   4.428   4.481   4.486   4.622
  5.462   5.478  89.693  89.802
 
 Beta MOs
 -- Occupied --
*******-453.890 -58.094 -58.084 -52.151 -52.150 -52.147 -52.142
-52.141 -52.138 -10.247 -10.244 -10.202  -7.827  -7.816  -5.773
 -5.769  -5.761  -5.759  -5.759  -5.748  -2.106  -2.106  -2.097
 -2.095  -2.095  -2.094  -2.093  -2.086  -2.084  -2.082  -0.823
 -0.709  -0.698  -0.658  -0.588  -0.477  -0.451  -0.427  -0.414
 -0.388  -0.362  -0.359  -0.319  -0.283  -0.232  -0.222
 -- Virtual --
 -0.062   0.001   0.037   0.048   0.088   0.119   0.129   0.155
  0.164   0.167   0.191   0.213   0.221   0.231   0.274   0.295
  0.308   0.319   0.323   0.365   0.428   0.457   0.486   0.498
  0.531   0.550   0.553   0.572   0.620   0.639   0.663   0.679
  0.692   0.717   0.743   0.764   0.827   0.832   0.851   0.869
  0.878   0.900   0.908   0.936   0.961   1.024   1.049   1.125
  1.317   1.353   1.371   1.494   1.565   1.596   1.668   1.715
  1.754   1.815   1.851   1.904   2.014   2.028   2.038   2.052
  2.078   2.083   2.094   2.104   2.109   2.130   2.255   2.282
  2.342   2.433   2.517   2.537   2.594   2.605   2.616   2.632
  2.715   2.722   2.812   2.853   2.891   3.179   3.241   3.312
  3.418   3.449   3.463   4.200   4.270   4.281   4.297   4.311
  4.332   4.347   4.363   4.393   4.428   4.481   4.486   4.622
  5.462   5.478  89.693  89.802
 --------------------------------------------------------------
 
          Ground-State Mulliken Net Atomic Charges

     Atom                 Charge (a.u.)    Spin (a.u.)
  --------------------------------------------------------
      1 Se                   -0.144768      -0.000000
      2 C                    -0.225065      -0.000000
      3 C                    -0.153760       0.000000
      4 C                    -0.317289      -0.000000
      5 Se                   -0.060298      -0.000000
      6 H                     0.049887      -0.000000
      7 H                     0.044027       0.000000
      8 H                     0.137935      -0.000000
      9 H                     0.151238       0.000000
     10 H                     0.152678      -0.000000
     11 H                     0.114837       0.000000
     12 H                     0.138464       0.000000
     13 H                     0.112114       0.000000
  --------------------------------------------------------
  Sum of atomic charges =    -0.000000
  Sum of spin   charges =    -0.000000

 -----------------------------------------------------------------
                    Cartesian Multipole Moments
 -----------------------------------------------------------------
    Charge (ESU x 10^10)
                -0.0000
    Dipole Moment (Debye)
         X      -0.8636      Y      -3.1628      Z       0.6800
       Tot       3.3483
    Quadrupole Moments (Debye-Ang)
        XX     -58.6070     XY      -1.3141     YY     -55.0797
        XZ      -1.9423     YZ      -0.7795     ZZ     -57.1947
    Octopole Moments (Debye-Ang^2)
       XXX      19.7894    XXY       2.9366    XYY       1.2983
       YYY      22.3263    XXZ       0.3897    XYZ      -3.9639
       YYZ      -6.7765    XZZ      -5.3488    YZZ       6.8307
       ZZZ     -16.0362
    Hexadecapole Moments (Debye-Ang^3)
      XXXX   -1062.6445   XXXY     -81.0741   XXYY    -255.4708
      XYYY     -78.7301   YYYY    -484.8401   XXXZ     -43.3493
      XXYZ       1.4212   XYYZ     -11.4948   YYYZ       3.9348
      XXZZ    -209.0674   XYZZ     -27.6412   YYZZ    -104.1597
      XZZZ     -35.5655   YZZZ       0.9092   ZZZZ    -119.8960
 -----------------------------------------------------------------
 Calculating analytic gradient of the SCF energy
 Gradient of SCF Energy
            1           2           3           4           5           6
    1   0.0307151  -0.0307428   0.0000210   0.0000169  -0.0000516   0.0000090
    2   0.0323503  -0.0322472   0.0000164  -0.0000159  -0.0000116  -0.0001397
    3  -0.0092531   0.0090985   0.0000361   0.0000281   0.0002417   0.0002156
            7           8           9          10          11          12
    1  -0.0000133   0.0000414   0.0000929  -0.0001554   0.0000396  -0.0000096
    2   0.0000518   0.0000122  -0.0000741   0.0001428  -0.0000692  -0.0000233
    3  -0.0001990  -0.0001241  -0.0000315  -0.0000023   0.0000100   0.0000282
           13
    1   0.0000369
    2   0.0000075
    3  -0.0000482
 Max gradient component =       3.235E-02
 RMS gradient           =       1.031E-02
 Gradient time:  CPU 20.11 s  wall 1.74 s
 Geometry Optimization Parameters
   NAtoms,    NIC,     NZ,  NCons,   NDum,   NFix, NCnnct, MaxDiis
       13      82       0       1       0       0       0       0

 Cartesian Hessian Update
 Hessian Updated using BFGS Update


** CONSTRAINED OPTIMIZATION IN DELOCALIZED INTERNAL COORDINATES **
   Searching for a Minimum

   Optimization Cycle:  14

                       Coordinates (Angstroms)
     ATOM                X               Y               Z
      1  Se        2.1231190105    0.4928229172    0.1527554671
      2  C         0.4999274893   -1.2065020323    0.6401400925
      3  C        -0.6969246318   -1.0493791921   -0.2590560336
      4  C        -1.6662149753   -2.2281062123   -0.0727050680
      5  Se       -1.6211675879    0.7070679149   -0.0324972573
      6  H        -2.1374241685    0.4064504850    1.3196845150
      7  H         3.2193746922   -0.4865962294    0.3309767939
      8  H         1.0892844218   -2.1023698178    0.4449162217
      9  H         0.3232800944   -1.0417578947    1.6999118687
     10  H        -0.3714729892   -1.0049897021   -1.3017348502
     11  H        -2.0348981378   -2.2823081132    0.9566707478
     12  H        -2.5273183743   -2.1287224848   -0.7376640245
     13  H        -1.1615648434   -3.1750076383   -0.2998964732
   Point Group: c1    Number of degrees of freedom:    33


   Energy is  -4921.707191626

              Constraints and their Current Values
                                        Value     Constraint
   Distance(Angs):        1   2             2.400000     2.400000
 Hessian Updated using BFGS Update

 32 Hessian modes will be used to form the next step
  Hessian Eigenvalues:
     0.009717    0.017489    0.045017    0.049041    0.050947    0.073679
     0.077451    0.078223    0.082955    0.083543    0.095754    0.121126
     0.145555    0.151344    0.159060    0.160094    0.161067    0.163509
     0.171583    0.178586    0.188960    0.203878    0.212309    0.263085
     0.289179    0.322757    0.340514    0.342580    0.344367    0.346064
     0.349030    0.355888

 Minimum Search - Taking Simple RFO Step
 Searching for Lamda that Minimizes Along All modes
 Value Taken    Lamda =   0.00000000
 Step Taken.  Stepsize is  0.005691

                             Maximum     Tolerance    Cnvgd?
         Gradient           0.000053      0.000300     YES
         Displacement       0.002556      0.001200      NO
         Energy change     -0.000001      0.000001     YES


                       Distance Matrix (Angstroms)
             Se(  1)   C (  2)   C (  3)   C (  4)   Se(  5)   H (  6)
   C (  2)  2.400000
   C (  3)  3.240466  1.505223
   C (  4)  4.670475  2.498799  1.537416
   Se(  5)  3.754984  2.934831  1.997664  2.935795
   H (  6)  4.418304  3.165284  2.585904  3.016898  1.478272
   H (  7)  1.480811  2.830060  4.000283  5.202384  4.998780  5.519997
   H (  8)  2.808771  1.089969  2.189728  2.806514  3.932863  4.179838
   H (  9)  2.826314  1.086950  2.208717  2.916793  3.136959  2.880442
   H ( 10)  3.252995  2.137949  1.093192  2.163997  2.470595  3.461587
   H ( 11)  5.063274  2.771803  2.188214  1.094751  3.175846  2.715090
   H ( 12)  5.412201  3.451529  2.178162  1.092496  3.059424  3.288131
   H ( 13)  4.944393  2.742123  2.176202  1.096773  3.918322  4.049961
             H (  7)   H (  8)   H (  9)   H ( 10)   H ( 11)   H ( 12)
   H (  8)  2.676003
   H (  9)  3.251085  1.812919
   H ( 10)  3.978526  2.527617  3.081220
   H ( 11)  5.587795  3.170928  2.766293  3.082032
   H ( 12)  6.071495  3.805129  3.905020  2.495720  1.771112
   H ( 13)  5.178628  2.602234  3.279444  2.517321  1.771605  1.775285

 
 Final energy is   -4921.70719162561     


 ******************************
 **  OPTIMIZATION CONVERGED  **
 ******************************

                       Coordinates (Angstroms)
     ATOM                X               Y               Z
      1  Se        2.1231190105    0.4928229172    0.1527554671
      2  C         0.4999274893   -1.2065020323    0.6401400925
      3  C        -0.6969246318   -1.0493791921   -0.2590560336
      4  C        -1.6662149753   -2.2281062123   -0.0727050680
      5  Se       -1.6211675879    0.7070679149   -0.0324972573
      6  H        -2.1374241685    0.4064504850    1.3196845150
      7  H         3.2193746922   -0.4865962294    0.3309767939
      8  H         1.0892844218   -2.1023698178    0.4449162217
      9  H         0.3232800944   -1.0417578947    1.6999118687
     10  H        -0.3714729892   -1.0049897021   -1.3017348502
     11  H        -2.0348981378   -2.2823081132    0.9566707478
     12  H        -2.5273183743   -2.1287224848   -0.7376640245
     13  H        -1.1615648434   -3.1750076383   -0.2998964732

Z-matrix Print:
$molecule
0 1
Se
H  1 1.478272
C  1 1.997664 2 94.962954
H  3 1.093192 1 102.134493 2 172.879311 0
C  3 1.505223 1 113.073266 2 -69.306777 0
H  5 1.086950 3 115.938321 1 53.643014 0
H  5 1.089969 3 114.125396 1 -172.768623 0
C  3 1.537416 1 111.633985 2 55.925048 0
H  8 1.092496 3 110.696124 1 54.422543 0
H  8 1.094751 3 111.361828 1 -65.920175 0
H  8 1.096773 3 110.287215 1 174.342954 0
Se 5 2.400000 3 110.032128 1 -60.862270 0
H  12 1.480811 5 90.454947 3 -140.686616 0
$end

PES scan, value:    2.4000 energy: -4921.7071916256
------- Summary of potential scan: ------ 
    2.4000     -4921.7071916256
----------------------------------------- 
Archival summary:
1\1\hpc0248\JobtypUnspecified\ProcedureUnspecified\6-31G**\e238\knomura\ThuMar1407:22:592019ThuMar1407:22:592019\0\\#,JobtypUnspecified,ProcedureUnspecified,6-31G**,\\0,1\Se\H,1,1.47827\C,1,1.99766,2,94.963\H,3,1.09319,1,102.134,2,172.879,0\C,3,1.50522,1,113.073,2,-69.3068,0\H,5,1.08695,3,115.938,1,53.643,0\H,5,1.08997,3,114.125,1,-172.769,0\C,3,1.53742,1,111.634,2,55.925,0\H,8,1.0925,3,110.696,1,54.4225,0\H,8,1.09475,3,111.362,1,-65.9202,0\H,8,1.09677,3,110.287,1,174.343,0\Se,5,2.4,3,110.032,1,-60.8623,0\H,12,1.48081,5,90.4549,3,-140.687,0\\\@

 Total job time:  89.97s(wall), 1056.42s(cpu) 
 Thu Mar 14 07:22:59 2019

        *************************************************************
        *                                                           *
        *  Thank you very much for using Q-Chem.  Have a nice day.  *
        *                                                           *
        *************************************************************


