
Running Job 1 of 1 selenium/03/C-Se.xyz.data/inputs/bond_triplet_4.6.in
qchem selenium/03/C-Se.xyz.data/inputs/bond_triplet_4.6.in_12438.0 /staging/scratch/2868765/qchem12438/ 1
/usr/usc/qchem/5.1.1/exe/qcprog.exe_s selenium/03/C-Se.xyz.data/inputs/bond_triplet_4.6.in_12438.0 /staging/scratch/2868765/qchem12438/
Check license passed

                  Welcome to Q-Chem
     A Quantum Leap Into The Future Of Chemistry


 Q-Chem 5.1, Q-Chem, Inc., Pleasanton, CA (2018)

 Yihan Shao,  Zhengting Gan,  E. Epifanovsky,  A. T. B. Gilbert,  M. Wormit,  
 J. Kussmann,  A. W. Lange,  A. Behn,  Jia Deng,  Xintian Feng,  D. Ghosh,  
 M. Goldey,  P. R. Horn,  L. D. Jacobson,  I. Kaliman,  T. Kus,  A. Landau,  
 Jie Liu,  E. I. Proynov,  R. M. Richard,  R. P. Steele,  E. J. Sundstrom,  
 H. L. Woodcock III,  P. M. Zimmerman,  D. Zuev,  B. Albrecht,  E. Alguire,  
 S. A. Baeppler,  D. Barton,  Z. Benda,  Y. A. Bernard,  E. J. Berquist,  
 K. B. Bravaya,  H. Burton,  D. Casanova,  Chun-Min Chang,  Yunqing Chen,  
 A. Chien,  K. D. Closser,  M. P. Coons,  S. Coriani,  S. Dasgupta,  
 A. L. Dempwolff,  M. Diedenhofen,  Hainam Do,  R. G. Edgar,  Po-Tung Fang,  
 S. Faraji,  S. Fatehi,  Qingguo Feng,  K. D. Fenk,  J. Fosso-Tande,  
 Qinghui Ge,  A. Ghysels,  G. Gidofalvi,  J. Gomes,  J. Gonthier,  A. Gunina,  
 D. Hait,  M. W. D. Hanson-Heine,  P. H. P. Harbach,  A. W. Hauser,  
 J. E. Herr,  E. G. Hohenstein,  Z. C. Holden,  Kerwin Hui,  B. C. Huynh,  
 T.-C. Jagau,  Hyunjun Ji,  B. Kaduk,  K. Khistyaev,  Jaehoon Kim,  
 P. Klunzinger,  K. Koh,  D. Kosenkov,  L. Koulias,  T. Kowalczyk,  
 C. M. Krauter,  A. Kunitsa,  Ka Un Lao,  A. Laurent,  K. V. Lawler,  
 Joonho Lee,  D. Lefrancois,  S. Lehtola,  D. S. Levine,  Yi-Pei Li,  
 You-Sheng Lin,  Fenglai Liu,  E. Livshits,  A. Luenser,  P. Manohar,  
 E. Mansoor,  S. F. Manzer,  Shan-Ping Mao,  Yuezhi Mao,  N. Mardirossian,  
 A. V. Marenich,  T. Markovich,  L. A. Martinez-Martinez,  S. A. Maurer,  
 N. J. Mayhall,  S. C. McKenzie,  J.-M. Mewes,  A. F. Morrison,  
 J. W. Mullinax,  K. Nanda,  T. S. Nguyen-Beck,  R. Olivares-Amaya,  
 J. A. Parkhill,  T. M. Perrine,  F. Plasser,  P. Pokhilko,  S. Prager,  
 A. Prociuk,  E. Ramos,  D. R. Rehn,  F. Rob,  M. Schneider,  N. Sergueev,  
 S. M. Sharada,  S. Sharma,  D. W. Small,  T. Stauch,  T. Stein,  
 Yu-Chuan Su,  A. J. W. Thom,  A. Tkatchenko,  T. Tsuchimochi,  N. M. Tubman,  
 L. Vogt,  M. L. Vidal,  O. Vydrov,  M. A. Watson,  J. Wenzel,  
 M. de Wergifosse,  T. A. Wesolowski,  A. White,  J. Witte,  A. Yamada,  
 Jun Yang,  K. Yao,  S. Yeganeh,  S. R. Yost,  Zhi-Qiang You,  A. Zech,  
 Igor Ying Zhang,  Xing Zhang,  Yan Zhao,  Ying Zhu,  B. R. Brooks,  
 G. K. L. Chan,  C. J. Cramer,  M. S. Gordon,  W. J. Hehre,  A. Klamt,  
 M. W. Schmidt,  C. D. Sherrill,  D. G. Truhlar,  A. Aspuru-Guzik,  R. Baer,  
 A. T. Bell,  N. A. Besley,  Jeng-Da Chai,  A. E. DePrince, III,  
 R. A. DiStasio Jr.,  A. Dreuw,  B. D. Dunietz,  T. R. Furlani,  
 Chao-Ping Hsu,  Yousung Jung,  Jing Kong,  D. S. Lambrecht,  WanZhen Liang,  
 C. Ochsenfeld,  V. A. Rassolov,  L. V. Slipchenko,  J. E. Subotnik,  
 T. Van Voorhis,  J. M. Herbert,  A. I. Krylov,  P. M. W. Gill,  M. Head-Gordon

 Contributors to earlier versions of Q-Chem not listed above: 
 R. D. Adamson,  B. Austin,  J. Baker,  G. J. O. Beran,  K. Brandhorst,  
 S. T. Brown,  E. F. C. Byrd,  A. K. Chakraborty,  C.-L. Cheng,  
 Siu Hung Chien,  D. M. Chipman,  D. L. Crittenden,  H. Dachsel,  
 R. J. Doerksen,  A. D. Dutoi,  L. Fusti-Molnar,  W. A. Goddard III,  
 A. Golubeva-Zadorozhnaya,  S. R. Gwaltney,  G. Hawkins,  A. Heyden,  
 S. Hirata,  G. Kedziora,  F. J. Keil,  C. Kelley,  Jihan Kim,  R. A. King,  
 R. Z. Khaliullin,  P. P. Korambath,  W. Kurlancheek,  A. M. Lee,  M. S. Lee,  
 S. V. Levchenko,  Ching Yeh Lin,  D. Liotard,  R. C. Lochan,  I. Lotan,  
 P. E. Maslen,  N. Nair,  D. P. O'Neill,  D. Neuhauser,  E. Neuscamman,  
 C. M. Oana,  R. Olson,  B. Peters,  R. Peverati,  P. A. Pieniazek,  
 Y. M. Rhee,  J. Ritchie,  M. A. Rohrdanz,  E. Rosta,  N. J. Russ,  
 H. F. Schaefer III,  N. E. Schultz,  N. Shenvi,  A. C. Simmonett,  A. Sodt,  
 D. Stuck,  K. S. Thanthiriwatte,  V. Vanovschi,  Tao Wang,  A. Warshel,  
 C. F. Williams,  Q. Wu,  X. Xu,  W. Zhang

 Please cite Q-Chem as follows:
 Y. Shao et al., Mol. Phys. 113, 184-215 (2015)
 DOI: 10.1080/00268976.2014.952696

 Q-Chem 5.1.1 for Intel X86 EM64T Linux

 Parts of Q-Chem use Armadillo 8.300.2 (Tropical Shenanigans).
 http://arma.sourceforge.net/

 Q-Chem begins on Thu Mar 14 09:25:41 2019  

Host: 
0

     Scratch files written to /staging/scratch/2868765/qchem12438//
 Aug318 |scratch|qcdevops|jenkins|workspace|build_RNUM 6013   
Processing $rem in /usr/usc/qchem/5.1.1/config/preferences.
 MEM_TOTAL  2000 
Input Ideriv = 2
Curr. Ideriv = -1
Max.  Ideriv = 2

Checking the input file for inconsistencies... 	...done.

--------------------------------------------------------------
User input:
--------------------------------------------------------------

$comment
potential surface scanner
$end

$rem
JOBTYPE  PES_SCAN
UNRESTRICTED TRUE
SYM_IGNORE  TRUE
GEOM_OPT_MAX_CYCLES 400
SCF_MAX_CYCLES 400
METHOD   B3LYP
BASIS   6-31G**
PDB_PRINT 2
SCF_CONVERGENCE 6
THRESH 14
SCF_PRINT 1
$end
$molecule
0 3
Se 3.490579 1.432241 0.262818
C 0.361013 -2.069847 0.439447
C -0.767429 -1.531657 -0.295899
C -2.141826 -2.065640 0.092434
Se -0.741158 0.568972 -0.047123
H -0.920055 0.474653 1.412548
H 2.215701 0.667890 0.262071
H 1.364289 -2.025080 0.030992
H 0.250215 -2.350954 1.482584
H -0.612295 -1.565255 -1.377391
H -2.324013 -1.945741 1.165126
H -2.939823 -1.552600 -0.448458
H -2.197198 -3.136386 -0.137651
$end
$scan
stre 1 2 4.600000 4.601000 0.100000
$end
--------------------------------------------------------------
 ----------------------------------------------------------------
             Standard Nuclear Orientation (Angstroms)
    I     Atom           X                Y                Z
 ----------------------------------------------------------------
    1      Se      3.4905790000     1.4322410000     0.2628180000
    2      C       0.3610130000    -2.0698470000     0.4394470000
    3      C      -0.7674290000    -1.5316570000    -0.2958990000
    4      C      -2.1418260000    -2.0656400000     0.0924340000
    5      Se     -0.7411580000     0.5689720000    -0.0471230000
    6      H      -0.9200550000     0.4746530000     1.4125480000
    7      H       2.2157010000     0.6678900000     0.2620710000
    8      H       1.3642890000    -2.0250800000     0.0309920000
    9      H       0.2502150000    -2.3509540000     1.4825840000
   10      H      -0.6122950000    -1.5652550000    -1.3773910000
   11      H      -2.3240130000    -1.9457410000     1.1651260000
   12      H      -2.9398230000    -1.5526000000    -0.4484580000
   13      H      -2.1971980000    -3.1363860000    -0.1376510000
 ----------------------------------------------------------------
 Nuclear Repulsion Energy =   489.1682706615 hartrees
 There are       48 alpha and       46 beta electrons
 Requested basis set is 6-31G(d,p)
 There are 52 shells and 155 basis functions

 Total QAlloc Memory Limit   2000 MB
 Mega-Array Size       188 MB
 MEM_STATIC part       192 MB
A total of 1 constraints
  
            1
    1   1.0100000
    2   1.0100000
    3   2.0100000
    4   4.6000000
    5   4.6010000
    6   0.1000000
    7   0.0000000
    8   0.0000000
    9   0.0000000
   10   0.0000000

                       Distance Matrix (Angstroms)
             Se(  1)   C (  2)   C (  3)   C (  4)   Se(  5)   H (  6)
   C (  2)  4.700000
   C (  3)  5.217997  1.450436
   C (  4)  6.632359  2.526784  1.524765
   Se(  5)  4.329999  2.900844  2.115472  2.987060
   H (  6)  4.657526  3.010405  2.639577  3.112638  1.473614
   H (  7)  1.486454  3.311576  3.748120  5.146747  2.974626  3.345729
   H (  8)  4.065455  1.084160  2.212362  3.506888  3.341873  3.657265
   H (  9)  5.128387  1.086017  2.206773  2.781327  3.442207  3.059165
   H ( 10)  5.339367  2.121990  1.093078  2.179504  2.518163  3.469827
   H ( 11)  6.784866  2.784129  2.174629  1.094640  3.209168  2.809025
   H ( 12)  7.124974  3.457085  2.177845  1.092050  3.081601  3.413585
   H ( 13)  7.306404  2.831076  2.155096  1.096587  3.982201  4.132047
             H (  7)   H (  8)   H (  9)   H ( 10)   H ( 11)   H ( 12)
   H (  8)  2.833794
   H (  9)  3.803447  1.858622
   H ( 10)  3.958830  2.470196  3.088803
   H ( 11)  5.315598  3.859550  2.625191  3.088550
   H ( 12)  5.658167  4.356431  3.813481  2.506085  1.771281
   H ( 13)  5.840032  3.734653  3.038403  2.552905  1.769448  1.776646

 
 A cutoff of  1.0D-14 yielded   1180 shell pairs
 There are     10180 function pairs
 
 -------------------------------------------------------
 OpenMP Integral Computing Module                       
 Release: version 1.0, May 2013, Q-Chem Inc. Pittsburgh 
 -------------------------------------------------------
 Integral Job Info:
 Integral job number is                      11
 Integral operator is                         1
 short-range coefficients                     0
 long-range coefficients              100000000
 Omega coefficients                           0
 if combine SR and LR in K                    0
 Integral screening is                        0
 Integral computing path is                   2
 max size of driver memory is            800000
 size of driver memory is                593474
 size of scratch memory is             15267112
 max col of scratch BK array               1296
 max len of scratch array in speh3          155
 max len of scratch index in speh4           18
 max int batch size is                      520
 min int batch size is                       52
 fixed nKL is                                52
 max L of basis functions is                  2
 order of int derivative is                   0
 number of shells is                         52
 number of basis is                         155
 number of cartesian basis is               155
 number of contracted shell pairs          1180
 number of primitive shell pairs           4657
 maxK2 (contraction) of shell pair           36
 max number of K2 of shell pair               1
 max number of CS2 of shell pair             86
 max number of PS2 of shell pair            456
 mem total for path MDJ                  528444
 -------------------------------------------------------
 Smallest overlap matrix eigenvalue = 6.74E-04

 Scale SEOQF with 1.000000e-01/1.000000e-01/1.000000e+00

 Standard Electronic Orientation quadrupole field applied
 Nucleus-field energy     =     0.0000000173 hartrees
 Guess from superposition of atomic densities
 Warning:  Energy on first SCF cycle will be non-variational
 SAD guess density has 93.936381 electrons

 -----------------------------------------------------------------------
  General SCF calculation program by
  Eric Jon Sundstrom, Paul Horn, Yuezhi Mao, Dmitri Zuev, Alec White,
  David Stuck, Shaama M.S., Shane Yost, Joonho Lee, David Small,
  Daniel Levine, Susi Lehtola, Hugh Burton, Evgeny Epifanovsky
 -----------------------------------------------------------------------
 Exchange:     0.2000 Hartree-Fock + 0.0800 Slater + 0.7200 B88
 Correlation:  0.1900 VWN1RPA + 0.8100 LYP
 Using SG-1 standard quadrature grid
 using 12 threads for integral computing
 -------------------------------------------------------
 OpenMP Integral computing Module                
 Release: version 1.0, May 2013, Q-Chem Inc. Pittsburgh 
 -------------------------------------------------------
 -------------------------------------------------------
 OpenMP BLAS3 based DFT computing Module                
 Release: version 1.0, May 2013, Q-Chem Inc. Pittsburgh 
 -------------------------------------------------------
 A unrestricted SCF calculation will be
 performed using DIIS
 SCF converges when DIIS error is below 1.0e-06
 Alpha HF Exchange    Energy = -18.84241503687613
 Beta HF Exchange     Energy = -18.84241503687613
 DFT Correlation      Energy =  -5.12624839356697
 DFT Exchange         Energy = -149.84855678466235
 One-Electron (alpha) Energy = -3906.82138961946612
 One-Electron (beta)  Energy = -3906.82138961946612
 Total Coulomb        Energy = 2589.73299227739926
 ---------------------------------------
  Cycle       Energy         DIIS error
 ---------------------------------------
    1   -4927.4011515347      1.50e-01  
 Alpha HF Exchange    Energy = -19.06296661055430
 Beta HF Exchange     Energy = -18.86526060103613
 DFT Correlation      Energy =  -5.17454179596350
 DFT Exchange         Energy = -151.01192557806638
 One-Electron (alpha) Energy = -3939.46898933641478
 One-Electron (beta)  Energy = -3893.33339161117283
 Total Coulomb        Energy = 2616.25250276015413
    2   -4921.4963020943      9.30e-03  
 Alpha HF Exchange    Energy = -18.92512561246358
 Beta HF Exchange     Energy = -18.75387687986610
 DFT Correlation      Energy =  -5.13090891439070
 DFT Exchange         Energy = -149.97422771466060
 One-Electron (alpha) Energy = -3925.53626785523238
 One-Electron (beta)  Energy = -3881.56398935777906
 Total Coulomb        Energy = 2589.18871529363969
    3   -4921.5274103620      3.47e-03  
 Alpha HF Exchange    Energy = -19.03992567535878
 Beta HF Exchange     Energy = -18.85215081087945
 DFT Correlation      Energy =  -5.16365279031613
 DFT Exchange         Energy = -150.82747700432549
 One-Electron (alpha) Energy = -3935.89195015224323
 One-Electron (beta)  Energy = -3890.46163506986022
 Total Coulomb        Energy = 2609.49540178558118
    4   -4921.5731190386      2.64e-03  
 Alpha HF Exchange    Energy = -19.00003136720334
 Beta HF Exchange     Energy = -18.81951190813373
 DFT Correlation      Energy =  -5.15076508895405
 DFT Exchange         Energy = -150.52677423782728
 One-Electron (alpha) Energy = -3933.06198673643212
 One-Electron (beta)  Energy = -3888.27146574552080
 Total Coulomb        Energy = 2604.02701482835255
    5   -4921.6352495769      6.32e-04  
 Alpha HF Exchange    Energy = -18.99592135644363
 Beta HF Exchange     Energy = -18.81537925996273
 DFT Correlation      Energy =  -5.15056383697025
 DFT Exchange         Energy = -150.49735545992721
 One-Electron (alpha) Energy = -3932.27834850477939
 One-Electron (beta)  Energy = -3887.48215782786565
 Total Coulomb        Energy = 2602.41130510878565
    6   -4921.6401504584      8.74e-05  
 Alpha HF Exchange    Energy = -18.99505439791115
 Beta HF Exchange     Energy = -18.81505835035384
 DFT Correlation      Energy =  -5.14992766817283
 DFT Exchange         Energy = -150.49113952843999
 One-Electron (alpha) Energy = -3932.15825808590489
 One-Electron (beta)  Energy = -3887.42471473956948
 Total Coulomb        Energy = 2602.22558626602586
    7   -4921.6402958255      2.93e-05  
 Alpha HF Exchange    Energy = -18.99539640400765
 Beta HF Exchange     Energy = -18.81543930418838
 DFT Correlation      Energy =  -5.14994402452168
 DFT Exchange         Energy = -150.49359261085252
 One-Electron (alpha) Energy = -3932.18808358963452
 One-Electron (beta)  Energy = -3887.46912541864822
 Total Coulomb        Energy = 2602.30299028897480
    8   -4921.6403203841      1.62e-05  
 Alpha HF Exchange    Energy = -18.99543060216321
 Beta HF Exchange     Energy = -18.81551644138172
 DFT Correlation      Energy =  -5.14993683112729
 DFT Exchange         Energy = -150.49386289488478
 One-Electron (alpha) Energy = -3932.18627821621521
 One-Electron (beta)  Energy = -3887.47580935736096
 Total Coulomb        Energy = 2602.30823697121878
    9   -4921.6403266931      3.68e-06  
 Alpha HF Exchange    Energy = -18.99543530296765
 Beta HF Exchange     Energy = -18.81554576739274
 DFT Correlation      Energy =  -5.14991973821873
 DFT Exchange         Energy = -150.49391249997313
 One-Electron (alpha) Energy = -3932.18147063457582
 One-Electron (beta)  Energy = -3887.47673470948621
 Total Coulomb        Energy = 2602.30442000858284
   10   -4921.6403279653      1.72e-06  
 Alpha HF Exchange    Energy = -18.99543288576324
 Beta HF Exchange     Energy = -18.81554608218243
 DFT Correlation      Energy =  -5.14991652672146
 DFT Exchange         Energy = -150.49389440657811
 One-Electron (alpha) Energy = -3932.18099068152969
 One-Electron (beta)  Energy = -3887.47734273224933
 Total Coulomb        Energy = 2602.30452417055722
   11   -4921.6403284657      1.29e-06  
 Alpha HF Exchange    Energy = -18.99543364151226
 Beta HF Exchange     Energy = -18.81554698671431
 DFT Correlation      Energy =  -5.14991657664536
 DFT Exchange         Energy = -150.49390040011298
 One-Electron (alpha) Energy = -3932.18123584676778
 One-Electron (beta)  Energy = -3887.47776126602957
 Total Coulomb        Energy = 2602.30519504878794
   12   -4921.6403289902      1.24e-06  
 Alpha HF Exchange    Energy = -18.99543344346844
 Beta HF Exchange     Energy = -18.81554545634972
 DFT Correlation      Energy =  -5.14991650348225
 DFT Exchange         Energy = -150.49389458884789
 One-Electron (alpha) Energy = -3932.18095268933030
 One-Electron (beta)  Energy = -3887.47748441860767
 Total Coulomb        Energy = 2602.30462699571854
   13   -4921.6403294256      1.21e-06  
 Alpha HF Exchange    Energy = -18.99543417419125
 Beta HF Exchange     Energy = -18.81554607279859
 DFT Correlation      Energy =  -5.14991674611887
 DFT Exchange         Energy = -150.49390051112368
 One-Electron (alpha) Energy = -3932.18108633127667
 One-Electron (beta)  Energy = -3887.47759941169807
 Total Coulomb        Energy = 2602.30488205766278
   14   -4921.6403305108      1.19e-06  
 Alpha HF Exchange    Energy = -18.99543477398784
 Beta HF Exchange     Energy = -18.81554577950511
 DFT Correlation      Energy =  -5.14991664670906
 DFT Exchange         Energy = -150.49390004463118
 One-Electron (alpha) Energy = -3932.18112737173396
 One-Electron (beta)  Energy = -3887.47765366451040
 Total Coulomb        Energy = 2602.30497368380384
   15   -4921.6403339185      1.12e-06  
 Alpha HF Exchange    Energy = -18.99543273317195
 Beta HF Exchange     Energy = -18.81555507735267
 DFT Correlation      Energy =  -5.14991584529177
 DFT Exchange         Energy = -150.49391706195340
 One-Electron (alpha) Energy = -3932.18089744154531
 One-Electron (beta)  Energy = -3887.47880485212136
 Total Coulomb        Energy = 2602.30590838776061
   16   -4921.6403439449      1.63e-06  
 Alpha HF Exchange    Energy = -18.99543286777761
 Beta HF Exchange     Energy = -18.81556193632207
 DFT Correlation      Energy =  -5.14991544082478
 DFT Exchange         Energy = -150.49393854661520
 One-Electron (alpha) Energy = -3932.18088573990053
 One-Electron (beta)  Energy = -3887.47961915040150
 Total Coulomb        Energy = 2602.30673715841704
   17   -4921.6403458446      2.52e-06  
 Alpha HF Exchange    Energy = -18.99542843258382
 Beta HF Exchange     Energy = -18.81565358530942
 DFT Correlation      Energy =  -5.14990972292517
 DFT Exchange         Energy = -150.49420347264919
 One-Electron (alpha) Energy = -3932.17988721128768
 One-Electron (beta)  Energy = -3887.49018940501810
 Total Coulomb        Energy = 2602.31664971973487
   18   -4921.6403514313      1.39e-05  
 Alpha HF Exchange    Energy = -18.99543011379994
 Beta HF Exchange     Energy = -18.81560964201753
 DFT Correlation      Energy =  -5.14991285018285
 DFT Exchange         Energy = -150.49407077556413
 One-Electron (alpha) Energy = -3932.18033155290686
 One-Electron (beta)  Energy = -3887.48510463917637
 Total Coulomb        Energy = 2602.31183533430021
   19   -4921.6403535606      7.81e-06  
 Alpha HF Exchange    Energy = -18.99542978367835
 Beta HF Exchange     Energy = -18.81560783858906
 DFT Correlation      Energy =  -5.14991339383821
 DFT Exchange         Energy = -150.49406119591987
 One-Electron (alpha) Energy = -3932.18030018484478
 One-Electron (beta)  Energy = -3887.48490749284474
 Total Coulomb        Energy = 2602.31159501328011
   20   -4921.6403541977      7.16e-06  
 Alpha HF Exchange    Energy = -18.99542880588951
 Beta HF Exchange     Energy = -18.81558507850299
 DFT Correlation      Energy =  -5.14991454740771
 DFT Exchange         Energy = -150.49397863329150
 One-Electron (alpha) Energy = -3932.18031382890013
 One-Electron (beta)  Energy = -3887.48238279718134
 Total Coulomb        Energy = 2602.30897786897685
   21   -4921.6403551434      3.72e-06  
 Alpha HF Exchange    Energy = -18.99543039798845
 Beta HF Exchange     Energy = -18.81557320507744
 DFT Correlation      Energy =  -5.14991592876859
 DFT Exchange         Energy = -150.49394314405944
 One-Electron (alpha) Energy = -3932.18048378193953
 One-Electron (beta)  Energy = -3887.48105864154422
 Total Coulomb        Energy = 2602.30777891789830
   22   -4921.6403555027      1.46e-06  
 Alpha HF Exchange    Energy = -18.99543024999051
 Beta HF Exchange     Energy = -18.81556839535525
 DFT Correlation      Energy =  -5.14991627547307
 DFT Exchange         Energy = -150.49392618142571
 One-Electron (alpha) Energy = -3932.18045901273217
 One-Electron (beta)  Energy = -3887.48052277211400
 Total Coulomb        Energy = 2602.30719667009362
   23   -4921.6403555382      7.50e-07  Convergence criterion met
 ---------------------------------------
 SCF time:   CPU 105.14s  wall 8.00s 
<S^2> =          2.011331290
 Alpha HF Exchange    Energy = -18.99543024999051
 Beta HF Exchange     Energy = -18.81556839535525
 DFT Correlation      Energy =  -5.14991627547307
 DFT Exchange         Energy = -150.49392618142571
 One-Electron (alpha) Energy = -3932.18045901273217
 One-Electron (beta)  Energy = -3887.48052277211400
 Total Coulomb        Energy = 2602.30719667009362
 Nuclear repulsion Energy = 489.16827067878017
 SCF   energy in the final basis set =    -4921.6403555382
 Total energy in the final basis set =    -4921.6403555382
 
 --------------------------------------------------------------
 
                    Orbital Energies (a.u.)
 --------------------------------------------------------------
 
 Alpha MOs
 -- Occupied --
*******-453.899 -58.102 -58.095 -52.162 -52.159 -52.155 -52.152
-52.151 -52.149 -10.242 -10.210 -10.196  -7.836  -7.828  -5.784
 -5.777  -5.773  -5.770  -5.766  -5.760  -2.117  -2.116  -2.107
 -2.107  -2.106  -2.102  -2.100  -2.098  -2.096  -2.094  -0.817
 -0.702  -0.696  -0.691  -0.585  -0.482  -0.439  -0.431  -0.390
 -0.383  -0.379  -0.361  -0.337  -0.286  -0.244  -0.242  -0.206
 -- Virtual --
 -0.011   0.027   0.040   0.097   0.118   0.124   0.150   0.158
  0.165   0.178   0.208   0.228   0.249   0.258   0.272   0.287
  0.302   0.324   0.402   0.441   0.445   0.495   0.513   0.517
  0.538   0.541   0.541   0.553   0.568   0.580   0.636   0.661
  0.688   0.708   0.743   0.761   0.794   0.809   0.857   0.874
  0.890   0.903   0.930   1.005   1.014   1.046   1.121   1.185
  1.337   1.425   1.428   1.485   1.523   1.639   1.718   1.769
  1.836   1.881   1.906   1.975   2.021   2.037   2.074   2.078
  2.082   2.087   2.106   2.115   2.119   2.269   2.298   2.348
  2.401   2.487   2.556   2.585   2.597   2.628   2.644   2.699
  2.746   2.823   2.864   2.916   3.178   3.270   3.379   3.406
  3.456   3.512   4.198   4.218   4.219   4.240   4.261   4.262
  4.297   4.336   4.379   4.394   4.419   4.474   4.602   5.403
  5.488  89.572  89.831
 
 Beta MOs
 -- Occupied --
*******-453.899 -58.101 -58.094 -52.158 -52.157 -52.155 -52.151
-52.150 -52.148 -10.244 -10.198 -10.196  -7.833  -7.827  -5.776
 -5.775  -5.772  -5.768  -5.764  -5.760  -2.111  -2.110  -2.105
 -2.105  -2.101  -2.101  -2.098  -2.097  -2.095  -2.094  -0.809
 -0.693  -0.674  -0.661  -0.576  -0.477  -0.436  -0.426  -0.387
 -0.379  -0.370  -0.359  -0.319  -0.235  -0.230
 -- Virtual --
 -0.163  -0.084   0.001   0.033   0.048   0.099   0.120   0.133
  0.156   0.160   0.167   0.184   0.214   0.233   0.255   0.262
  0.288   0.297   0.306   0.333   0.409   0.447   0.453   0.504
  0.522   0.545   0.554   0.559   0.583   0.586   0.587   0.606
  0.648   0.665   0.691   0.713   0.750   0.766   0.805   0.814
  0.859   0.876   0.892   0.909   0.931   1.015   1.022   1.050
  1.127   1.190   1.353   1.427   1.445   1.502   1.539   1.645
  1.723   1.769   1.840   1.886   1.925   1.994   2.027   2.038
  2.075   2.078   2.080   2.094   2.106   2.116   2.126   2.274
  2.299   2.350   2.412   2.501   2.567   2.597   2.598   2.629
  2.645   2.702   2.748   2.825   2.864   2.918   3.179   3.272
  3.383   3.408   3.457   3.518   4.213   4.232   4.232   4.253
  4.263   4.263   4.300   4.339   4.384   4.397   4.429   4.478
  4.605   5.418   5.492  89.577  89.833
 --------------------------------------------------------------
 
          Ground-State Mulliken Net Atomic Charges

     Atom                 Charge (a.u.)    Spin (a.u.)
  --------------------------------------------------------
      1 Se                   -0.115332       1.020014
      2 C                    -0.203228       0.929709
      3 C                    -0.151358      -0.111784
      4 C                    -0.309299       0.007558
      5 Se                   -0.104145       0.260050
      6 H                     0.060336      -0.006415
      7 H                     0.090271      -0.027006
      8 H                     0.119371      -0.041210
      9 H                     0.112719      -0.041260
     10 H                     0.138511       0.011422
     11 H                     0.114232      -0.000925
     12 H                     0.129230       0.001070
     13 H                     0.118692      -0.001224
  --------------------------------------------------------
  Sum of atomic charges =     0.000000
  Sum of spin   charges =     2.000000

 -----------------------------------------------------------------
                    Cartesian Multipole Moments
 -----------------------------------------------------------------
    Charge (ESU x 10^10)
                 0.0000
    Dipole Moment (Debye)
         X      -1.6350      Y      -2.3819      Z       0.3629
       Tot       2.9118
    Quadrupole Moments (Debye-Ang)
        XX     -63.0963     XY      -0.9875     YY     -57.3294
        XZ      -0.4658     YZ      -0.6086     ZZ     -56.8116
    Octopole Moments (Debye-Ang^2)
       XXX    -116.1330    XXY     -12.9620    XYY     -38.1910
       YYY       3.0567    XXZ      -3.6824    XYZ      -4.3775
       YYZ      -9.1052    XZZ     -42.7397    YZZ      -4.6244
       ZZZ     -21.6304
    Hexadecapole Moments (Debye-Ang^3)
      XXXX   -1791.9726   XXXY    -372.9259   XXYY    -424.1316
      XYYY    -348.8323   YYYY    -795.6526   XXXZ     -33.4401
      XXYZ      -8.6189   XYYZ     -27.0598   YYYZ     -12.5831
      XXZZ    -333.7579   XYZZ    -130.7213   YYZZ    -153.3116
      XZZZ     -60.2314   YZZZ     -10.5478   ZZZZ    -116.6854
 -----------------------------------------------------------------
 Calculating analytic gradient of the SCF energy
 Gradient of SCF Energy
            1           2           3           4           5           6
    1  -0.0000775   0.0000705   0.0001118  -0.0000405  -0.0000123   0.0000489
    2  -0.0003162   0.0001124  -0.0000764   0.0000486   0.0000366   0.0000543
    3   0.0000734   0.0000316  -0.0000119   0.0000471  -0.0000701  -0.0000540
            7           8           9          10          11          12
    1   0.0000226   0.0000058  -0.0000265  -0.0000255  -0.0000264  -0.0000063
    2  -0.0000903   0.0000284   0.0000647  -0.0000247   0.0000796   0.0000443
    3  -0.0001533   0.0000468   0.0000591   0.0000164  -0.0000008  -0.0000170
           13
    1  -0.0000445
    2   0.0000385
    3   0.0000328
 Max gradient component =       3.162E-04
 RMS gradient           =       7.651E-05
 Gradient time:  CPU 17.38 s  wall 1.54 s
 Geometry Optimization Parameters
   NAtoms,    NIC,     NZ,  NCons,   NDum,   NFix, NCnnct, MaxDiis
       13      90       0       1       0       0       0       0


** CONSTRAINED OPTIMIZATION IN DELOCALIZED INTERNAL COORDINATES **
   Searching for a Minimum

   Optimization Cycle:   1

                       Coordinates (Angstroms)
     ATOM                X               Y               Z
      1  Se        3.4905790000    1.4322410000    0.2628180000
      2  C         0.3610130000   -2.0698470000    0.4394470000
      3  C        -0.7674290000   -1.5316570000   -0.2958990000
      4  C        -2.1418260000   -2.0656400000    0.0924340000
      5  Se       -0.7411580000    0.5689720000   -0.0471230000
      6  H        -0.9200550000    0.4746530000    1.4125480000
      7  H         2.2157010000    0.6678900000    0.2620710000
      8  H         1.3642890000   -2.0250800000    0.0309920000
      9  H         0.2502150000   -2.3509540000    1.4825840000
     10  H        -0.6122950000   -1.5652550000   -1.3773910000
     11  H        -2.3240130000   -1.9457410000    1.1651260000
     12  H        -2.9398230000   -1.5526000000   -0.4484580000
     13  H        -2.1971980000   -3.1363860000   -0.1376510000
   Point Group: c1    Number of degrees of freedom:    33


   Energy is  -4921.640355538

              Constraints and their Current Values
                                        Value     Constraint
   Distance(Angs):        1   2             4.700000     4.600000

 Attempting to Generate Delocalized Internal Coordinates

   Using Lagrange Multiplier Algorithm


 34 Hessian modes will be used to form the next step
  Hessian Eigenvalues:
    -0.997827    0.020113    0.039675    0.045000    0.045267    0.045648
     0.045818    0.069354    0.073387    0.077547    0.082398    0.083686
     0.084085    0.090498    0.099800    0.116769    0.123100    0.157147
     0.159978    0.160000    0.160000    0.160000    0.166693    0.180775
     0.182849    0.299122    0.329956    0.340624    0.342819    0.344593
     0.345768    0.352771    0.365943    1.002177

 Minimum Search - Taking P-RFO Step
 Searching for Lamda that Maximizes Along the Constraint modes Only
 Value Taken    Lamda =   0.01767447
 Searching for Lamda that Minimizes Along All other modes
 Value Taken    Lamda =  -0.01742130
 Step Taken.  Stepsize is  0.185727

                             Maximum     Tolerance    Cnvgd?
         Gradient            0.188973       0.000300      NO
         Displacement        0.185714       0.001200      NO
         Energy change     *********       0.000001      NO


 New Cartesian Coordinates Obtained by Inverse Iteration

 Displacement from previous Coordinates is:  0.196906
 ----------------------------------------------------------------
             Standard Nuclear Orientation (Angstroms)
    I     Atom           X                Y                Z
 ----------------------------------------------------------------
    1      Se      3.4500251417     1.3685666832     0.2757634840
    2      C       0.3805667781    -2.0563994396     0.4303657379
    3      C      -0.7586001854    -1.5227290133    -0.2995265111
    4      C      -2.1300435764    -2.0583091233     0.0968557157
    5      Se     -0.7631565261     0.5755626119    -0.0530143139
    6      H      -0.9392133090     0.4796192498     1.4068879134
    7      H       2.1853262003     0.6506823820     0.2658718738
    8      H       1.3710030386    -2.0265069534     0.0266575892
    9      H       0.2719085980    -2.3349904767     1.4744023784
   10      H      -0.6064090178    -1.5610277328    -1.3812970639
   11      H      -2.3079248614    -1.9344928645     1.1698321571
   12      H      -2.9315198990    -1.5492722679    -0.4426652692
   13      H      -2.1839623815    -3.1301070555    -0.1286356913
 ----------------------------------------------------------------
 Nuclear Repulsion Energy =   491.9844647893 hartrees
 There are       48 alpha and       46 beta electrons

                       Distance Matrix (Angstroms)
             Se(  1)   C (  2)   C (  3)   C (  4)   Se(  5)   H (  6)
   C (  2)  4.601725
   C (  3)  5.138392  1.454389
   C (  4)  6.550775  2.532666  1.524737
   Se(  5)  4.299750  2.910152  2.112727  2.971216
   H (  6)  4.618992  3.021060  2.637019  3.094405  1.473606
   H (  7)  1.454276  3.257684  3.702715  5.098001  2.966628  3.330755
   H (  8)  3.988848  1.069971  2.212555  3.501895  3.366267  3.677337
   H (  9)  5.025286  1.086017  2.206477  2.782726  3.446111  3.064866
   H ( 10)  5.270961  2.121706  1.093095  2.180295  2.520699  3.471163
   H ( 11)  6.698026  2.790996  2.174620  1.094646  3.190931  2.785230
   H ( 12)  7.053654  3.462554  2.177791  1.092047  3.060809  3.392128
   H ( 13)  7.221040  2.835867  2.155116  1.096588  3.969433  4.115502
             H (  7)   H (  8)   H (  9)   H ( 10)   H ( 11)   H ( 12)
   H (  8)  2.808503
   H (  9)  3.746459  1.843674
   H ( 10)  3.924107  2.471673  3.086338
   H ( 11)  5.262089  3.853547  2.628441  3.089157
   H ( 12)  5.614618  4.354276  3.815030  2.507451  1.771275
   H ( 13)  5.791432  3.725564  3.038625  2.553399  1.769429  1.776653

 
 Applying Cartesian multipole field
    Component          Value
    ---------          -----
     (2,0,0)        1.00000E-11
     (0,2,0)        2.00000E-11
     (0,0,2)       -3.00000E-10
 Nucleus-field energy     =     0.0000000163 hartrees
 Requested basis set is 6-31G(d,p)
 There are 52 shells and 155 basis functions
 A cutoff of  1.0D-14 yielded   1181 shell pairs
 There are     10184 function pairs
 Smallest overlap matrix eigenvalue = 6.74E-04
 Guess from superposition of atomic densities
 Warning:  Energy on first SCF cycle will be non-variational
 SAD guess density has 93.936381 electrons

 -----------------------------------------------------------------------
  General SCF calculation program by
  Eric Jon Sundstrom, Paul Horn, Yuezhi Mao, Dmitri Zuev, Alec White,
  David Stuck, Shaama M.S., Shane Yost, Joonho Lee, David Small,
  Daniel Levine, Susi Lehtola, Hugh Burton, Evgeny Epifanovsky
 -----------------------------------------------------------------------
 Exchange:     0.2000 Hartree-Fock + 0.0800 Slater + 0.7200 B88
 Correlation:  0.1900 VWN1RPA + 0.8100 LYP
 Using SG-1 standard quadrature grid
 using 12 threads for integral computing
 -------------------------------------------------------
 OpenMP Integral computing Module                
 Release: version 1.0, May 2013, Q-Chem Inc. Pittsburgh 
 -------------------------------------------------------
 -------------------------------------------------------
 OpenMP BLAS3 based DFT computing Module                
 Release: version 1.0, May 2013, Q-Chem Inc. Pittsburgh 
 -------------------------------------------------------
 A unrestricted SCF calculation will be
 performed using DIIS
 SCF converges when DIIS error is below 1.0e-06
 Alpha HF Exchange    Energy = -18.84443618675968
 Beta HF Exchange     Energy = -18.84443618675968
 DFT Correlation      Energy =  -5.12689058047748
 DFT Exchange         Energy = -149.85338491998311
 One-Electron (alpha) Energy = -3909.61425307728223
 One-Electron (beta)  Energy = -3909.61425307728223
 Total Coulomb        Energy = 2592.48727530944007
 ---------------------------------------
  Cycle       Energy         DIIS error
 ---------------------------------------
    1   -4927.4259139135      1.50e-01  
 Alpha HF Exchange    Energy = -19.06447436943197
 Beta HF Exchange     Energy = -18.86518166558670
 DFT Correlation      Energy =  -5.17532320412334
 DFT Exchange         Energy = -151.02020662724655
 One-Electron (alpha) Energy = -3942.31188848214242
 One-Electron (beta)  Energy = -3895.97002105906085
 Total Coulomb        Energy = 2618.93422020273965
    2   -4921.4884103992      9.31e-03  
 Alpha HF Exchange    Energy = -18.92628824447838
 Beta HF Exchange     Energy = -18.75615453437793
 DFT Correlation      Energy =  -5.13165864524773
 DFT Exchange         Energy = -149.98588319457420
 One-Electron (alpha) Energy = -3928.50614765635328
 One-Electron (beta)  Energy = -3884.52707581910954
 Total Coulomb        Energy = 2592.33036346353492
    3   -4921.5183798250      3.53e-03  
 Alpha HF Exchange    Energy = -19.04025751660900
 Beta HF Exchange     Energy = -18.84801048152748
 DFT Correlation      Energy =  -5.16475731082136
 DFT Exchange         Energy = -150.82330008784109
 One-Electron (alpha) Energy = -3938.48635427551153
 One-Electron (beta)  Energy = -3892.72471818128452
 Total Coulomb        Energy = 2611.54718957932482
    4   -4921.5557434686      2.79e-03  
 Alpha HF Exchange    Energy = -19.00286238908407
 Beta HF Exchange     Energy = -18.82288846003631
 DFT Correlation      Energy =  -5.15187051468952
 DFT Exchange         Energy = -150.54945047968880
 One-Electron (alpha) Energy = -3936.17739733556255
 One-Electron (beta)  Energy = -3891.32174693958905
 Total Coulomb        Energy = 2607.40996662710859
    5   -4921.6317846859      7.93e-04  
 Alpha HF Exchange    Energy = -18.99719260137887
 Beta HF Exchange     Energy = -18.81660542699659
 DFT Correlation      Energy =  -5.15124707789042
 DFT Exchange         Energy = -150.50586925057343
 One-Electron (alpha) Energy = -3935.14229543724468
 One-Electron (beta)  Energy = -3890.24913281299450
 Total Coulomb        Energy = 2605.23840804326801
    6   -4921.6394697582      8.88e-05  
 Alpha HF Exchange    Energy = -18.99622924574939
 Beta HF Exchange     Energy = -18.81620129398928
 DFT Correlation      Energy =  -5.15050079308416
 DFT Exchange         Energy = -150.49860885738019
 One-Electron (alpha) Energy = -3934.99347130198339
 One-Electron (beta)  Energy = -3890.16070260224660
 Total Coulomb        Energy = 2604.99160598118488
    7   -4921.6396433076      5.53e-05  
 Alpha HF Exchange    Energy = -18.99673399870109
 Beta HF Exchange     Energy = -18.81682163084363
 DFT Correlation      Energy =  -5.15064082920934
 DFT Exchange         Energy = -150.50274957697070
 One-Electron (alpha) Energy = -3935.04021859387785
 One-Electron (beta)  Energy = -3890.22615872097913
 Total Coulomb        Energy = 2605.10915460385149
    8   -4921.6397039411      2.06e-05  
 Alpha HF Exchange    Energy = -18.99681130305014
 Beta HF Exchange     Energy = -18.81695030483766
 DFT Correlation      Energy =  -5.15062334146705
 DFT Exchange         Energy = -150.50327960281902
 One-Electron (alpha) Energy = -3935.04537121808789
 One-Electron (beta)  Energy = -3890.24297964473317
 Total Coulomb        Energy = 2605.13183629075684
    9   -4921.6397143186      6.86e-06  
 Alpha HF Exchange    Energy = -18.99681093708570
 Beta HF Exchange     Energy = -18.81700849086955
 DFT Correlation      Energy =  -5.15060606701026
 DFT Exchange         Energy = -150.50339682652395
 One-Electron (alpha) Energy = -3935.04102076033496
 One-Electron (beta)  Energy = -3890.24619907444821
 Total Coulomb        Energy = 2605.13086073443901
   10   -4921.6397166162      3.09e-06  
 Alpha HF Exchange    Energy = -18.99680068479787
 Beta HF Exchange     Energy = -18.81699965092311
 DFT Correlation      Energy =  -5.15059721271465
 DFT Exchange         Energy = -150.50329533066122
 One-Electron (alpha) Energy = -3935.03658187318570
 One-Electron (beta)  Energy = -3890.24411286707573
 Total Coulomb        Energy = 2605.12420555214339
   11   -4921.6397172616      1.73e-06  
 Alpha HF Exchange    Energy = -18.99680026336191
 Beta HF Exchange     Energy = -18.81700773823787
 DFT Correlation      Energy =  -5.15059589695013
 DFT Exchange         Energy = -150.50331401454389
 One-Electron (alpha) Energy = -3935.03688566219489
 One-Electron (beta)  Energy = -3890.24576672553030
 Total Coulomb        Energy = 2605.12618760192572
   12   -4921.6397178933      1.32e-06  
 Alpha HF Exchange    Energy = -18.99680183862299
 Beta HF Exchange     Energy = -18.81700777810856
 DFT Correlation      Energy =  -5.15059601366234
 DFT Exchange         Energy = -150.50332041294072
 One-Electron (alpha) Energy = -3935.03688502815339
 One-Electron (beta)  Energy = -3890.24584756960985
 Total Coulomb        Energy = 2605.12627536152104
   13   -4921.6397184739      1.29e-06  
 Alpha HF Exchange    Energy = -18.99680171494245
 Beta HF Exchange     Energy = -18.81700733360841
 DFT Correlation      Energy =  -5.15059628092593
 DFT Exchange         Energy = -150.50331943940961
 One-Electron (alpha) Energy = -3935.03678108613303
 One-Electron (beta)  Energy = -3890.24577795161258
 Total Coulomb        Energy = 2605.12609987703672
   14   -4921.6397191240      1.27e-06  
 Alpha HF Exchange    Energy = -18.99680210826716
 Beta HF Exchange     Energy = -18.81700708939467
 DFT Correlation      Energy =  -5.15059621080957
 DFT Exchange         Energy = -150.50331986000276
 One-Electron (alpha) Energy = -3935.03686689525284
 One-Electron (beta)  Energy = -3890.24590316975537
 Total Coulomb        Energy = 2605.12630914662122
   15   -4921.6397213812      1.22e-06  
 Alpha HF Exchange    Energy = -18.99680034456336
 Beta HF Exchange     Energy = -18.81701430376253
 DFT Correlation      Energy =  -5.15059571995823
 DFT Exchange         Energy = -150.50333080056492
 One-Electron (alpha) Energy = -3935.03658603000395
 One-Electron (beta)  Energy = -3890.24689804249783
 Total Coulomb        Energy = 2605.12702786658565
   16   -4921.6397325691      1.50e-06  
 Alpha HF Exchange    Energy = -18.99680025822870
 Beta HF Exchange     Energy = -18.81701363925780
 DFT Correlation      Energy =  -5.15059574066323
 DFT Exchange         Energy = -150.50332834568667
 One-Electron (alpha) Energy = -3935.03658078222998
 One-Electron (beta)  Energy = -3890.24680932386127
 Total Coulomb        Energy = 2605.12693080104327
   17   -4921.6397324833      1.40e-06  
 Alpha HF Exchange    Energy = -18.99679666683959
 Beta HF Exchange     Energy = -18.81707819271191
 DFT Correlation      Energy =  -5.15059242412810
 DFT Exchange         Energy = -150.50350694807011
 One-Electron (alpha) Energy = -3935.03592350753934
 One-Electron (beta)  Energy = -3890.25411331061514
 Total Coulomb        Energy = 2605.13380157215943
   18   -4921.6397446721      8.37e-06  
 Alpha HF Exchange    Energy = -18.99679682811696
 Beta HF Exchange     Energy = -18.81707112807433
 DFT Correlation      Energy =  -5.15059287054248
 DFT Exchange         Energy = -150.50348535754435
 One-Electron (alpha) Energy = -3935.03598599847419
 One-Electron (beta)  Energy = -3890.25329797424274
 Total Coulomb        Energy = 2605.13302060636261
   19   -4921.6397447450      7.43e-06  
 Alpha HF Exchange    Energy = -18.99679593459121
 Beta HF Exchange     Energy = -18.81707620847991
 DFT Correlation      Energy =  -5.15059305682941
 DFT Exchange         Energy = -150.50349343248649
 One-Electron (alpha) Energy = -3935.03590529260691
 One-Electron (beta)  Energy = -3890.25381473660354
 Total Coulomb        Energy = 2605.13346836015671
   20   -4921.6397454958      7.48e-06  
 Alpha HF Exchange    Energy = -18.99679628131335
 Beta HF Exchange     Energy = -18.81704736502060
 DFT Correlation      Energy =  -5.15059476787452
 DFT Exchange         Energy = -150.50339811649101
 One-Electron (alpha) Energy = -3935.03616320234141
 One-Electron (beta)  Energy = -3890.25061567545163
 Total Coulomb        Energy = 2605.13040413393946
   21   -4921.6397464689      3.23e-06  
 Alpha HF Exchange    Energy = -18.99679738215843
 Beta HF Exchange     Energy = -18.81703901235177
 DFT Correlation      Energy =  -5.15059578174686
 DFT Exchange         Energy = -150.50337263658849
 One-Electron (alpha) Energy = -3935.03622506387910
 One-Electron (beta)  Energy = -3890.24967681086491
 Total Coulomb        Energy = 2605.12949516592880
   22   -4921.6397467160      1.63e-06  
 Alpha HF Exchange    Energy = -18.99679727770367
 Beta HF Exchange     Energy = -18.81703215651276
 DFT Correlation      Energy =  -5.15059625598727
 DFT Exchange         Energy = -150.50334928766543
 One-Electron (alpha) Energy = -3935.03622108081163
 One-Electron (beta)  Energy = -3890.24894357462608
 Total Coulomb        Energy = 2605.12872806239875
   23   -4921.6397467653      6.18e-07  Convergence criterion met
 ---------------------------------------
 SCF time:   CPU 105.91s  wall 9.00s 
<S^2> =          2.011061188
 Alpha HF Exchange    Energy = -18.99679727770367
 Beta HF Exchange     Energy = -18.81703215651276
 DFT Correlation      Energy =  -5.15059625598727
 DFT Exchange         Energy = -150.50334928766543
 One-Electron (alpha) Energy = -3935.03622108081163
 One-Electron (beta)  Energy = -3890.24894357462608
 Total Coulomb        Energy = 2605.12872806239875
 Nuclear repulsion Energy = 491.98446480563126
 SCF   energy in the final basis set =    -4921.6397467653
 Total energy in the final basis set =    -4921.6397467653
 
 --------------------------------------------------------------
 
                    Orbital Energies (a.u.)
 --------------------------------------------------------------
 
 Alpha MOs
 -- Occupied --
*******-453.899 -58.101 -58.094 -52.161 -52.158 -52.155 -52.152
-52.151 -52.149 -10.243 -10.209 -10.196  -7.835  -7.828  -5.784
 -5.776  -5.773  -5.770  -5.765  -5.760  -2.116  -2.115  -2.107
 -2.106  -2.106  -2.101  -2.100  -2.098  -2.096  -2.094  -0.817
 -0.702  -0.699  -0.692  -0.586  -0.483  -0.439  -0.431  -0.390
 -0.384  -0.382  -0.362  -0.337  -0.286  -0.244  -0.242  -0.207
 -- Virtual --
 -0.011   0.032   0.043   0.097   0.119   0.125   0.148   0.158
  0.166   0.179   0.210   0.228   0.248   0.258   0.274   0.287
  0.303   0.325   0.407   0.442   0.445   0.495   0.512   0.517
  0.537   0.541   0.541   0.552   0.568   0.580   0.635   0.662
  0.690   0.705   0.745   0.763   0.794   0.813   0.858   0.875
  0.891   0.909   0.930   1.003   1.015   1.059   1.123   1.186
  1.336   1.426   1.428   1.485   1.526   1.637   1.717   1.771
  1.838   1.877   1.911   1.975   2.024   2.038   2.076   2.082
  2.087   2.091   2.107   2.116   2.119   2.269   2.300   2.347
  2.404   2.496   2.557   2.584   2.597   2.642   2.657   2.700
  2.749   2.830   2.865   2.922   3.180   3.278   3.383   3.411
  3.457   3.525   4.196   4.219   4.219   4.241   4.262   4.263
  4.298   4.336   4.373   4.394   4.420   4.475   4.602   5.406
  5.489  89.580  89.834
 
 Beta MOs
 -- Occupied --
*******-453.899 -58.100 -58.094 -52.157 -52.156 -52.154 -52.151
-52.150 -52.148 -10.244 -10.197 -10.196  -7.832  -7.827  -5.775
 -5.775  -5.772  -5.768  -5.764  -5.760  -2.111  -2.110  -2.105
 -2.105  -2.101  -2.100  -2.098  -2.097  -2.095  -2.093  -0.809
 -0.693  -0.675  -0.665  -0.577  -0.479  -0.436  -0.426  -0.387
 -0.380  -0.372  -0.359  -0.319  -0.235  -0.230
 -- Virtual --
 -0.163  -0.084   0.001   0.036   0.053   0.100   0.121   0.133
  0.155   0.159   0.167   0.184   0.215   0.233   0.255   0.262
  0.289   0.298   0.307   0.334   0.415   0.447   0.452   0.504
  0.521   0.544   0.553   0.558   0.583   0.586   0.587   0.606
  0.648   0.666   0.692   0.710   0.751   0.769   0.805   0.818
  0.859   0.877   0.893   0.915   0.932   1.015   1.020   1.065
  1.129   1.191   1.353   1.426   1.448   1.502   1.541   1.643
  1.722   1.771   1.841   1.883   1.929   1.996   2.029   2.040
  2.077   2.083   2.087   2.097   2.108   2.118   2.124   2.275
  2.301   2.350   2.414   2.510   2.568   2.596   2.598   2.644
  2.658   2.703   2.751   2.832   2.865   2.924   3.180   3.280
  3.387   3.412   3.457   3.530   4.211   4.232   4.233   4.254
  4.264   4.265   4.301   4.339   4.378   4.398   4.430   4.479
  4.605   5.421   5.493  89.585  89.836
 --------------------------------------------------------------
 
          Ground-State Mulliken Net Atomic Charges

     Atom                 Charge (a.u.)    Spin (a.u.)
  --------------------------------------------------------
      1 Se                   -0.117138       1.018391
      2 C                    -0.203583       0.934376
      3 C                    -0.152759      -0.111222
      4 C                    -0.308785       0.007830
      5 Se                   -0.104073       0.255248
      6 H                     0.060247      -0.006311
      7 H                     0.092877      -0.025794
      8 H                     0.120831      -0.041091
      9 H                     0.112246      -0.041487
     10 H                     0.138228       0.011025
     11 H                     0.114163      -0.000933
     12 H                     0.129795       0.001093
     13 H                     0.117951      -0.001124
  --------------------------------------------------------
  Sum of atomic charges =    -0.000000
  Sum of spin   charges =     2.000000

 -----------------------------------------------------------------
                    Cartesian Multipole Moments
 -----------------------------------------------------------------
    Charge (ESU x 10^10)
                 0.0000
    Dipole Moment (Debye)
         X      -1.6247      Y      -2.3714      Z       0.3553
       Tot       2.8965
    Quadrupole Moments (Debye-Ang)
        XX     -63.1622     XY      -1.0087     YY     -57.2374
        XZ      -0.5145     YZ      -0.6058     ZZ     -56.7853
    Octopole Moments (Debye-Ang^2)
       XXX    -113.3818    XXY     -11.8289    XYY     -36.8706
       YYY       5.6544    XXZ      -3.8851    XYZ      -4.4940
       YYZ      -9.1572    XZZ     -41.6020    YZZ      -3.5772
       ZZZ     -22.0040
    Hexadecapole Moments (Debye-Ang^3)
      XXXX   -1763.7333   XXXY    -354.3153   XXYY    -414.7632
      XYYY    -331.4066   YYYY    -772.4019   XXXZ     -36.5700
      XXYZ      -8.9995   XYYZ     -27.4005   YYYZ     -12.1396
      XXZZ    -327.9304   XYZZ    -124.1982   YYZZ    -149.3208
      XZZZ     -62.3477   YZZZ     -10.6347   ZZZZ    -117.3027
 -----------------------------------------------------------------
 Calculating analytic gradient of the SCF energy
 Gradient of SCF Energy
            1           2           3           4           5           6
    1  -0.0104311   0.0115704  -0.0015075  -0.0004160  -0.0008476   0.0000578
    2  -0.0062770   0.0001545  -0.0001645   0.0012505  -0.0000723   0.0000757
    3   0.0000968  -0.0044951  -0.0003397   0.0000568   0.0001094  -0.0000389
            7           8           9          10          11          12
    1   0.0101451  -0.0089060   0.0001116   0.0003225  -0.0000459  -0.0001485
    2   0.0058329  -0.0008519   0.0000894  -0.0003033   0.0000763   0.0000290
    3  -0.0002185   0.0048758  -0.0001273   0.0001338  -0.0000015  -0.0000073
           13
    1   0.0000952
    2   0.0001607
    3  -0.0000443
 Max gradient component =       1.157E-02
 RMS gradient           =       3.750E-03
 Gradient time:  CPU 17.45 s  wall 1.54 s
 Geometry Optimization Parameters
   NAtoms,    NIC,     NZ,  NCons,   NDum,   NFix, NCnnct, MaxDiis
       13      90       0       1       0       0       0       0

 Cartesian Hessian Update
 Hessian Updated using BFGS Update


** CONSTRAINED OPTIMIZATION IN DELOCALIZED INTERNAL COORDINATES **
   Searching for a Minimum

   Optimization Cycle:   2

                       Coordinates (Angstroms)
     ATOM                X               Y               Z
      1  Se        3.4500251417    1.3685666832    0.2757634840
      2  C         0.3805667781   -2.0563994396    0.4303657379
      3  C        -0.7586001854   -1.5227290133   -0.2995265111
      4  C        -2.1300435764   -2.0583091233    0.0968557157
      5  Se       -0.7631565261    0.5755626119   -0.0530143139
      6  H        -0.9392133090    0.4796192498    1.4068879134
      7  H         2.1853262003    0.6506823820    0.2658718738
      8  H         1.3710030386   -2.0265069534    0.0266575892
      9  H         0.2719085980   -2.3349904767    1.4744023784
     10  H        -0.6064090178   -1.5610277328   -1.3812970639
     11  H        -2.3079248614   -1.9344928645    1.1698321571
     12  H        -2.9315198990   -1.5492722679   -0.4426652692
     13  H        -2.1839623815   -3.1301070555   -0.1286356913
   Point Group: c1    Number of degrees of freedom:    33


   Energy is  -4921.639746765

              Constraints and their Current Values
                                        Value     Constraint
   Distance(Angs):        1   2             4.601725     4.600000
 Hessian Updated using BFGS Update

   Using Lagrange Multiplier Algorithm


 33 Hessian modes will be used to form the next step
  Hessian Eigenvalues:
    -0.985606    0.020111    0.042267    0.045000    0.045276    0.045658
     0.045827    0.069694    0.075764    0.077857    0.082399    0.084085
     0.087034    0.091229    0.102166    0.116790    0.126146    0.157546
     0.159998    0.160000    0.165850    0.179999    0.180775    0.209758
     0.299126    0.340621    0.342819    0.344591    0.345765    0.352748
     0.364598    0.406678    1.019743

 Minimum Search - Taking P-RFO Step
 Searching for Lamda that Maximizes Along the Constraint modes Only
 Value Taken    Lamda =   0.00003148
 Searching for Lamda that Minimizes Along All other modes
 Value Taken    Lamda =  -0.00055535
 Step Taken.  Stepsize is  0.054578

                             Maximum     Tolerance    Cnvgd?
         Gradient            0.005694       0.000300      NO
         Displacement        0.028061       0.001200      NO
         Energy change      0.000609       0.000001      NO


 New Cartesian Coordinates Obtained by Inverse Iteration

 Displacement from previous Coordinates is:  0.049632
 ----------------------------------------------------------------
             Standard Nuclear Orientation (Angstroms)
    I     Atom           X                Y                Z
 ----------------------------------------------------------------
    1      Se      3.4607758811     1.3614607793     0.2753563805
    2      C       0.3778760385    -2.0489918322     0.4320295927
    3      C      -0.7604138298    -1.5192477763    -0.2988830689
    4      C      -2.1294902535    -2.0616750472     0.0966418931
    5      Se     -0.7643828943     0.5779095909    -0.0525917002
    6      H      -0.9411284110     0.4816642996     1.4071802080
    7      H       2.1794095593     0.6404691289     0.2660842009
    8      H       1.3738459824    -2.0172198194     0.0230194400
    9      H       0.2698143639    -2.3285739647     1.4760269417
   10      H      -0.6081603222    -1.5567439733    -1.3807391636
   11      H      -2.3083260145    -1.9391644042     1.1696102483
   12      H      -2.9326195578    -1.5555905177    -0.4430379341
   13      H      -2.1792005421    -3.1337004637    -0.1291990385
 ----------------------------------------------------------------
 Nuclear Repulsion Energy =   491.5449345409 hartrees
 There are       48 alpha and       46 beta electrons

                       Distance Matrix (Angstroms)
             Se(  1)   C (  2)   C (  3)   C (  4)   Se(  5)   H (  6)
   C (  2)  4.600001
   C (  3)  5.142633  1.452779
   C (  4)  6.557505  2.529730  1.524807
   Se(  5)  4.309695  2.905206  2.111574  2.975432
   H (  6)  4.629452  3.015777  2.635708  3.098111  1.473579
   H (  7)  1.470311  3.241336  3.691358  5.088901  2.961652  3.326421
   H (  8)  3.979250  1.077151  2.215099  3.504392  3.363397  3.676878
   H (  9)  5.023963  1.086174  2.206056  2.780396  3.442947  3.060811
   H ( 10)  5.273975  2.121487  1.093160  2.179921  2.518954  3.469650
   H ( 11)  6.706441  2.787789  2.174588  1.094647  3.195810  2.790355
   H ( 12)  7.064049  3.459562  2.177287  1.091967  3.066842  3.397021
   H ( 13)  7.223536  2.833763  2.155970  1.096683  3.972861  4.118755
             H (  7)   H (  8)   H (  9)   H ( 10)   H ( 11)   H ( 12)
   H (  8)  2.787709
   H (  9)  3.731720  1.851231
   H ( 10)  3.912840  2.472029  3.086693
   H ( 11)  5.254583  3.857351  2.625326  3.088866
   H ( 12)  5.608777  4.356140  3.812597  2.506471  1.771301
   H ( 13)  5.779108  3.727444  3.036882  2.553686  1.769321  1.776673

 
 Applying Cartesian multipole field
    Component          Value
    ---------          -----
     (2,0,0)        1.00000E-11
     (0,2,0)        2.00000E-11
     (0,0,2)       -3.00000E-10
 Nucleus-field energy     =     0.0000000163 hartrees
 Requested basis set is 6-31G(d,p)
 There are 52 shells and 155 basis functions
 A cutoff of  1.0D-14 yielded   1182 shell pairs
 There are     10188 function pairs
 Smallest overlap matrix eigenvalue = 6.74E-04
 Guess from superposition of atomic densities
 Warning:  Energy on first SCF cycle will be non-variational
 SAD guess density has 93.936381 electrons

 -----------------------------------------------------------------------
  General SCF calculation program by
  Eric Jon Sundstrom, Paul Horn, Yuezhi Mao, Dmitri Zuev, Alec White,
  David Stuck, Shaama M.S., Shane Yost, Joonho Lee, David Small,
  Daniel Levine, Susi Lehtola, Hugh Burton, Evgeny Epifanovsky
 -----------------------------------------------------------------------
 Exchange:     0.2000 Hartree-Fock + 0.0800 Slater + 0.7200 B88
 Correlation:  0.1900 VWN1RPA + 0.8100 LYP
 Using SG-1 standard quadrature grid
 using 12 threads for integral computing
 -------------------------------------------------------
 OpenMP Integral computing Module                
 Release: version 1.0, May 2013, Q-Chem Inc. Pittsburgh 
 -------------------------------------------------------
 -------------------------------------------------------
 OpenMP BLAS3 based DFT computing Module                
 Release: version 1.0, May 2013, Q-Chem Inc. Pittsburgh 
 -------------------------------------------------------
 A unrestricted SCF calculation will be
 performed using DIIS
 SCF converges when DIIS error is below 1.0e-06
 Alpha HF Exchange    Energy = -18.84356037562196
 Beta HF Exchange     Energy = -18.84356037562196
 DFT Correlation      Energy =  -5.12670281021031
 DFT Exchange         Energy = -149.85114059676982
 One-Electron (alpha) Energy = -3909.18612270322274
 One-Electron (beta)  Energy = -3909.18612270322274
 Total Coulomb        Energy = 2592.07561396659321
 ---------------------------------------
  Cycle       Energy         DIIS error
 ---------------------------------------
    1   -4927.4166610409      1.50e-01  
 Alpha HF Exchange    Energy = -19.06373650523137
 Beta HF Exchange     Energy = -18.86521428284255
 DFT Correlation      Energy =  -5.17502011126271
 DFT Exchange         Energy = -151.01603795643129
 One-Electron (alpha) Energy = -3941.87191031530665
 One-Electron (beta)  Energy = -3895.59585413371633
 Total Coulomb        Energy = 2618.55012366310075
    2   -4921.4927150845      9.31e-03  
 Alpha HF Exchange    Energy = -18.92578202235185
 Beta HF Exchange     Energy = -18.75514143008036
 DFT Correlation      Energy =  -5.13139154566890
 DFT Exchange         Energy = -149.98061262885142
 One-Electron (alpha) Energy = -3928.01825547578301
 One-Electron (beta)  Energy = -3883.99860996380949
 Total Coulomb        Energy = 2591.74159867568460
    3   -4921.5232598337      3.50e-03  
 Alpha HF Exchange    Energy = -19.04013559300911
 Beta HF Exchange     Energy = -18.85051315467859
 DFT Correlation      Energy =  -5.16423127882083
 DFT Exchange         Energy = -150.82582657801527
 One-Electron (alpha) Energy = -3938.17516157168620
 One-Electron (beta)  Energy = -3892.55662986594734
 Total Coulomb        Energy = 2611.50077539076938
    4   -4921.5667880942      2.70e-03  
 Alpha HF Exchange    Energy = -19.00136885154000
 Beta HF Exchange     Energy = -18.82105866066565
 DFT Correlation      Energy =  -5.15136510711928
 DFT Exchange         Energy = -150.53710975950108
 One-Electron (alpha) Energy = -3935.58923594325688
 One-Electron (beta)  Energy = -3890.71307220804692
 Total Coulomb        Energy = 2606.63424081758194
    5   -4921.6340351554      6.96e-04  
 Alpha HF Exchange    Energy = -18.99661036398394
 Beta HF Exchange     Energy = -18.81605070066585
 DFT Correlation      Energy =  -5.15100701318852
 DFT Exchange         Energy = -150.50190005025075
 One-Electron (alpha) Energy = -3934.70000333950384
 One-Electron (beta)  Energy = -3889.80759869369740
 Total Coulomb        Energy = 2604.78833099267877
    6   -4921.6399046114      8.65e-05  
 Alpha HF Exchange    Energy = -18.99569039358461
 Beta HF Exchange     Energy = -18.81570917911709
 DFT Correlation      Energy =  -5.15032147449235
 DFT Exchange         Energy = -150.49522113780080
 One-Electron (alpha) Energy = -3934.56591600169941
 One-Electron (beta)  Energy = -3889.73749499228506
 Total Coulomb        Energy = 2604.57535846125757
    7   -4921.6400601605      3.74e-05  
 Alpha HF Exchange    Energy = -18.99611050855304
 Beta HF Exchange     Energy = -18.81621039578044
 DFT Correlation      Energy =  -5.15038704281957
 DFT Exchange         Energy = -150.49847471786202
 One-Electron (alpha) Energy = -3934.60651524234299
 One-Electron (beta)  Energy = -3889.79458615890644
 Total Coulomb        Energy = 2604.67725439076094
    8   -4921.6400951183      1.78e-05  
 Alpha HF Exchange    Energy = -18.99615926692776
 Beta HF Exchange     Energy = -18.81629882039375
 DFT Correlation      Energy =  -5.15037501359013
 DFT Exchange         Energy = -150.49880231206367
 One-Electron (alpha) Energy = -3934.60588154054585
 One-Electron (beta)  Energy = -3889.80327736485788
 Total Coulomb        Energy = 2604.68575674155591
    9   -4921.6401030196      4.70e-06  
 Alpha HF Exchange    Energy = -18.99615738656425
 Beta HF Exchange     Energy = -18.81633712498725
 DFT Correlation      Energy =  -5.15035748746449
 DFT Exchange         Energy = -150.49885460160010
 One-Electron (alpha) Energy = -3934.60117105814743
 One-Electron (beta)  Energy = -3889.80488850013489
 Total Coulomb        Energy = 2604.68272701803335
   10   -4921.6401045837      2.34e-06  
 Alpha HF Exchange    Energy = -18.99615204789462
 Beta HF Exchange     Energy = -18.81633230228109
 DFT Correlation      Energy =  -5.15035179945346
 DFT Exchange         Energy = -150.49879803286530
 One-Electron (alpha) Energy = -3934.59881937668069
 One-Electron (beta)  Energy = -3889.80416986224964
 Total Coulomb        Energy = 2604.67958371265604
   11   -4921.6401051516      1.56e-06  
 Alpha HF Exchange    Energy = -18.99615312501769
 Beta HF Exchange     Energy = -18.81633736137439
 DFT Correlation      Energy =  -5.15035189279571
 DFT Exchange         Energy = -150.49881883595054
 One-Electron (alpha) Energy = -3934.59950439673821
 One-Electron (beta)  Energy = -3889.80537928706462
 Total Coulomb        Energy = 2604.68150466833322
   12   -4921.6401056734      1.32e-06  
 Alpha HF Exchange    Energy = -18.99615359236386
 Beta HF Exchange     Energy = -18.81633608978572
 DFT Correlation      Energy =  -5.15035184635101
 DFT Exchange         Energy = -150.49881622337267
 One-Electron (alpha) Energy = -3934.59930749455816
 One-Electron (beta)  Energy = -3889.80522167430945
 Total Coulomb        Energy = 2604.68114608767019
   13   -4921.6401062759      1.28e-06  
 Alpha HF Exchange    Energy = -18.99615363869855
 Beta HF Exchange     Energy = -18.81633590930275
 DFT Correlation      Energy =  -5.15035209183847
 DFT Exchange         Energy = -150.49881681059910
 One-Electron (alpha) Energy = -3934.59925283517305
 One-Electron (beta)  Energy = -3889.80518114052802
 Total Coulomb        Energy = 2604.68105076863912
   14   -4921.6401071003      1.27e-06  
 Alpha HF Exchange    Energy = -18.99615458063389
 Beta HF Exchange     Energy = -18.81633624233590
 DFT Correlation      Energy =  -5.15035213332658
 DFT Exchange         Energy = -150.49882107865682
 One-Electron (alpha) Energy = -3934.59942206720098
 One-Electron (beta)  Energy = -3889.80536750647252
 Total Coulomb        Energy = 2604.68140900198750
   15   -4921.6401100494      1.20e-06  
 Alpha HF Exchange    Energy = -18.99615210948444
 Beta HF Exchange     Energy = -18.81634612608953
 DFT Correlation      Energy =  -5.15035133890276
 DFT Exchange         Energy = -150.49883691989629
 One-Electron (alpha) Energy = -3934.59909997506065
 One-Electron (beta)  Energy = -3889.80663620787709
 Total Coulomb        Energy = 2604.68236601492026
   16   -4921.6401221052      1.75e-06  
 Alpha HF Exchange    Energy = -18.99615216936752
 Beta HF Exchange     Energy = -18.81634941621781
 DFT Correlation      Energy =  -5.15035116310237
 DFT Exchange         Energy = -150.49884716363138
 One-Electron (alpha) Energy = -3934.59908884569359
 One-Electron (beta)  Energy = -3889.80703430573658
 Total Coulomb        Energy = 2604.68276543231195
   17   -4921.6401230742      2.18e-06  
 Alpha HF Exchange    Energy = -18.99614745851356
 Beta HF Exchange     Energy = -18.81644846838442
 DFT Correlation      Energy =  -5.15034555062621
 DFT Exchange         Energy = -150.49913354739118
 One-Electron (alpha) Energy = -3934.59805770916546
 One-Electron (beta)  Energy = -3889.81835210790541
 Total Coulomb        Energy = 2604.69341937019817
   18   -4921.6401309146      1.42e-05  
 Alpha HF Exchange    Energy = -18.99614918057999
 Beta HF Exchange     Energy = -18.81640438590061
 DFT Correlation      Energy =  -5.15034848673111
 DFT Exchange         Energy = -150.49900067374790
 One-Electron (alpha) Energy = -3934.59850897638898
 One-Electron (beta)  Energy = -3889.81325546167136
 Total Coulomb        Energy = 2604.68859971515849
   19   -4921.6401328927      8.16e-06  
 Alpha HF Exchange    Energy = -18.99614890964115
 Beta HF Exchange     Energy = -18.81640477911388
 DFT Correlation      Energy =  -5.15034895184356
 DFT Exchange         Energy = -150.49899868063807
 One-Electron (alpha) Energy = -3934.59849251836113
 One-Electron (beta)  Energy = -3889.81328395396986
 Total Coulomb        Energy = 2604.68860972045741
   20   -4921.6401335159      7.82e-06  
 Alpha HF Exchange    Energy = -18.99614750043137
 Beta HF Exchange     Energy = -18.81638106911144
 DFT Correlation      Energy =  -5.15035018318068
 DFT Exchange         Energy = -150.49891092346888
 One-Electron (alpha) Energy = -3934.59853385804354
 One-Electron (beta)  Energy = -3889.81066405393722
 Total Coulomb        Energy = 2604.68591836173073
   21   -4921.6401346692      4.19e-06  
 Alpha HF Exchange    Energy = -18.99614922947968
 Beta HF Exchange     Energy = -18.81636835337754
 DFT Correlation      Energy =  -5.15035177219377
 DFT Exchange         Energy = -150.49887276864081
 One-Electron (alpha) Energy = -3934.59871509928234
 One-Electron (beta)  Energy = -3889.80923751367663
 Total Coulomb        Energy = 2604.68462503836417
   22   -4921.6401351411      1.73e-06  
 Alpha HF Exchange    Energy = -18.99614914501913
 Beta HF Exchange     Energy = -18.81636196019858
 DFT Correlation      Energy =  -5.15035228095497
 DFT Exchange         Energy = -150.49885076756763
 One-Electron (alpha) Energy = -3934.59870599037140
 One-Electron (beta)  Energy = -3889.80854396804943
 Total Coulomb        Energy = 2604.68389435910058
   23   -4921.6401351959      7.57e-07  Convergence criterion met
 ---------------------------------------
 SCF time:   CPU 105.33s  wall 8.00s 
<S^2> =          2.011086905
 Alpha HF Exchange    Energy = -18.99614914501913
 Beta HF Exchange     Energy = -18.81636196019858
 DFT Correlation      Energy =  -5.15035228095497
 DFT Exchange         Energy = -150.49885076756763
 One-Electron (alpha) Energy = -3934.59870599037140
 One-Electron (beta)  Energy = -3889.80854396804943
 Total Coulomb        Energy = 2604.68389435910058
 Nuclear repulsion Energy = 491.54493455719557
 SCF   energy in the final basis set =    -4921.6401351959
 Total energy in the final basis set =    -4921.6401351959
 
 --------------------------------------------------------------
 
                    Orbital Energies (a.u.)
 --------------------------------------------------------------
 
 Alpha MOs
 -- Occupied --
*******-453.899 -58.102 -58.095 -52.161 -52.158 -52.155 -52.152
-52.151 -52.149 -10.243 -10.210 -10.196  -7.835  -7.828  -5.784
 -5.777  -5.773  -5.770  -5.765  -5.760  -2.116  -2.115  -2.107
 -2.106  -2.106  -2.101  -2.100  -2.098  -2.096  -2.095  -0.817
 -0.702  -0.697  -0.692  -0.585  -0.483  -0.439  -0.431  -0.390
 -0.384  -0.381  -0.361  -0.337  -0.286  -0.244  -0.242  -0.207
 -- Virtual --
 -0.011   0.030   0.041   0.097   0.118   0.124   0.149   0.158
  0.165   0.179   0.209   0.228   0.248   0.258   0.273   0.287
  0.303   0.324   0.406   0.442   0.445   0.495   0.512   0.517
  0.538   0.541   0.541   0.552   0.568   0.580   0.635   0.662
  0.689   0.705   0.745   0.763   0.794   0.812   0.857   0.874
  0.891   0.906   0.930   1.004   1.015   1.055   1.122   1.185
  1.337   1.426   1.428   1.485   1.525   1.637   1.717   1.770
  1.837   1.879   1.909   1.975   2.022   2.037   2.076   2.080
  2.085   2.089   2.106   2.116   2.119   2.269   2.300   2.347
  2.402   2.492   2.556   2.584   2.597   2.639   2.648   2.699
  2.747   2.827   2.864   2.919   3.179   3.272   3.381   3.409
  3.457   3.519   4.197   4.219   4.219   4.240   4.262   4.263
  4.298   4.336   4.377   4.394   4.420   4.475   4.602   5.405
  5.488  89.576  89.833
 
 Beta MOs
 -- Occupied --
*******-453.899 -58.101 -58.094 -52.157 -52.157 -52.154 -52.152
-52.151 -52.148 -10.244 -10.198 -10.196  -7.832  -7.827  -5.775
 -5.775  -5.772  -5.768  -5.764  -5.760  -2.111  -2.110  -2.106
 -2.105  -2.101  -2.101  -2.098  -2.098  -2.095  -2.094  -0.809
 -0.693  -0.674  -0.663  -0.577  -0.478  -0.436  -0.426  -0.387
 -0.380  -0.371  -0.359  -0.319  -0.235  -0.230
 -- Virtual --
 -0.163  -0.084   0.001   0.035   0.051   0.100   0.120   0.133
  0.155   0.160   0.167   0.184   0.215   0.233   0.255   0.262
  0.289   0.298   0.307   0.333   0.413   0.447   0.452   0.504
  0.522   0.545   0.554   0.558   0.583   0.586   0.587   0.606
  0.648   0.666   0.692   0.710   0.751   0.769   0.805   0.817
  0.859   0.876   0.893   0.913   0.932   1.016   1.021   1.060
  1.128   1.191   1.354   1.426   1.448   1.502   1.541   1.643
  1.722   1.770   1.841   1.885   1.927   1.995   2.027   2.039
  2.076   2.080   2.083   2.096   2.107   2.117   2.125   2.275
  2.300   2.350   2.413   2.506   2.567   2.596   2.598   2.641
  2.648   2.702   2.749   2.828   2.864   2.921   3.179   3.275
  3.385   3.410   3.457   3.524   4.212   4.232   4.233   4.254
  4.264   4.264   4.301   4.339   4.382   4.398   4.430   4.479
  4.606   5.419   5.493  89.581  89.835
 --------------------------------------------------------------
 
          Ground-State Mulliken Net Atomic Charges

     Atom                 Charge (a.u.)    Spin (a.u.)
  --------------------------------------------------------
      1 Se                   -0.116478       1.019340
      2 C                    -0.204080       0.933881
      3 C                    -0.152339      -0.111042
      4 C                    -0.308960       0.007821
      5 Se                   -0.102992       0.255395
      6 H                     0.060302      -0.006302
      7 H                     0.091446      -0.026406
      8 H                     0.120451      -0.041337
      9 H                     0.112474      -0.041526
     10 H                     0.138294       0.011098
     11 H                     0.114130      -0.000933
     12 H                     0.129563       0.001155
     13 H                     0.118189      -0.001143
  --------------------------------------------------------
  Sum of atomic charges =     0.000000
  Sum of spin   charges =     2.000000

 -----------------------------------------------------------------
                    Cartesian Multipole Moments
 -----------------------------------------------------------------
    Charge (ESU x 10^10)
                 0.0000
    Dipole Moment (Debye)
         X      -1.6312      Y      -2.3620      Z       0.3544
       Tot       2.8923
    Quadrupole Moments (Debye-Ang)
        XX     -63.1773     XY      -0.9438     YY     -57.2367
        XZ      -0.5192     YZ      -0.6183     ZZ     -56.7872
    Octopole Moments (Debye-Ang^2)
       XXX    -113.8012    XXY     -11.5992    XYY     -37.0330
       YYY       5.7910    XXZ      -3.8781    XYZ      -4.5308
       YYZ      -9.1745    XZZ     -41.7887    YZZ      -3.5075
       ZZZ     -22.0234
    Hexadecapole Moments (Debye-Ang^3)
      XXXX   -1771.6366   XXXY    -353.0553   XXYY    -415.4227
      XYYY    -330.6663   YYYY    -769.5530   XXXZ     -36.4441
      XXYZ      -9.1163   XYYZ     -27.5505   YYYZ     -12.0267
      XXZZ    -329.3904   XYZZ    -124.0008   YYZZ    -148.8153
      XZZZ     -62.4117   YZZZ     -10.5184   ZZZZ    -117.2948
 -----------------------------------------------------------------
 Calculating analytic gradient of the SCF energy
 Gradient of SCF Energy
            1           2           3           4           5           6
    1  -0.0050331   0.0058598  -0.0008242  -0.0002363  -0.0005667   0.0000505
    2  -0.0032595   0.0004995   0.0000170   0.0008209  -0.0002024   0.0000310
    3   0.0001463  -0.0025611   0.0000329   0.0000450   0.0000308  -0.0000497
            7           8           9          10          11          12
    1   0.0047981  -0.0041608  -0.0000618   0.0002287  -0.0000272  -0.0000073
    2   0.0027725  -0.0006026   0.0000197  -0.0002136   0.0000547   0.0000233
    3  -0.0002635   0.0025319   0.0000286   0.0000648   0.0000008  -0.0000165
           13
    1  -0.0000195
    2   0.0000396
    3   0.0000096
 Max gradient component =       5.860E-03
 RMS gradient           =       1.853E-03
 Gradient time:  CPU 17.41 s  wall 1.55 s
 Geometry Optimization Parameters
   NAtoms,    NIC,     NZ,  NCons,   NDum,   NFix, NCnnct, MaxDiis
       13      90       0       1       0       0       0       0

 Cartesian Hessian Update
 Hessian Updated using BFGS Update


** CONSTRAINED OPTIMIZATION IN DELOCALIZED INTERNAL COORDINATES **
   Searching for a Minimum

   Optimization Cycle:   3

                       Coordinates (Angstroms)
     ATOM                X               Y               Z
      1  Se        3.4607758811    1.3614607793    0.2753563805
      2  C         0.3778760385   -2.0489918322    0.4320295927
      3  C        -0.7604138298   -1.5192477763   -0.2988830689
      4  C        -2.1294902535   -2.0616750472    0.0966418931
      5  Se       -0.7643828943    0.5779095909   -0.0525917002
      6  H        -0.9411284110    0.4816642996    1.4071802080
      7  H         2.1794095593    0.6404691289    0.2660842009
      8  H         1.3738459824   -2.0172198194    0.0230194400
      9  H         0.2698143639   -2.3285739647    1.4760269417
     10  H        -0.6081603222   -1.5567439733   -1.3807391636
     11  H        -2.3083260145   -1.9391644042    1.1696102483
     12  H        -2.9326195578   -1.5555905177   -0.4430379341
     13  H        -2.1792005421   -3.1337004637   -0.1291990385
   Point Group: c1    Number of degrees of freedom:    33


   Energy is  -4921.640135196

              Constraints and their Current Values
                                        Value     Constraint
   Distance(Angs):        1   2             4.600001     4.600000
 Hessian Updated using BFGS Update

   Using Lagrange Multiplier Algorithm


 34 Hessian modes will be used to form the next step
  Hessian Eigenvalues:
    -0.978129    0.020081    0.039630    0.044999    0.045258    0.045684
     0.045801    0.069307    0.071496    0.077520    0.082397    0.082931
     0.084086    0.090560    0.099148    0.116898    0.124119    0.156552
     0.159881    0.160000    0.160000    0.165254    0.166743    0.180775
     0.187780    0.299111    0.331244    0.340730    0.342819    0.344597
     0.345844    0.352931    0.366341    1.027838

 Minimum Search - Taking P-RFO Step
 Searching for Lamda that Maximizes Along the Constraint modes Only
 Value Taken    Lamda =   0.00000010
 Searching for Lamda that Minimizes Along All other modes
 Value Taken    Lamda =  -0.00024386
 Step Taken.  Stepsize is  0.053137

                             Maximum     Tolerance    Cnvgd?
         Gradient            0.002676       0.000300      NO
         Displacement        0.027234       0.001200      NO
         Energy change     -0.000388       0.000001      NO


 New Cartesian Coordinates Obtained by Inverse Iteration

 Displacement from previous Coordinates is:  0.048129
 ----------------------------------------------------------------
             Standard Nuclear Orientation (Angstroms)
    I     Atom           X                Y                Z
 ----------------------------------------------------------------
    1      Se      3.4688293496     1.3560824163     0.2729516929
    2      C       0.3741742590    -2.0434431936     0.4352434043
    3      C      -0.7621575818    -1.5162985298    -0.2976035042
    4      C      -2.1293756979    -2.0655874126     0.0956725289
    5      Se     -0.7616280315     0.5816162561    -0.0514691204
    6      H      -0.9398425861     0.4871835859     1.4082125656
    7      H       2.1732778974     0.6310417288     0.2669202317
    8      H       1.3743305108    -2.0083669029     0.0191717213
    9      H       0.2684603130    -2.3242561540     1.4790569676
   10      H      -0.6097942577    -1.5524548191    -1.3795060684
   11      H      -2.3099853832    -1.9451283105     1.1685815718
   12      H      -2.9343094549    -1.5623348967    -0.4441436571
   13      H      -2.1739793369    -3.1374577678    -0.1315903341
 ----------------------------------------------------------------
 Nuclear Repulsion Energy =   491.2237171517 hartrees
 There are       48 alpha and       46 beta electrons

                       Distance Matrix (Angstroms)
             Se(  1)   C (  2)   C (  3)   C (  4)   Se(  5)   H (  6)
   C (  2)  4.600000
   C (  3)  5.145615  1.451274
   C (  4)  6.563471  2.526571  1.525015
   Se(  5)  4.312982  2.901357  2.112304  2.983299
   H (  6)  4.634673  3.012869  2.637294  3.107151  1.473550
   H (  7)  1.484646  3.227689  3.680562  5.080744  2.952539  3.318850
   H (  8)  3.971253  1.083817  2.215188  3.505008  3.357875  3.675949
   H (  9)  5.024136  1.086084  2.207145  2.780338  3.442047  3.060916
   H ( 10)  5.274976  2.121928  1.093177  2.179125  2.518133  3.469933
   H ( 11)  6.715270  2.784271  2.174710  1.094652  3.204742  2.801938
   H ( 12)  7.073300  3.457000  2.177576  1.092054  3.077542  3.407293
   H ( 13)  7.224739  2.830416  2.156144  1.096606  3.979028  4.126998
             H (  7)   H (  8)   H (  9)   H ( 10)   H ( 11)   H ( 12)
   H (  8)  2.768786
   H (  9)  3.719058  1.858494
   H ( 10)  3.901777  2.470001  3.088429
   H ( 11)  5.248742  3.859964  2.624598  3.088299
   H ( 12)  5.603924  4.356373  3.812736  2.505668  1.771213
   H ( 13)  5.767066  3.726671  3.036609  2.552685  1.769349  1.776740

 
 Applying Cartesian multipole field
    Component          Value
    ---------          -----
     (2,0,0)        1.00000E-11
     (0,2,0)        2.00000E-11
     (0,0,2)       -3.00000E-10
 Nucleus-field energy     =     0.0000000164 hartrees
 Requested basis set is 6-31G(d,p)
 There are 52 shells and 155 basis functions
 A cutoff of  1.0D-14 yielded   1182 shell pairs
 There are     10188 function pairs
 Smallest overlap matrix eigenvalue = 6.74E-04
 Guess from superposition of atomic densities
 Warning:  Energy on first SCF cycle will be non-variational
 SAD guess density has 93.936381 electrons

 -----------------------------------------------------------------------
  General SCF calculation program by
  Eric Jon Sundstrom, Paul Horn, Yuezhi Mao, Dmitri Zuev, Alec White,
  David Stuck, Shaama M.S., Shane Yost, Joonho Lee, David Small,
  Daniel Levine, Susi Lehtola, Hugh Burton, Evgeny Epifanovsky
 -----------------------------------------------------------------------
 Exchange:     0.2000 Hartree-Fock + 0.0800 Slater + 0.7200 B88
 Correlation:  0.1900 VWN1RPA + 0.8100 LYP
 Using SG-1 standard quadrature grid
 using 12 threads for integral computing
 -------------------------------------------------------
 OpenMP Integral computing Module                
 Release: version 1.0, May 2013, Q-Chem Inc. Pittsburgh 
 -------------------------------------------------------
 -------------------------------------------------------
 OpenMP BLAS3 based DFT computing Module                
 Release: version 1.0, May 2013, Q-Chem Inc. Pittsburgh 
 -------------------------------------------------------
[...]
 DFT Correlation      Energy =  -5.15105131589241
 DFT Exchange         Energy = -150.53073131301170
 One-Electron (alpha) Energy = -3935.19532751331917
 One-Electron (beta)  Energy = -3890.27521881198027
 Total Coulomb        Energy = 2606.18011236725579
    5   -4921.6344717775      6.78e-04  
 Alpha HF Exchange    Energy = -18.99597011196723
 Beta HF Exchange     Energy = -18.81522691983561
 DFT Correlation      Energy =  -5.15073493982282
 DFT Exchange         Energy = -150.49718545446035
 One-Electron (alpha) Energy = -3934.33609919956689
 One-Electron (beta)  Energy = -3889.39912901902380
 Total Coulomb        Energy = 2604.39599498679036
    6   -4921.6400707165      8.62e-05  
 Alpha HF Exchange    Energy = -18.99506899877879
 Beta HF Exchange     Energy = -18.81490006413994
 DFT Correlation      Energy =  -5.15006353939002
 DFT Exchange         Energy = -150.49067209524685
 One-Electron (alpha) Energy = -3934.20709010576775
 One-Electron (beta)  Energy = -3889.33294074160585
 Total Coulomb        Energy = 2604.19223588745081
    7   -4921.6402197161      3.54e-05  
 Alpha HF Exchange    Energy = -18.99546366021945
 Beta HF Exchange     Energy = -18.81536871475025
 DFT Correlation      Energy =  -5.15011493995163
 DFT Exchange         Energy = -150.49368167361862
 One-Electron (alpha) Energy = -3934.24358811002185
 One-Electron (beta)  Energy = -3889.38569902039217
 Total Coulomb        Energy = 2604.28538475300184
    8   -4921.6402514246      1.73e-05  
 Alpha HF Exchange    Energy = -18.99551049007932
 Beta HF Exchange     Energy = -18.81545780236851
 DFT Correlation      Energy =  -5.15010376273423
 DFT Exchange         Energy = -150.49401005868901
 One-Electron (alpha) Energy = -3934.24321160012732
 One-Electron (beta)  Energy = -3889.39437739333425
 Total Coulomb        Energy = 2604.29413240846998
    9   -4921.6402587575      4.42e-06  
 Alpha HF Exchange    Energy = -18.99551039675519
 Beta HF Exchange     Energy = -18.81549450884984
 DFT Correlation      Energy =  -5.15008625672244
 DFT Exchange         Energy = -150.49406351540387
 One-Electron (alpha) Energy = -3934.23840972629705
 One-Electron (beta)  Energy = -3889.39575401590628
 Total Coulomb        Energy = 2604.29077826358071
   10   -4921.6402602150      2.17e-06  
 Alpha HF Exchange    Energy = -18.99550562395389
 Beta HF Exchange     Energy = -18.81549048156179
 DFT Correlation      Energy =  -5.15008109993385
 DFT Exchange         Energy = -150.49401399686798
 One-Electron (alpha) Energy = -3934.23645600990403
 One-Electron (beta)  Energy = -3889.39529284221362
 Total Coulomb        Energy = 2604.28829935225167
   11   -4921.6402607608      1.51e-06  
 Alpha HF Exchange    Energy = -18.99550679806957
 Beta HF Exchange     Energy = -18.81549492435859
 DFT Correlation      Energy =  -5.15008125236241
 DFT Exchange         Energy = -150.49403361737183
 One-Electron (alpha) Energy = -3934.23712828858515
 One-Electron (beta)  Energy = -3889.39638868838801
 Total Coulomb        Energy = 2604.29009237086166
   12   -4921.6402612569      1.30e-06  
 Alpha HF Exchange    Energy = -18.99550709605932
 Beta HF Exchange     Energy = -18.81549335774009
 DFT Correlation      Energy =  -5.15008118638040
 DFT Exchange         Energy = -150.49402937851545
 One-Electron (alpha) Energy = -3934.23688383127637
 One-Electron (beta)  Energy = -3889.39618453354024
 Total Coulomb        Energy = 2604.28963759474209
   13   -4921.6402618474      1.26e-06  
 Alpha HF Exchange    Energy = -18.99550727682574
 Beta HF Exchange     Energy = -18.81549327409335
 DFT Correlation      Energy =  -5.15008146532358
 DFT Exchange         Energy = -150.49403098432578
 One-Electron (alpha) Energy = -3934.23685173860986
 One-Electron (beta)  Energy = -3889.39616691312222
 Total Coulomb        Energy = 2604.28958887400722
   14   -4921.6402628369      1.24e-06  
 Alpha HF Exchange    Energy = -18.99550844236412
 Beta HF Exchange     Energy = -18.81549385754195
 DFT Correlation      Energy =  -5.15008153349891
 DFT Exchange         Energy = -150.49403659173169
 One-Electron (alpha) Energy = -3934.23705914219045
 One-Electron (beta)  Energy = -3889.39642046386552
 Total Coulomb        Energy = 2604.29005388184032
   15   -4921.6402662080      1.15e-06  
 Alpha HF Exchange    Energy = -18.99550568130689
 Beta HF Exchange     Energy = -18.81550376768679
 DFT Correlation      Energy =  -5.15008091144328
 DFT Exchange         Energy = -150.49405101693367
 One-Electron (alpha) Energy = -3934.23673294727996
 One-Electron (beta)  Energy = -3889.39770392642504
 Total Coulomb        Energy = 2604.29102185615147
   16   -4921.6402764535      1.60e-06  
 Alpha HF Exchange    Energy = -18.99550578632692
 Beta HF Exchange     Energy = -18.81550807674378
 DFT Correlation      Energy =  -5.15008070860366
 DFT Exchange         Energy = -150.49406435066436
 One-Electron (alpha) Energy = -3934.23672854599590
 One-Electron (beta)  Energy = -3889.39822434395774
 Total Coulomb        Energy = 2604.29155442400452
   17   -4921.6402774469      2.14e-06  
 Alpha HF Exchange    Energy = -18.99550257359418
 Beta HF Exchange     Energy = -18.81557058194356
 DFT Correlation      Energy =  -5.15007772162171
 DFT Exchange         Energy = -150.49423842536254
 One-Electron (alpha) Energy = -3934.23612510574685
 One-Electron (beta)  Energy = -3889.40535971112831
 Total Coulomb        Energy = 2604.29831098907653
   18   -4921.6402831889      8.77e-06  
 Alpha HF Exchange    Energy = -18.99550332546573
 Beta HF Exchange     Energy = -18.81554515793453
 DFT Correlation      Energy =  -5.15007943398503
 DFT Exchange         Energy = -150.49416244352130
 One-Electron (alpha) Energy = -3934.23633947461940
 One-Electron (beta)  Energy = -3889.40243394975187
 Total Coulomb        Energy = 2604.29549991360682
   19   -4921.6402839303      5.48e-06  
 Alpha HF Exchange    Energy = -18.99550229582216
 Beta HF Exchange     Energy = -18.81553907306020
 DFT Correlation      Energy =  -5.15008017315857
 DFT Exchange         Energy = -150.49413475781009
 One-Electron (alpha) Energy = -3934.23628122271566
 One-Electron (beta)  Energy = -3889.40176405041302
 Total Coulomb        Energy = 2604.29473715742006
   20   -4921.6402844742      4.14e-06  
 Alpha HF Exchange    Energy = -18.99550269166716
 Beta HF Exchange     Energy = -18.81551733256491
 DFT Correlation      Energy =  -5.15008151966635
 DFT Exchange         Energy = -150.49406475798270
 One-Electron (alpha) Energy = -3934.23642112409561
 One-Electron (beta)  Energy = -3889.39937729037183
 Total Coulomb        Energy = 2604.29239995856915
   21   -4921.6402848164      1.09e-06  
 Alpha HF Exchange    Energy = -18.99550354044198
 Beta HF Exchange     Energy = -18.81551311239843
 DFT Correlation      Energy =  -5.15008195355064
 DFT Exchange         Energy = -150.49405399891623
 One-Electron (alpha) Energy = -3934.23647119400675
 One-Electron (beta)  Energy = -3889.39889560377742
 Total Coulomb        Energy = 2604.29195461827476
   22   -4921.6402848434      3.61e-07  Convergence criterion met
 ---------------------------------------
 SCF time:   CPU 100.63s  wall 8.00s 
<S^2> =          2.011246477
 Alpha HF Exchange    Energy = -18.99550354044198
 Beta HF Exchange     Energy = -18.81551311239843
 DFT Correlation      Energy =  -5.15008195355064
 DFT Exchange         Energy = -150.49405399891623
 One-Electron (alpha) Energy = -3934.23647119400675
 One-Electron (beta)  Energy = -3889.39889560377742
 Total Coulomb        Energy = 2604.29195461827476
 Nuclear repulsion Energy = 491.15827994138346
 SCF   energy in the final basis set =    -4921.6402848434
 Total energy in the final basis set =    -4921.6402848434
 
 --------------------------------------------------------------
 
                    Orbital Energies (a.u.)
 --------------------------------------------------------------
 
 Alpha MOs
 -- Occupied --
*******-453.900 -58.102 -58.095 -52.161 -52.158 -52.155 -52.152
-52.151 -52.149 -10.243 -10.210 -10.196  -7.836  -7.828  -5.784
 -5.777  -5.773  -5.770  -5.766  -5.761  -2.116  -2.115  -2.107
 -2.106  -2.106  -2.102  -2.100  -2.099  -2.096  -2.095  -0.817
 -0.702  -0.695  -0.691  -0.585  -0.482  -0.439  -0.431  -0.390
 -0.384  -0.380  -0.361  -0.337  -0.286  -0.244  -0.242  -0.206
 -- Virtual --
 -0.011   0.027   0.040   0.096   0.118   0.124   0.150   0.158
  0.165   0.179   0.209   0.228   0.249   0.258   0.273   0.287
  0.303   0.324   0.402   0.442   0.445   0.494   0.513   0.518
  0.538   0.541   0.541   0.552   0.568   0.580   0.636   0.661
  0.687   0.705   0.744   0.763   0.794   0.810   0.857   0.874
  0.891   0.903   0.929   1.004   1.015   1.051   1.118   1.184
  1.338   1.426   1.430   1.484   1.524   1.638   1.716   1.768
  1.837   1.881   1.907   1.974   2.020   2.036   2.075   2.078
  2.082   2.088   2.106   2.116   2.120   2.269   2.299   2.347
  2.400   2.488   2.556   2.585   2.597   2.630   2.644   2.699
  2.745   2.823   2.864   2.916   3.178   3.269   3.379   3.406
  3.456   3.513   4.198   4.219   4.219   4.240   4.261   4.262
  4.297   4.336   4.379   4.394   4.419   4.475   4.602   5.404
  5.487  89.572  89.831
 
 Beta MOs
 -- Occupied --
*******-453.899 -58.101 -58.094 -52.158 -52.157 -52.154 -52.152
-52.151 -52.148 -10.244 -10.198 -10.196  -7.832  -7.827  -5.775
 -5.775  -5.772  -5.768  -5.764  -5.760  -2.111  -2.110  -2.106
 -2.105  -2.101  -2.101  -2.098  -2.098  -2.095  -2.094  -0.810
 -0.694  -0.674  -0.661  -0.577  -0.478  -0.436  -0.426  -0.387
 -0.379  -0.370  -0.359  -0.319  -0.235  -0.230
 -- Virtual --
 -0.162  -0.084  -0.000   0.032   0.050   0.099   0.120   0.132
  0.156   0.160   0.166   0.184   0.215   0.233   0.255   0.262
  0.287   0.297   0.307   0.333   0.411   0.447   0.453   0.503
  0.523   0.545   0.555   0.558   0.583   0.586   0.587   0.606
  0.648   0.666   0.690   0.709   0.750   0.769   0.805   0.815
  0.859   0.876   0.892   0.910   0.931   1.017   1.021   1.055
  1.124   1.190   1.354   1.427   1.449   1.501   1.540   1.644
  1.721   1.769   1.840   1.887   1.926   1.994   2.026   2.038
  2.075   2.078   2.080   2.095   2.107   2.118   2.126   2.275
  2.299   2.350   2.411   2.502   2.567   2.597   2.598   2.631
  2.645   2.702   2.747   2.824   2.864   2.918   3.179   3.272
  3.383   3.408   3.457   3.518   4.212   4.232   4.233   4.253
  4.264   4.264   4.301   4.339   4.384   4.398   4.429   4.479
  4.605   5.418   5.492  89.577  89.832
 --------------------------------------------------------------
 
          Ground-State Mulliken Net Atomic Charges

     Atom                 Charge (a.u.)    Spin (a.u.)
  --------------------------------------------------------
      1 Se                   -0.115461       1.018654
      2 C                    -0.204658       0.931078
      3 C                    -0.151540      -0.111325
      4 C                    -0.309683       0.007641
      5 Se                   -0.101772       0.259893
      6 H                     0.060127      -0.006451
      7 H                     0.089098      -0.027067
      8 H                     0.120043      -0.041406
      9 H                     0.112984      -0.041430
     10 H                     0.138588       0.011384
     11 H                     0.114144      -0.000926
     12 H                     0.129342       0.001116
     13 H                     0.118788      -0.001160
  --------------------------------------------------------
  Sum of atomic charges =     0.000000
  Sum of spin   charges =     2.000000

 -----------------------------------------------------------------
                    Cartesian Multipole Moments
 -----------------------------------------------------------------
    Charge (ESU x 10^10)
                 0.0000
    Dipole Moment (Debye)
         X      -1.6379      Y      -2.3792      Z       0.3684
       Tot       2.9119
    Quadrupole Moments (Debye-Ang)
        XX     -63.0913     XY      -0.8946     YY     -57.3071
        XZ      -0.5149     YZ      -0.6271     ZZ     -56.7726
    Octopole Moments (Debye-Ang^2)
       XXX    -113.6456    XXY     -11.5952    XYY     -37.3483
       YYY       4.9109    XXZ      -3.6788    XYZ      -4.6907
       YYZ      -9.2856    XZZ     -41.5810    YZZ      -3.8206
       ZZZ     -22.1906
    Hexadecapole Moments (Debye-Ang^3)
      XXXX   -1769.9229   XXXY    -353.4103   XXYY    -415.7934
      XYYY    -332.5565   YYYY    -772.1581   XXXZ     -41.5752
      XXYZ      -9.7816   XYYZ     -29.8809   YYYZ     -14.2266
      XXZZ    -328.8708   XYZZ    -124.7175   YYZZ    -149.6911
      XZZZ     -68.3975   YZZZ     -12.5428   ZZZZ    -118.9839
 -----------------------------------------------------------------
 Calculating analytic gradient of the SCF energy
 Gradient of SCF Energy
            1           2           3           4           5           6
    1  -0.0002015   0.0002778  -0.0000000  -0.0000332   0.0000499   0.0000035
    2  -0.0003813   0.0003775   0.0000978  -0.0000003  -0.0000287   0.0000501
    3  -0.0000724   0.0001124  -0.0000030   0.0000050  -0.0000667  -0.0000629
            7           8           9          10          11          12
    1   0.0000152   0.0000011  -0.0000550   0.0000152  -0.0000294  -0.0000065
    2  -0.0001160  -0.0000396  -0.0000397  -0.0000825   0.0000820   0.0000436
    3  -0.0000209   0.0000354   0.0000137   0.0000152   0.0000059  -0.0000061
           13
    1  -0.0000371
    2   0.0000371
    3   0.0000445
 Max gradient component =       3.813E-04
 RMS gradient           =       1.123E-04
 Gradient time:  CPU 17.58 s  wall 1.55 s
 Geometry Optimization Parameters
   NAtoms,    NIC,     NZ,  NCons,   NDum,   NFix, NCnnct, MaxDiis
       13      90       0       1       0       0       0       0

 Cartesian Hessian Update
 Hessian Updated using BFGS Update


** CONSTRAINED OPTIMIZATION IN DELOCALIZED INTERNAL COORDINATES **
   Searching for a Minimum

   Optimization Cycle:  15

                       Coordinates (Angstroms)
     ATOM                X               Y               Z
      1  Se        3.4606921863    1.3703454436    0.3016931674
      2  C         0.3770749360   -2.0410591146    0.4184266188
      3  C        -0.7672093492   -1.5207028594   -0.3062398223
      4  C        -2.1303512082   -2.0653859759    0.1065162056
      5  Se       -0.7599758067    0.5805173761   -0.0779846668
      6  H        -0.9430796263    0.4980207495    1.3821729000
      7  H         2.1890788107    0.6019974813    0.3093844305
      8  H         1.3729424372   -1.9993998041   -0.0078544359
      9  H         0.2831590534   -2.3176951067    1.4643228124
     10  H        -0.6265591849   -1.5648486932   -1.3893567437
     11  H        -2.2995855328   -1.9346995447    1.1801327285
     12  H        -2.9410743864   -1.5672236139   -0.4293788816
     13  H        -2.1771123291   -3.1392703379   -0.1103363130
   Point Group: c1    Number of degrees of freedom:    33


   Energy is  -4921.640284843

              Constraints and their Current Values
                                        Value     Constraint
   Distance(Angs):        1   2             4.600000     4.600000
 Hessian Updated using BFGS Update

 32 Hessian modes will be used to form the next step
  Hessian Eigenvalues:
     0.001343    0.006184    0.012919    0.040426    0.044066    0.045039
     0.061781    0.068481    0.076354    0.082310    0.084054    0.086382
     0.088342    0.090837    0.103006    0.113756    0.153951    0.158698
     0.160016    0.160085    0.161434    0.171737    0.180798    0.198621
     0.298272    0.340429    0.341070    0.342826    0.345348    0.345940
     0.353341    0.369156

 Minimum Search - Taking Simple RFO Step
 Searching for Lamda that Minimizes Along All modes
 Value Taken    Lamda =   0.00000000
 Step Taken.  Stepsize is  0.008982

                             Maximum     Tolerance    Cnvgd?
         Gradient           0.000065      0.000300     YES
         Displacement       0.003879      0.001200      NO
         Energy change     -0.000001      0.000001     YES


                       Distance Matrix (Angstroms)
             Se(  1)   C (  2)   C (  3)   C (  4)   Se(  5)   H (  6)
   C (  2)  4.600000
   C (  3)  5.157799  1.450965
   C (  4)  6.565220  2.526869  1.524862
   Se(  5)  4.310687  2.900340  2.113594  2.985427
   H (  6)  4.617531  3.019692  2.637596  3.099672  1.473904
   H (  7)  1.485738  3.206399  3.691137  5.080705  2.974465  3.312416
   H (  8)  3.976142  1.084068  2.213241  3.505781  3.348168  3.678756
   H (  9)  5.005004  1.085931  2.207569  2.780707  3.444776  3.072241
   H ( 10)  5.308544  2.121824  1.093103  2.179349  2.517954  3.469437
   H ( 11)  6.698939  2.784963  2.174597  1.094702  3.206177  2.792679
   H ( 12)  7.081412  3.457370  2.177847  1.092072  3.081146  3.396901
   H ( 13)  7.231268  2.830111  2.155450  1.096558  3.980721  4.120717
             H (  7)   H (  8)   H (  9)   H ( 10)   H ( 11)   H ( 12)
   H (  8)  2.744811
   H (  9)  3.673012  1.859098
   H ( 10)  3.938116  2.468884  3.088341
   H ( 11)  5.228876  3.860435  2.626408  3.088379
   H ( 12)  5.618698  4.356053  3.813790  2.505702  1.771179
   H ( 13)  5.765143  3.729973  3.034382  2.553216  1.769548  1.776727

 
 Final energy is   -4921.64028484343     


 ******************************
 **  OPTIMIZATION CONVERGED  **
 ******************************

                       Coordinates (Angstroms)
     ATOM                X               Y               Z
      1  Se        3.4606921863    1.3703454436    0.3016931674
      2  C         0.3770749360   -2.0410591146    0.4184266188
      3  C        -0.7672093492   -1.5207028594   -0.3062398223
      4  C        -2.1303512082   -2.0653859759    0.1065162056
      5  Se       -0.7599758067    0.5805173761   -0.0779846668
      6  H        -0.9430796263    0.4980207495    1.3821729000
      7  H         2.1890788107    0.6019974813    0.3093844305
      8  H         1.3729424372   -1.9993998041   -0.0078544359
      9  H         0.2831590534   -2.3176951067    1.4643228124
     10  H        -0.6265591849   -1.5648486932   -1.3893567437
     11  H        -2.2995855328   -1.9346995447    1.1801327285
     12  H        -2.9410743864   -1.5672236139   -0.4293788816
     13  H        -2.1771123291   -3.1392703379   -0.1103363130

Z-matrix Print:
$molecule
0 3
Se
H  1 1.473904
C  1 2.113594 2 92.918629
H  3 1.093103 1 98.436680 2 -179.652265 0
C  3 1.450965 1 107.451179 2 -63.025855 0
H  5 1.084068 3 120.950723 1 -79.213288 0
H  5 1.085931 3 120.276873 1 89.884400 0
C  3 1.524862 1 109.204310 2 63.829733 0
H  8 1.092072 3 111.584219 1 53.773031 0
H  8 1.094702 3 111.163222 1 -67.090420 0
H  8 1.096558 3 109.536479 1 173.990444 0
H  6 2.744811 5 105.314629 3 77.181825 0
Se 12 1.485738 6 138.074617 5 161.643803 0
$end

PES scan, value:    4.6000 energy: -4921.6402848434
------- Summary of potential scan: ------ 
    4.6000     -4921.6402848434
----------------------------------------- 
Archival summary:
1\1\hpc0248\JobtypUnspecified\ProcedureUnspecified\6-31G**\e238(3)\knomura\ThuMar1409:28:222019ThuMar1409:28:222019\0\\#,JobtypUnspecified,ProcedureUnspecified,6-31G**,\\0,3\Se\H,1,1.4739\C,1,2.11359,2,92.9186\H,3,1.0931,1,98.4367,2,-179.652,0\C,3,1.45096,1,107.451,2,-63.0259,0\H,5,1.08407,3,120.951,1,-79.2133,0\H,5,1.08593,3,120.277,1,89.8844,0\C,3,1.52486,1,109.204,2,63.8297,0\H,8,1.09207,3,111.584,1,53.773,0\H,8,1.0947,3,111.163,1,-67.0904,0\H,8,1.09656,3,109.536,1,173.99,0\H,6,2.74481,5,105.315,3,77.1818,0\Se,12,1.48574,6,138.075,5,161.644,0\\\@

 Total job time:  161.38s(wall), 1898.45s(cpu) 
 Thu Mar 14 09:28:22 2019

        *************************************************************
        *                                                           *
        *  Thank you very much for using Q-Chem.  Have a nice day.  *
        *                                                           *
        *************************************************************


