
Running Job 1 of 1 selenium/03/C-Se.xyz.data/inputs/bond_triplet_2.7.in
qchem selenium/03/C-Se.xyz.data/inputs/bond_triplet_2.7.in_14300.0 /staging/scratch/2868765/qchem14300/ 1
/usr/usc/qchem/5.1.1/exe/qcprog.exe_s selenium/03/C-Se.xyz.data/inputs/bond_triplet_2.7.in_14300.0 /staging/scratch/2868765/qchem14300/
Check license passed

                  Welcome to Q-Chem
     A Quantum Leap Into The Future Of Chemistry


 Q-Chem 5.1, Q-Chem, Inc., Pleasanton, CA (2018)

 Yihan Shao,  Zhengting Gan,  E. Epifanovsky,  A. T. B. Gilbert,  M. Wormit,  
 J. Kussmann,  A. W. Lange,  A. Behn,  Jia Deng,  Xintian Feng,  D. Ghosh,  
 M. Goldey,  P. R. Horn,  L. D. Jacobson,  I. Kaliman,  T. Kus,  A. Landau,  
 Jie Liu,  E. I. Proynov,  R. M. Richard,  R. P. Steele,  E. J. Sundstrom,  
 H. L. Woodcock III,  P. M. Zimmerman,  D. Zuev,  B. Albrecht,  E. Alguire,  
 S. A. Baeppler,  D. Barton,  Z. Benda,  Y. A. Bernard,  E. J. Berquist,  
 K. B. Bravaya,  H. Burton,  D. Casanova,  Chun-Min Chang,  Yunqing Chen,  
 A. Chien,  K. D. Closser,  M. P. Coons,  S. Coriani,  S. Dasgupta,  
 A. L. Dempwolff,  M. Diedenhofen,  Hainam Do,  R. G. Edgar,  Po-Tung Fang,  
 S. Faraji,  S. Fatehi,  Qingguo Feng,  K. D. Fenk,  J. Fosso-Tande,  
 Qinghui Ge,  A. Ghysels,  G. Gidofalvi,  J. Gomes,  J. Gonthier,  A. Gunina,  
 D. Hait,  M. W. D. Hanson-Heine,  P. H. P. Harbach,  A. W. Hauser,  
 J. E. Herr,  E. G. Hohenstein,  Z. C. Holden,  Kerwin Hui,  B. C. Huynh,  
 T.-C. Jagau,  Hyunjun Ji,  B. Kaduk,  K. Khistyaev,  Jaehoon Kim,  
 P. Klunzinger,  K. Koh,  D. Kosenkov,  L. Koulias,  T. Kowalczyk,  
 C. M. Krauter,  A. Kunitsa,  Ka Un Lao,  A. Laurent,  K. V. Lawler,  
 Joonho Lee,  D. Lefrancois,  S. Lehtola,  D. S. Levine,  Yi-Pei Li,  
 You-Sheng Lin,  Fenglai Liu,  E. Livshits,  A. Luenser,  P. Manohar,  
 E. Mansoor,  S. F. Manzer,  Shan-Ping Mao,  Yuezhi Mao,  N. Mardirossian,  
 A. V. Marenich,  T. Markovich,  L. A. Martinez-Martinez,  S. A. Maurer,  
 N. J. Mayhall,  S. C. McKenzie,  J.-M. Mewes,  A. F. Morrison,  
 J. W. Mullinax,  K. Nanda,  T. S. Nguyen-Beck,  R. Olivares-Amaya,  
 J. A. Parkhill,  T. M. Perrine,  F. Plasser,  P. Pokhilko,  S. Prager,  
 A. Prociuk,  E. Ramos,  D. R. Rehn,  F. Rob,  M. Schneider,  N. Sergueev,  
 S. M. Sharada,  S. Sharma,  D. W. Small,  T. Stauch,  T. Stein,  
 Yu-Chuan Su,  A. J. W. Thom,  A. Tkatchenko,  T. Tsuchimochi,  N. M. Tubman,  
 L. Vogt,  M. L. Vidal,  O. Vydrov,  M. A. Watson,  J. Wenzel,  
 M. de Wergifosse,  T. A. Wesolowski,  A. White,  J. Witte,  A. Yamada,  
 Jun Yang,  K. Yao,  S. Yeganeh,  S. R. Yost,  Zhi-Qiang You,  A. Zech,  
 Igor Ying Zhang,  Xing Zhang,  Yan Zhao,  Ying Zhu,  B. R. Brooks,  
 G. K. L. Chan,  C. J. Cramer,  M. S. Gordon,  W. J. Hehre,  A. Klamt,  
 M. W. Schmidt,  C. D. Sherrill,  D. G. Truhlar,  A. Aspuru-Guzik,  R. Baer,  
 A. T. Bell,  N. A. Besley,  Jeng-Da Chai,  A. E. DePrince, III,  
 R. A. DiStasio Jr.,  A. Dreuw,  B. D. Dunietz,  T. R. Furlani,  
 Chao-Ping Hsu,  Yousung Jung,  Jing Kong,  D. S. Lambrecht,  WanZhen Liang,  
 C. Ochsenfeld,  V. A. Rassolov,  L. V. Slipchenko,  J. E. Subotnik,  
 T. Van Voorhis,  J. M. Herbert,  A. I. Krylov,  P. M. W. Gill,  M. Head-Gordon

 Contributors to earlier versions of Q-Chem not listed above: 
 R. D. Adamson,  B. Austin,  J. Baker,  G. J. O. Beran,  K. Brandhorst,  
 S. T. Brown,  E. F. C. Byrd,  A. K. Chakraborty,  C.-L. Cheng,  
 Siu Hung Chien,  D. M. Chipman,  D. L. Crittenden,  H. Dachsel,  
 R. J. Doerksen,  A. D. Dutoi,  L. Fusti-Molnar,  W. A. Goddard III,  
 A. Golubeva-Zadorozhnaya,  S. R. Gwaltney,  G. Hawkins,  A. Heyden,  
 S. Hirata,  G. Kedziora,  F. J. Keil,  C. Kelley,  Jihan Kim,  R. A. King,  
 R. Z. Khaliullin,  P. P. Korambath,  W. Kurlancheek,  A. M. Lee,  M. S. Lee,  
 S. V. Levchenko,  Ching Yeh Lin,  D. Liotard,  R. C. Lochan,  I. Lotan,  
 P. E. Maslen,  N. Nair,  D. P. O'Neill,  D. Neuhauser,  E. Neuscamman,  
 C. M. Oana,  R. Olson,  B. Peters,  R. Peverati,  P. A. Pieniazek,  
 Y. M. Rhee,  J. Ritchie,  M. A. Rohrdanz,  E. Rosta,  N. J. Russ,  
 H. F. Schaefer III,  N. E. Schultz,  N. Shenvi,  A. C. Simmonett,  A. Sodt,  
 D. Stuck,  K. S. Thanthiriwatte,  V. Vanovschi,  Tao Wang,  A. Warshel,  
 C. F. Williams,  Q. Wu,  X. Xu,  W. Zhang

 Please cite Q-Chem as follows:
 Y. Shao et al., Mol. Phys. 113, 184-215 (2015)
 DOI: 10.1080/00268976.2014.952696

 Q-Chem 5.1.1 for Intel X86 EM64T Linux

 Parts of Q-Chem use Armadillo 8.300.2 (Tropical Shenanigans).
 http://arma.sourceforge.net/

 Q-Chem begins on Thu Mar 14 10:27:06 2019  

Host: 
0

     Scratch files written to /staging/scratch/2868765/qchem14300//
 Aug318 |scratch|qcdevops|jenkins|workspace|build_RNUM 6013   
Processing $rem in /usr/usc/qchem/5.1.1/config/preferences.
 MEM_TOTAL  2000 
Input Ideriv = 2
Curr. Ideriv = -1
Max.  Ideriv = 2

Checking the input file for inconsistencies... 	...done.

--------------------------------------------------------------
User input:
--------------------------------------------------------------

$comment
potential surface scanner
$end

$rem
JOBTYPE  PES_SCAN
UNRESTRICTED TRUE
SYM_IGNORE  TRUE
GEOM_OPT_MAX_CYCLES 400
SCF_MAX_CYCLES 400
METHOD   B3LYP
BASIS   6-31G**
PDB_PRINT 2
SCF_CONVERGENCE 6
THRESH 14
SCF_PRINT 1
$end
$molecule
0 3
Se 1.600471 0.150294 1.108124
C 0.515040 -2.105965 -0.145329
C -0.775317 -1.940241 -0.455202
C -1.931691 -2.309819 0.427868
Se -0.185505 2.086757 0.150247
H -0.931822 0.905816 -0.332514
H 2.388390 1.306373 1.624788
H 1.303480 -1.878671 -0.854903
H 0.816837 -2.578134 0.785703
H -1.029909 -1.511168 -1.425489
H -1.591293 -2.729179 1.378927
H -2.568524 -1.442824 0.643165
H -2.572157 -3.052640 -0.063883
$end
$scan
stre 1 2 2.700000 2.701000 0.100000
$end
--------------------------------------------------------------
 ----------------------------------------------------------------
             Standard Nuclear Orientation (Angstroms)
    I     Atom           X                Y                Z
 ----------------------------------------------------------------
    1      Se      1.6004710000     0.1502940000     1.1081240000
    2      C       0.5150400000    -2.1059650000    -0.1453290000
    3      C      -0.7753170000    -1.9402410000    -0.4552020000
    4      C      -1.9316910000    -2.3098190000     0.4278680000
    5      Se     -0.1855050000     2.0867570000     0.1502470000
    6      H      -0.9318220000     0.9058160000    -0.3325140000
    7      H       2.3883900000     1.3063730000     1.6247880000
    8      H       1.3034800000    -1.8786710000    -0.8549030000
    9      H       0.8168370000    -2.5781340000     0.7857030000
   10      H      -1.0299090000    -1.5111680000    -1.4254890000
   11      H      -1.5912930000    -2.7291790000     1.3789270000
   12      H      -2.5685240000    -1.4428240000     0.6431650000
   13      H      -2.5721570000    -3.0526400000    -0.0638830000
 ----------------------------------------------------------------
 Nuclear Repulsion Energy =   551.5553488213 hartrees
 There are       48 alpha and       46 beta electrons
 Requested basis set is 6-31G(d,p)
 There are 52 shells and 155 basis functions

 Total QAlloc Memory Limit   2000 MB
 Mega-Array Size       188 MB
 MEM_STATIC part       192 MB
A total of 1 constraints
  
            1
    1   1.0100000
    2   1.0100000
    3   2.0100000
    4   2.7000000
    5   2.7010000
    6   0.1000000
    7   0.0000000
    8   0.0000000
    9   0.0000000
   10   0.0000000

                       Distance Matrix (Angstroms)
             Se(  1)   C (  2)   C (  3)   C (  4)   Se(  5)   H (  6)
   C (  2)  2.800002
   C (  3)  3.529687  1.337351
   C (  4)  4.357875  2.521231  1.501200
   Se(  5)  2.803057  4.261109  4.114749  4.738789
   H (  6)  3.009777  3.346531  2.852996  3.452279  1.478063
   H (  7)  1.491401  4.276307  4.987575  5.759563  3.067280  3.874956
   H (  8)  2.838728  1.084802  2.117770  3.506811  4.353392  3.608716
   H (  9)  2.856984  1.086667  2.117004  2.784680  4.813492  4.055382
   H ( 10)  4.012300  2.092716  1.091044  2.210427  4.017590  2.654435
   H ( 11)  4.307210  2.673647  2.156912  1.093731  5.165185  4.071501
   H ( 12)  4.487174  3.251130  2.160885  1.097082  4.287154  3.024376
   H ( 13)  5.389175  3.230110  2.149232  1.097178  5.670570  4.293278
             H (  7)   H (  8)   H (  9)   H ( 10)   H ( 11)   H ( 12)
   H (  8)  4.179761
   H (  9)  4.273551  1.848691
   H ( 10)  5.378429  2.430089  3.072175
   H ( 11)  5.673095  3.754074  2.484717  3.108609
   H ( 12)  5.752622  4.174516  3.573502  2.579018  1.775116
   H ( 13)  6.816130  4.126073  3.525937  2.570727  1.774379  1.758248

 
 A cutoff of  1.0D-14 yielded   1183 shell pairs
 There are     10500 function pairs
 
 -------------------------------------------------------
 OpenMP Integral Computing Module                       
 Release: version 1.0, May 2013, Q-Chem Inc. Pittsburgh 
 -------------------------------------------------------
 Integral Job Info:
 Integral job number is                      11
 Integral operator is                         1
 short-range coefficients                     0
 long-range coefficients              100000000
 Omega coefficients                           0
 if combine SR and LR in K                    0
 Integral screening is                        0
 Integral computing path is                   2
 max size of driver memory is            800000
 size of driver memory is                593474
 size of scratch memory is             15267112
 max col of scratch BK array               1296
 max len of scratch array in speh3          155
 max len of scratch index in speh4           18
 max int batch size is                      520
 min int batch size is                       52
 fixed nKL is                                52
 max L of basis functions is                  2
 order of int derivative is                   0
 number of shells is                         52
 number of basis is                         155
 number of cartesian basis is               155
 number of contracted shell pairs          1183
 number of primitive shell pairs           4608
 maxK2 (contraction) of shell pair           36
 max number of K2 of shell pair               1
 max number of CS2 of shell pair             90
 max number of PS2 of shell pair            414
 mem total for path MDJ                  532188
 -------------------------------------------------------
 Smallest overlap matrix eigenvalue = 6.74E-04

 Scale SEOQF with 1.000000e-01/1.000000e-01/1.000000e-01

 Standard Electronic Orientation quadrupole field applied
 Nucleus-field energy     =     0.0000000182 hartrees
 Guess from superposition of atomic densities
 Warning:  Energy on first SCF cycle will be non-variational
 SAD guess density has 93.936381 electrons

 -----------------------------------------------------------------------
  General SCF calculation program by
  Eric Jon Sundstrom, Paul Horn, Yuezhi Mao, Dmitri Zuev, Alec White,
  David Stuck, Shaama M.S., Shane Yost, Joonho Lee, David Small,
  Daniel Levine, Susi Lehtola, Hugh Burton, Evgeny Epifanovsky
 -----------------------------------------------------------------------
 Exchange:     0.2000 Hartree-Fock + 0.0800 Slater + 0.7200 B88
 Correlation:  0.1900 VWN1RPA + 0.8100 LYP
 Using SG-1 standard quadrature grid
 using 12 threads for integral computing
 -------------------------------------------------------
 OpenMP Integral computing Module                
 Release: version 1.0, May 2013, Q-Chem Inc. Pittsburgh 
 -------------------------------------------------------
 -------------------------------------------------------
 OpenMP BLAS3 based DFT computing Module                
 Release: version 1.0, May 2013, Q-Chem Inc. Pittsburgh 
 -------------------------------------------------------
 A unrestricted SCF calculation will be
 performed using DIIS
 SCF converges when DIIS error is below 1.0e-06
 Alpha HF Exchange    Energy = -18.84382728280428
 Beta HF Exchange     Energy = -18.84382728280428
 DFT Correlation      Energy =  -5.12685217368954
 DFT Exchange         Energy = -149.85562447535921
 One-Electron (alpha) Energy = -3969.07803486658213
 One-Electron (beta)  Energy = -3969.07803486658213
 Total Coulomb        Energy = 2651.59262689588786
 ---------------------------------------
  Cycle       Energy         DIIS error
 ---------------------------------------
    1   -4927.6782252125      1.50e-01  
 Alpha HF Exchange    Energy = -19.07217034338721
 Beta HF Exchange     Energy = -18.86292283035864
 DFT Correlation      Energy =  -5.17876223456284
 DFT Exchange         Energy = -151.04810766951226
 One-Electron (alpha) Energy = -4007.05611929522411
 One-Electron (beta)  Energy = -3951.38376961813583
 Total Coulomb        Energy = 2679.53564924110287
    2   -4921.5108539106      9.38e-03  
 Alpha HF Exchange    Energy = -18.92733326958031
 Beta HF Exchange     Energy = -18.73449604017996
 DFT Correlation      Energy =  -5.13356983079180
 DFT Exchange         Energy = -149.93808224109733
 One-Electron (alpha) Energy = -3991.91716320566911
 One-Electron (beta)  Energy = -3937.86467212892467
 Total Coulomb        Energy = 2649.44459107418243
    3   -4921.5153768026      3.75e-03  
 Alpha HF Exchange    Energy = -19.04619214832191
 Beta HF Exchange     Energy = -18.84263036902446
 DFT Correlation      Energy =  -5.16935313417597
 DFT Exchange         Energy = -150.84325700128824
 One-Electron (alpha) Energy = -4004.35719502171332
 One-Electron (beta)  Energy = -3948.83705636977174
 Total Coulomb        Energy = 2673.96274255178923
    4   -4921.5775926530      2.75e-03  
 Alpha HF Exchange    Energy = -19.00450695832045
 Beta HF Exchange     Energy = -18.80530720741667
 DFT Correlation      Energy =  -5.15626229262393
 DFT Exchange         Energy = -150.52436300196956
 One-Electron (alpha) Energy = -4000.09357766235917
 One-Electron (beta)  Energy = -3944.72827409853426
 Total Coulomb        Energy = 2665.12418258153093
    5   -4921.6327598002      1.16e-03  
 Alpha HF Exchange    Energy = -19.00149247166541
 Beta HF Exchange     Energy = -18.80014629727003
 DFT Correlation      Energy =  -5.15606025409796
 DFT Exchange         Energy = -150.49678580359932
 One-Electron (alpha) Energy = -3999.90196555671628
 One-Electron (beta)  Energy = -3944.65715935520029
 Total Coulomb        Energy = 2664.80121335387594
    6   -4921.6570475452      1.97e-04  
 Alpha HF Exchange    Energy = -19.00025878784017
 Beta HF Exchange     Energy = -18.79911109188597
 DFT Correlation      Energy =  -5.15571251477441
 DFT Exchange         Energy = -150.48760851872100
 One-Electron (alpha) Energy = -3999.75176046878414
 One-Electron (beta)  Energy = -3944.48031064916540
 Total Coulomb        Energy = 2664.46176959026570
    7   -4921.6576436014      9.07e-05  
 Alpha HF Exchange    Energy = -19.00019438249311
 Beta HF Exchange     Energy = -18.79903876046904
 DFT Correlation      Energy =  -5.15565304637870
 DFT Exchange         Energy = -150.48700679333439
 One-Electron (alpha) Energy = -3999.73799346916121
 One-Electron (beta)  Energy = -3944.46345988377925
 Total Coulomb        Energy = 2664.43023988136929
    8   -4921.6577576148      1.88e-05  
 Alpha HF Exchange    Energy = -19.00034307841873
 Beta HF Exchange     Energy = -18.79911536914684
 DFT Correlation      Energy =  -5.15564886785225
 DFT Exchange         Energy = -150.48782263853971
 One-Electron (alpha) Energy = -3999.76250275357916
 One-Electron (beta)  Energy = -3944.47379894377718
 Total Coulomb        Energy = 2664.46612025482455
    9   -4921.6577625570      6.08e-06  
 Alpha HF Exchange    Energy = -19.00037379988695
 Beta HF Exchange     Energy = -18.79912524859050
 DFT Correlation      Energy =  -5.15566916069365
 DFT Exchange         Energy = -150.48800479630131
 One-Electron (alpha) Energy = -3999.76747209141968
 One-Electron (beta)  Energy = -3944.47221336750817
 Total Coulomb        Energy = 2664.46974650833045
   10   -4921.6577631166      1.68e-06  
 Alpha HF Exchange    Energy = -19.00037841977325
 Beta HF Exchange     Energy = -18.79912180423178
 DFT Correlation      Energy =  -5.15566577461810
 DFT Exchange         Energy = -150.48799720495677
 One-Electron (alpha) Energy = -3999.76929305329395
 One-Electron (beta)  Energy = -3944.46995121763757
 Total Coulomb        Energy = 2664.46929541320878
   11   -4921.6577632218      6.66e-07  Convergence criterion met
 ---------------------------------------
 SCF time:   CPU 52.33s  wall 4.00s 
<S^2> =          2.005756456
 Alpha HF Exchange    Energy = -19.00037841977325
 Beta HF Exchange     Energy = -18.79912180423178
 DFT Correlation      Energy =  -5.15566577461810
 DFT Exchange         Energy = -150.48799720495677
 One-Electron (alpha) Energy = -3999.76929305329395
 One-Electron (beta)  Energy = -3944.46995121763757
 Total Coulomb        Energy = 2664.46929541320878
 Nuclear repulsion Energy = 551.55534883947621
 SCF   energy in the final basis set =    -4921.6577632218
 Total energy in the final basis set =    -4921.6577632218
 
 --------------------------------------------------------------
 
                    Orbital Energies (a.u.)
 --------------------------------------------------------------
 
 Alpha MOs
 -- Occupied --
*******-453.912 -58.108 -58.107 -52.164 -52.164 -52.164 -52.163
-52.163 -52.163 -10.201 -10.190 -10.186  -7.842  -7.841  -5.783
 -5.782  -5.781  -5.780  -5.780  -5.780  -2.116  -2.115  -2.115
 -2.114  -2.114  -2.114  -2.112  -2.112  -2.111  -2.111  -0.794
 -0.725  -0.695  -0.682  -0.564  -0.475  -0.430  -0.421  -0.397
 -0.379  -0.374  -0.355  -0.325  -0.290  -0.259  -0.252  -0.193
 -- Virtual --
 -0.006   0.014   0.075   0.101   0.126   0.135   0.158   0.169
  0.176   0.179   0.223   0.257   0.261   0.267   0.297   0.312
  0.327   0.336   0.369   0.458   0.468   0.482   0.487   0.511
  0.520   0.535   0.553   0.587   0.601   0.615   0.620   0.636
  0.665   0.694   0.735   0.807   0.821   0.830   0.839   0.859
  0.882   0.887   0.921   0.942   1.045   1.068   1.215   1.231
  1.304   1.322   1.393   1.486   1.518   1.608   1.623   1.801
  1.813   1.883   1.951   2.014   2.037   2.069   2.072   2.079
  2.087   2.097   2.113   2.119   2.196   2.286   2.356   2.370
  2.460   2.497   2.547   2.612   2.623   2.646   2.657   2.686
  2.830   2.852   2.861   3.005   3.170   3.266   3.420   3.423
  3.461   3.656   4.165   4.174   4.191   4.210   4.241   4.264
  4.277   4.298   4.334   4.377   4.457   4.521   4.627   5.393
  5.466  89.514  89.787
 
 Beta MOs
 -- Occupied --
*******-453.910 -58.106 -58.105 -52.163 -52.162 -52.161 -52.161
-52.160 -52.160 -10.201 -10.190 -10.186  -7.838  -7.837  -5.782
 -5.780  -5.775  -5.774  -5.774  -5.774  -2.114  -2.113  -2.112
 -2.111  -2.111  -2.110  -2.106  -2.106  -2.106  -2.106  -0.793
 -0.698  -0.688  -0.648  -0.563  -0.474  -0.429  -0.420  -0.388
 -0.378  -0.364  -0.354  -0.282  -0.258  -0.240
 -- Virtual --
 -0.164  -0.103  -0.004   0.022   0.082   0.102   0.126   0.137
  0.162   0.170   0.180   0.182   0.238   0.262   0.270   0.278
  0.314   0.329   0.339   0.346   0.378   0.471   0.496   0.500
  0.519   0.529   0.539   0.548   0.559   0.596   0.609   0.627
  0.643   0.662   0.676   0.695   0.737   0.812   0.827   0.837
  0.850   0.865   0.882   0.893   0.921   0.943   1.049   1.070
  1.215   1.236   1.305   1.323   1.394   1.487   1.532   1.612
  1.636   1.801   1.813   1.883   1.951   2.014   2.037   2.068
  2.071   2.079   2.085   2.096   2.113   2.119   2.196   2.287
  2.356   2.370   2.460   2.497   2.547   2.613   2.624   2.646
  2.657   2.686   2.830   2.852   2.861   3.005   3.170   3.266
  3.420   3.424   3.461   3.656   4.178   4.187   4.193   4.219
  4.250   4.274   4.290   4.306   4.339   4.384   4.466   4.526
  4.628   5.409   5.482  89.520  89.793
 --------------------------------------------------------------
 
          Ground-State Mulliken Net Atomic Charges

     Atom                 Charge (a.u.)    Spin (a.u.)
  --------------------------------------------------------
      1 Se                   -0.060838       1.048157
      2 C                    -0.262197       0.003349
      3 C                    -0.032550      -0.002304
      4 C                    -0.349629       0.000393
      5 Se                   -0.098773       1.008325
      6 H                     0.072615      -0.027392
      7 H                     0.042178      -0.030136
      8 H                     0.121734      -0.000027
      9 H                     0.116831      -0.000618
     10 H                     0.091803       0.000309
     11 H                     0.116792      -0.000041
     12 H                     0.119762       0.000115
     13 H                     0.122273      -0.000128
  --------------------------------------------------------
  Sum of atomic charges =    -0.000000
  Sum of spin   charges =     2.000000

 -----------------------------------------------------------------
                    Cartesian Multipole Moments
 -----------------------------------------------------------------
    Charge (ESU x 10^10)
                 0.0000
    Dipole Moment (Debye)
         X      -0.5347      Y      -1.0806      Z      -0.2073
       Tot       1.2233
    Quadrupole Moments (Debye-Ang)
        XX     -55.6584     XY       3.3002     YY     -59.0197
        XZ       1.0603     YZ       0.5899     ZZ     -57.9077
    Octopole Moments (Debye-Ang^2)
       XXX     -36.5124    XXY      -0.4532    XYY      -7.7412
       YYY      -4.1203    XXZ     -22.7814    XYZ       4.0365
       YYZ     -16.4537    XZZ     -10.6729    YZZ      -0.8907
       ZZZ     -72.2708
    Hexadecapole Moments (Debye-Ang^3)
      XXXX    -607.8605   XXXY     -81.8463   XXYY    -275.5714
      XYYY     -77.3421   YYYY   -1138.1483   XXXZ     -86.0634
      XXYZ       2.0758   XYYZ     -23.0171   YYYZ     -31.6880
      XXZZ    -142.0699   XYZZ     -27.1046   YYZZ    -226.7248
      XZZZ     -89.4907   YZZZ     -24.6905   ZZZZ    -261.6854
 -----------------------------------------------------------------
 Calculating analytic gradient of the SCF energy
 Gradient of SCF Energy
            1           2           3           4           5           6
    1  -0.0061725   0.0062852  -0.0000278  -0.0001111  -0.0000250   0.0000253
    2  -0.0129391   0.0128244   0.0000285  -0.0000469   0.0000081   0.0000825
    3  -0.0072612   0.0073742  -0.0000392  -0.0000525   0.0000776  -0.0000096
            7           8           9          10          11          12
    1  -0.0000356   0.0000774  -0.0000019  -0.0000159   0.0000381  -0.0000830
    2   0.0000057  -0.0000033  -0.0000019   0.0000963  -0.0001276   0.0000229
    3   0.0000972  -0.0000300   0.0000296  -0.0000242  -0.0000451  -0.0000683
           13
    1   0.0000467
    2   0.0000503
    3  -0.0000485
 Max gradient component =       1.294E-02
 RMS gradient           =       3.640E-03
 Gradient time:  CPU 17.79 s  wall 1.57 s
 Geometry Optimization Parameters
   NAtoms,    NIC,     NZ,  NCons,   NDum,   NFix, NCnnct, MaxDiis
       13     129       0       1       0       0       0       0


** CONSTRAINED OPTIMIZATION IN DELOCALIZED INTERNAL COORDINATES **
   Searching for a Minimum

   Optimization Cycle:   1

                       Coordinates (Angstroms)
     ATOM                X               Y               Z
      1  Se        1.6004710000    0.1502940000    1.1081240000
      2  C         0.5150400000   -2.1059650000   -0.1453290000
      3  C        -0.7753170000   -1.9402410000   -0.4552020000
      4  C        -1.9316910000   -2.3098190000    0.4278680000
      5  Se       -0.1855050000    2.0867570000    0.1502470000
      6  H        -0.9318220000    0.9058160000   -0.3325140000
      7  H         2.3883900000    1.3063730000    1.6247880000
      8  H         1.3034800000   -1.8786710000   -0.8549030000
      9  H         0.8168370000   -2.5781340000    0.7857030000
     10  H        -1.0299090000   -1.5111680000   -1.4254890000
     11  H        -1.5912930000   -2.7291790000    1.3789270000
     12  H        -2.5685240000   -1.4428240000    0.6431650000
     13  H        -2.5721570000   -3.0526400000   -0.0638830000
   Point Group: c1    Number of degrees of freedom:    33


   Energy is  -4921.657763222

              Constraints and their Current Values
                                        Value     Constraint
   Distance(Angs):        1   2             2.800002     2.700000

 Attempting to Generate Delocalized Internal Coordinates

   Using Lagrange Multiplier Algorithm


 34 Hessian modes will be used to form the next step
  Hessian Eigenvalues:
    -0.983941    0.021339    0.045000    0.046528    0.047512    0.051756
     0.053392    0.055330    0.057818    0.065728    0.078423    0.080866
     0.082009    0.083192    0.087751    0.093066    0.097788    0.119673
     0.125844    0.143785    0.160000    0.160000    0.160000    0.172461
     0.177538    0.306601    0.311786    0.313928    0.322517    0.339962
     0.340069    0.343850    0.553319    1.016322

 Minimum Search - Taking P-RFO Step
 Searching for Lamda that Maximizes Along the Constraint modes Only
 Value Taken    Lamda =   0.02119464
 Searching for Lamda that Minimizes Along All other modes
 Value Taken    Lamda =  -0.01423202
 Step Taken.  Stepsize is  0.185642

                             Maximum     Tolerance    Cnvgd?
         Gradient            0.188976       0.000300      NO
         Displacement        0.185609       0.001200      NO
         Energy change     *********       0.000001      NO


 New Cartesian Coordinates Obtained by Inverse Iteration

 Displacement from previous Coordinates is:  0.236576
 ----------------------------------------------------------------
             Standard Nuclear Orientation (Angstroms)
    I     Atom           X                Y                Z
 ----------------------------------------------------------------
    1      Se      1.5552682290     0.0963838230     1.0827553919
    2      C       0.5323980174    -2.0881817257    -0.1342219546
    3      C      -0.7608277148    -1.9229352706    -0.4487412287
    4      C      -1.9170240228    -2.2942674143     0.4336567617
    5      Se     -0.1986860289     2.0800999111     0.1500986155
    6      H      -0.9385795450     0.9134388898    -0.3317167246
    7      H       2.3355828039     1.2556218556     1.6037074353
    8      H       1.3158912177    -1.8784403673    -0.8589024631
    9      H       0.8181746291    -2.5851672145     0.7925225987
   10      H      -1.0161473797    -1.4970938463    -1.4231431387
   11      H      -1.5767629011    -2.7094828218     1.3864863093
   12      H      -2.5567646900    -1.4287493388     0.6457933682
   13      H      -2.5545226147    -3.0406274800    -0.0567929709
 ----------------------------------------------------------------
 Nuclear Repulsion Energy =   555.3772394123 hartrees
 There are       48 alpha and       46 beta electrons

                       Distance Matrix (Angstroms)
             Se(  1)   C (  2)   C (  3)   C (  4)   Se(  5)   H (  6)
   C (  2)  2.701782
   C (  3)  3.433283  1.341142
   C (  4)  4.265367  2.522821  1.501101
   Se(  5)  2.807371  4.241450  4.086429  4.708310
   H (  6)  2.981206  3.348508  2.844347  3.439844  1.463108
   H (  7)  1.491347  4.177666  4.889124  5.661749  3.035665  3.818782
   H (  8)  2.779796  1.087665  2.117303  3.506474  4.356842  3.627003
   H (  9)  2.796115  1.089733  2.114837  2.773936  4.817824  4.073125
   H ( 10)  3.928215  2.099689  1.093612  2.212413  3.992449  2.647243
   H ( 11)  4.216012  2.673411  2.156958  1.093648  5.134964  4.060180
   H ( 12)  4.407469  3.253644  2.160466  1.096992  4.256556  3.009966
   H ( 13)  5.294317  3.231444  2.149465  1.097269  5.640445  4.280362
             H (  7)   H (  8)   H (  9)   H ( 10)   H ( 11)   H ( 12)
   H (  8)  4.114191
   H (  9)  4.208588  1.863971
   H ( 10)  5.288985  2.429444  3.075356
   H ( 11)  5.574557  3.754977  2.470622  3.110980
   H ( 12)  5.662024  4.178971  3.570581  2.580440  1.774629
   H ( 13)  6.717749  4.119971  3.507687  2.572160  1.774465  1.758347

 
 Applying Cartesian multipole field
    Component          Value
    ---------          -----
     (2,0,0)        1.00000E-11
     (0,2,0)        2.00000E-11
     (0,0,2)       -3.00000E-11
 Nucleus-field energy     =     0.0000000180 hartrees
 Requested basis set is 6-31G(d,p)
 There are 52 shells and 155 basis functions
 A cutoff of  1.0D-14 yielded   1187 shell pairs
 There are     10526 function pairs
 Smallest overlap matrix eigenvalue = 6.74E-04
 Guess from superposition of atomic densities
 Warning:  Energy on first SCF cycle will be non-variational
 SAD guess density has 93.936381 electrons

 -----------------------------------------------------------------------
  General SCF calculation program by
  Eric Jon Sundstrom, Paul Horn, Yuezhi Mao, Dmitri Zuev, Alec White,
  David Stuck, Shaama M.S., Shane Yost, Joonho Lee, David Small,
  Daniel Levine, Susi Lehtola, Hugh Burton, Evgeny Epifanovsky
 -----------------------------------------------------------------------
 Exchange:     0.2000 Hartree-Fock + 0.0800 Slater + 0.7200 B88
 Correlation:  0.1900 VWN1RPA + 0.8100 LYP
 Using SG-1 standard quadrature grid
 using 12 threads for integral computing
 -------------------------------------------------------
 OpenMP Integral computing Module                
 Release: version 1.0, May 2013, Q-Chem Inc. Pittsburgh 
 -------------------------------------------------------
 -------------------------------------------------------
 OpenMP BLAS3 based DFT computing Module                
 Release: version 1.0, May 2013, Q-Chem Inc. Pittsburgh 
 -------------------------------------------------------
 A unrestricted SCF calculation will be
 performed using DIIS
 SCF converges when DIIS error is below 1.0e-06
 Alpha HF Exchange    Energy = -18.84521169323001
 Beta HF Exchange     Energy = -18.84521169323001
 DFT Correlation      Energy =  -5.12792312006342
 DFT Exchange         Energy = -149.85821053742401
 One-Electron (alpha) Energy = -3972.89782520612607
 One-Electron (beta)  Energy = -3972.89782520612607
 Total Coulomb        Energy = 2655.39849858336493
 ---------------------------------------
  Cycle       Energy         DIIS error
 ---------------------------------------
    1   -4927.6964694426      1.50e-01  
 Alpha HF Exchange    Energy = -19.07225643263201
 Beta HF Exchange     Energy = -18.86273846281081
 DFT Correlation      Energy =  -5.17961254233536
 DFT Exchange         Energy = -151.04898516680601
 One-Electron (alpha) Energy = -4010.94094862498241
 One-Electron (beta)  Energy = -3955.20955333894153
 Total Coulomb        Energy = 2683.42843589366294
    2   -4921.5084192446      9.38e-03  
 Alpha HF Exchange    Energy = -18.92775728630876
 Beta HF Exchange     Energy = -18.73462706314627
 DFT Correlation      Energy =  -5.13461977410828
 DFT Exchange         Energy = -149.94137428801963
 One-Electron (alpha) Energy = -3995.77664115927791
 One-Electron (beta)  Energy = -3941.67459768403751
 Total Coulomb        Energy = 2653.29958670970655
    3   -4921.5127911149      3.74e-03  
 Alpha HF Exchange    Energy = -19.04653008637405
 Beta HF Exchange     Energy = -18.84266787746237
 DFT Correlation      Energy =  -5.17041133778778
 DFT Exchange         Energy = -150.84616153811018
 One-Electron (alpha) Energy = -4008.25524198469520
 One-Electron (beta)  Energy = -3952.65763179880651
 Total Coulomb        Energy = 2677.86728429348841
    4   -4921.5741208995      2.75e-03  
 Alpha HF Exchange    Energy = -19.00470296475443
 Beta HF Exchange     Energy = -18.80515706308277
 DFT Correlation      Energy =  -5.15715448444676
 DFT Exchange         Energy = -150.52561407102996
 One-Electron (alpha) Energy = -4003.95475903047964
 One-Electron (beta)  Energy = -3948.50588746363974
 Total Coulomb        Energy = 2668.94529115312662
    5   -4921.6307444941      1.13e-03  
 Alpha HF Exchange    Energy = -19.00180362604420
 Beta HF Exchange     Energy = -18.80027082427568
 DFT Correlation      Energy =  -5.15701761263000
 DFT Exchange         Energy = -150.49945860204326
 One-Electron (alpha) Energy = -4003.78548533430967
 One-Electron (beta)  Energy = -3948.47308869183871
 Total Coulomb        Energy = 2668.68657181691060
    6   -4921.6533134440      2.09e-04  
 Alpha HF Exchange    Energy = -19.00053489188952
 Beta HF Exchange     Energy = -18.79922694772948
 DFT Correlation      Energy =  -5.15667689321653
 DFT Exchange         Energy = -150.49009235505872
 One-Electron (alpha) Energy = -4003.62802036708081
 One-Electron (beta)  Energy = -3948.28475178036797
 Total Coulomb        Energy = 2668.32805849998431
    7   -4921.6540053051      8.89e-05  
 Alpha HF Exchange    Energy = -19.00046391183187
 Beta HF Exchange     Energy = -18.79914910834328
 DFT Correlation      Energy =  -5.15661310628471
 DFT Exchange         Energy = -150.48943736274035
 One-Electron (alpha) Energy = -4003.61332438370982
 One-Electron (beta)  Energy = -3948.26795652306964
 Total Coulomb        Energy = 2668.29559035023522
    8   -4921.6541146155      2.11e-05  
 Alpha HF Exchange    Energy = -19.00060133988176
 Beta HF Exchange     Energy = -18.79921845303023
 DFT Correlation      Energy =  -5.15660167540691
 DFT Exchange         Energy = -150.49017111317821
 One-Electron (alpha) Energy = -4003.63664469807145
 One-Electron (beta)  Energy = -3948.27715860563694
 Total Coulomb        Energy = 2668.32903547976775
    9   -4921.6541209752      6.24e-06  
 Alpha HF Exchange    Energy = -19.00063951618116
 Beta HF Exchange     Energy = -18.79923404665790
 DFT Correlation      Energy =  -5.15662377604662
 DFT Exchange         Energy = -150.49040398963388
 One-Electron (alpha) Energy = -4003.64274435390780
 One-Electron (beta)  Energy = -3948.27604133506884
 Total Coulomb        Energy = 2668.33432596381454
   10   -4921.6541216234      1.76e-06  
 Alpha HF Exchange    Energy = -19.00064436252067
 Beta HF Exchange     Energy = -18.79923119339046
 DFT Correlation      Energy =  -5.15662078622104
 DFT Exchange         Energy = -150.49039880841204
 One-Electron (alpha) Energy = -4003.64462639480371
 One-Electron (beta)  Energy = -3948.27376013749745
 Total Coulomb        Energy = 2668.33392050367411
   11   -4921.6541217489      7.95e-07  Convergence criterion met
 ---------------------------------------
 SCF time:   CPU 51.01s  wall 5.00s 
<S^2> =          2.005745586
 Alpha HF Exchange    Energy = -19.00064436252067
 Beta HF Exchange     Energy = -18.79923119339046
 DFT Correlation      Energy =  -5.15662078622104
 DFT Exchange         Energy = -150.49039880841204
 One-Electron (alpha) Energy = -4003.64462639480371
 One-Electron (beta)  Energy = -3948.27376013749745
 Total Coulomb        Energy = 2668.33392050367411
 Nuclear repulsion Energy = 555.37723943025208
 SCF   energy in the final basis set =    -4921.6541217489
 Total energy in the final basis set =    -4921.6541217489
 
 --------------------------------------------------------------
 
                    Orbital Energies (a.u.)
 --------------------------------------------------------------
 
 Alpha MOs
 -- Occupied --
*******-453.911 -58.107 -58.105 -52.164 -52.163 -52.163 -52.162
-52.162 -52.162 -10.203 -10.191 -10.189  -7.841  -7.839  -5.783
 -5.781  -5.781  -5.779  -5.779  -5.778  -2.116  -2.115  -2.114
 -2.114  -2.113  -2.112  -2.111  -2.111  -2.110  -2.110  -0.795
 -0.726  -0.696  -0.682  -0.564  -0.476  -0.431  -0.422  -0.398
 -0.380  -0.373  -0.356  -0.325  -0.289  -0.258  -0.251  -0.193
 -- Virtual --
 -0.009   0.018   0.082   0.099   0.124   0.134   0.157   0.168
  0.176   0.178   0.224   0.259   0.262   0.266   0.297   0.313
  0.327   0.336   0.368   0.458   0.469   0.482   0.487   0.514
  0.522   0.534   0.555   0.585   0.605   0.617   0.622   0.636
  0.660   0.696   0.735   0.811   0.822   0.829   0.842   0.862
  0.881   0.890   0.920   0.938   1.052   1.078   1.216   1.246
  1.303   1.322   1.394   1.489   1.526   1.612   1.628   1.800
  1.811   1.878   1.951   2.007   2.036   2.069   2.073   2.081
  2.090   2.099   2.112   2.117   2.205   2.287   2.354   2.369
  2.459   2.494   2.537   2.618   2.632   2.649   2.657   2.683
  2.824   2.848   2.860   2.989   3.169   3.263   3.419   3.420
  3.461   3.638   4.166   4.176   4.193   4.215   4.243   4.269
  4.279   4.300   4.341   4.379   4.458   4.532   4.634   5.396
  5.469  89.522  89.796
 
 Beta MOs
 -- Occupied --
*******-453.908 -58.106 -58.104 -52.163 -52.161 -52.161 -52.160
-52.159 -52.159 -10.203 -10.191 -10.188  -7.837  -7.836  -5.781
 -5.779  -5.775  -5.774  -5.773  -5.773  -2.113  -2.111  -2.111
 -2.110  -2.109  -2.109  -2.106  -2.105  -2.104  -2.104  -0.794
 -0.700  -0.688  -0.648  -0.564  -0.475  -0.430  -0.421  -0.388
 -0.378  -0.364  -0.356  -0.281  -0.257  -0.239
 -- Virtual --
 -0.164  -0.103  -0.006   0.026   0.089   0.100   0.125   0.136
  0.161   0.169   0.179   0.182   0.239   0.263   0.269   0.279
  0.314   0.329   0.338   0.345   0.378   0.470   0.495   0.500
  0.521   0.533   0.538   0.547   0.562   0.594   0.610   0.633
  0.642   0.662   0.671   0.698   0.737   0.815   0.825   0.841
  0.849   0.869   0.882   0.895   0.922   0.938   1.056   1.080
  1.217   1.251   1.303   1.322   1.394   1.490   1.540   1.613
  1.643   1.800   1.811   1.878   1.951   2.007   2.036   2.069
  2.073   2.081   2.089   2.098   2.112   2.117   2.205   2.287
  2.354   2.369   2.459   2.494   2.537   2.618   2.632   2.649
  2.658   2.683   2.824   2.848   2.860   2.989   3.169   3.263
  3.419   3.420   3.461   3.639   4.179   4.188   4.195   4.223
  4.252   4.279   4.292   4.308   4.346   4.385   4.468   4.536
  4.636   5.412   5.485  89.527  89.801
 --------------------------------------------------------------
 
          Ground-State Mulliken Net Atomic Charges

     Atom                 Charge (a.u.)    Spin (a.u.)
  --------------------------------------------------------
      1 Se                   -0.052870       1.051747
      2 C                    -0.271997       0.004494
      3 C                    -0.030530      -0.002771
      4 C                    -0.349312       0.000468
      5 Se                   -0.102978       1.002142
      6 H                     0.072250      -0.026332
      7 H                     0.036218      -0.029552
      8 H                     0.125519       0.000192
      9 H                     0.120547      -0.000754
     10 H                     0.092869       0.000386
     11 H                     0.116893      -0.000050
     12 H                     0.120508       0.000181
     13 H                     0.122881      -0.000151
  --------------------------------------------------------
  Sum of atomic charges =    -0.000000
  Sum of spin   charges =     2.000000

 -----------------------------------------------------------------
                    Cartesian Multipole Moments
 -----------------------------------------------------------------
    Charge (ESU x 10^10)
                -0.0000
    Dipole Moment (Debye)
         X      -0.5693      Y      -1.2455      Z      -0.2573
       Tot       1.3934
    Quadrupole Moments (Debye-Ang)
        XX     -55.7814     XY       3.1190     YY     -58.9824
        XZ       0.9354     YZ       0.4850     ZZ     -57.9297
    Octopole Moments (Debye-Ang^2)
       XXX     -34.5600    XXY      -0.2185    XYY      -7.2333
       YYY      -2.6473    XXZ     -22.8544    XYZ       3.7922
       YYZ     -16.3692    XZZ     -10.0166    YZZ      -0.3904
       ZZZ     -71.3860
    Hexadecapole Moments (Debye-Ang^3)
      XXXX    -590.2539   XXXY     -73.9293   XXYY    -271.2792
      XYYY     -68.8427   YYYY   -1124.1987   XXXZ     -81.7475
      XXYZ       2.6190   XYYZ     -21.8070   YYYZ     -27.6703
      XXZZ    -138.4812   XYZZ     -24.6103   YYZZ    -223.7590
      XZZZ     -84.2575   YZZZ     -20.4225   ZZZZ    -255.3527
 -----------------------------------------------------------------
 Calculating analytic gradient of the SCF energy
 Gradient of SCF Energy
            1           2           3           4           5           6
    1  -0.0069525   0.0111217  -0.0020629  -0.0001320  -0.0030621   0.0032768
    2  -0.0172326   0.0175317   0.0006343  -0.0004701  -0.0032788   0.0041618
    3  -0.0093637   0.0109964   0.0008417  -0.0000197  -0.0019129   0.0021575
            7           8           9          10          11          12
    1  -0.0012988   0.0006780  -0.0009392  -0.0006483  -0.0000037   0.0000587
    2  -0.0005597   0.0006856  -0.0017411   0.0002930  -0.0000552   0.0000258
    3  -0.0004113  -0.0025340   0.0021954  -0.0017528  -0.0000786  -0.0001214
           13
    1  -0.0000357
    2   0.0000053
    3   0.0000035
 Max gradient component =       1.753E-02
 RMS gradient           =       5.235E-03
 Gradient time:  CPU 18.11 s  wall 1.59 s
 Geometry Optimization Parameters
   NAtoms,    NIC,     NZ,  NCons,   NDum,   NFix, NCnnct, MaxDiis
       13     129       0       1       0       0       0       0

 Cartesian Hessian Update
 Hessian Updated using BFGS Update


** CONSTRAINED OPTIMIZATION IN DELOCALIZED INTERNAL COORDINATES **
   Searching for a Minimum

   Optimization Cycle:   2

                       Coordinates (Angstroms)
     ATOM                X               Y               Z
      1  Se        1.5552682290    0.0963838230    1.0827553919
      2  C         0.5323980174   -2.0881817257   -0.1342219546
      3  C        -0.7608277148   -1.9229352706   -0.4487412287
      4  C        -1.9170240228   -2.2942674143    0.4336567617
      5  Se       -0.1986860289    2.0800999111    0.1500986155
      6  H        -0.9385795450    0.9134388898   -0.3317167246
      7  H         2.3355828039    1.2556218556    1.6037074353
      8  H         1.3158912177   -1.8784403673   -0.8589024631
      9  H         0.8181746291   -2.5851672145    0.7925225987
     10  H        -1.0161473797   -1.4970938463   -1.4231431387
     11  H        -1.5767629011   -2.7094828218    1.3864863093
     12  H        -2.5567646900   -1.4287493388    0.6457933682
     13  H        -2.5545226147   -3.0406274800   -0.0567929709
   Point Group: c1    Number of degrees of freedom:    33


   Energy is  -4921.654121749

              Constraints and their Current Values
                                        Value     Constraint
   Distance(Angs):        1   2             2.701782     2.700000
 Hessian Updated using BFGS Update

   Using Lagrange Multiplier Algorithm


 33 Hessian modes will be used to form the next step
  Hessian Eigenvalues:
    -0.980805    0.021546    0.045000    0.046545    0.047502    0.051770
     0.053442    0.055337    0.057818    0.065716    0.079314    0.080933
     0.082016    0.083192    0.087766    0.093146    0.097802    0.120946
     0.127506    0.143786    0.159997    0.160029    0.172752    0.193442
     0.306724    0.311996    0.320658    0.322557    0.339962    0.340074
     0.343853    0.557791    1.021088

 Minimum Search - Taking P-RFO Step
 Searching for Lamda that Maximizes Along the Constraint modes Only
 Value Taken    Lamda =   0.00001548
 Searching for Lamda that Minimizes Along All other modes
 Value Taken    Lamda =  -0.00022493
 Step Taken.  Stepsize is  0.042370

                             Maximum     Tolerance    Cnvgd?
         Gradient            0.003367       0.000300      NO
         Displacement        0.021122       0.001200      NO
         Energy change      0.003641       0.000001      NO


 New Cartesian Coordinates Obtained by Inverse Iteration

 Displacement from previous Coordinates is:  0.029967
 ----------------------------------------------------------------
             Standard Nuclear Orientation (Angstroms)
    I     Atom           X                Y                Z
 ----------------------------------------------------------------
    1      Se      1.5549665441     0.0957548039     1.0827069349
    2      C       0.5306297941    -2.0855618224    -0.1349108733
    3      C      -0.7608319725    -1.9228719913    -0.4492182238
    4      C      -1.9169160428    -2.2931850907     0.4333169804
    5      Se     -0.1961502245     2.0789402112     0.1528061462
    6      H      -0.9437871913     0.9036829465    -0.3344999990
    7      H       2.3402369166     1.2550234742     1.6056147879
    8      H       1.3140320946    -1.8770006086    -0.8560774894
    9      H       0.8190275224    -2.5801510446     0.7891552265
   10      H      -1.0152074059    -1.4985230063    -1.4220350770
   11      H      -1.5769045270    -2.7066236026     1.3870095407
   12      H      -2.5576937714    -1.4281214575     0.6442851639
   13      H      -2.5534017365    -3.0407638119    -0.0566511180
 ----------------------------------------------------------------
 Nuclear Repulsion Energy =   555.6544377011 hartrees
 There are       48 alpha and       46 beta electrons

                       Distance Matrix (Angstroms)
             Se(  1)   C (  2)   C (  3)   C (  4)   Se(  5)   H (  6)
   C (  2)  2.700000
   C (  3)  3.432866  1.339078
   C (  4)  4.264119  2.521204  1.500843
   Se(  5)  2.804309  4.237224  4.086049  4.706931
   H (  6)  2.984124  3.339061  2.834792  3.428774  1.475689
   H (  7)  1.494652  4.178949  4.892646  5.664576  3.036898  3.830444
   H (  8)  2.776454  1.085034  2.114876  3.503537  4.352926  3.619667
   H (  9)  2.790744  1.087056  2.112236  2.773870  4.810682  4.062907
   H ( 10)  3.926990  2.095451  1.091399  2.210633  3.993648  2.637883
   H ( 11)  4.213614  2.672763  2.156843  1.093649  5.131409  4.049537
   H ( 12)  4.407764  3.252248  2.160842  1.097014  4.256515  3.000004
   H ( 13)  5.292880  3.229518  2.148743  1.097295  5.640202  4.269276
             H (  7)   H (  8)   H (  9)   H ( 10)   H ( 11)   H ( 12)
   H (  8)  4.113709
   H (  9)  4.205859  1.856405
   H ( 10)  5.292229  2.426708  3.069804
   H ( 11)  5.575521  3.751963  2.472633  3.108978
   H ( 12)  5.666846  4.176463  3.570771  2.579515  1.774304
   H ( 13)  6.720462  4.117095  3.507254  2.570763  1.774642  1.758393

 
 Applying Cartesian multipole field
    Component          Value
    ---------          -----
     (2,0,0)        1.00000E-11
     (0,2,0)        2.00000E-11
     (0,0,2)       -3.00000E-11
 Nucleus-field energy     =     0.0000000179 hartrees
 Requested basis set is 6-31G(d,p)
 There are 52 shells and 155 basis functions
 A cutoff of  1.0D-14 yielded   1188 shell pairs
 There are     10530 function pairs
 Smallest overlap matrix eigenvalue = 6.74E-04
 Guess from superposition of atomic densities
 Warning:  Energy on first SCF cycle will be non-variational
 SAD guess density has 93.936381 electrons

 -----------------------------------------------------------------------
  General SCF calculation program by
  Eric Jon Sundstrom, Paul Horn, Yuezhi Mao, Dmitri Zuev, Alec White,
  David Stuck, Shaama M.S., Shane Yost, Joonho Lee, David Small,
  Daniel Levine, Susi Lehtola, Hugh Burton, Evgeny Epifanovsky
 -----------------------------------------------------------------------
 Exchange:     0.2000 Hartree-Fock + 0.0800 Slater + 0.7200 B88
 Correlation:  0.1900 VWN1RPA + 0.8100 LYP
 Using SG-1 standard quadrature grid
 using 12 threads for integral computing
 -------------------------------------------------------
 OpenMP Integral computing Module                
 Release: version 1.0, May 2013, Q-Chem Inc. Pittsburgh 
 -------------------------------------------------------
 -------------------------------------------------------
 OpenMP BLAS3 based DFT computing Module                
 Release: version 1.0, May 2013, Q-Chem Inc. Pittsburgh 
 -------------------------------------------------------
 A unrestricted SCF calculation will be
 performed using DIIS
 SCF converges when DIIS error is below 1.0e-06
 Alpha HF Exchange    Energy = -18.84538455192495
 Beta HF Exchange     Energy = -18.84538455192495
 DFT Correlation      Energy =  -5.12797582691820
 DFT Exchange         Energy = -149.85830706648372
 One-Electron (alpha) Energy = -3973.17622347132465
 One-Electron (beta)  Energy = -3973.17622347132465
 Total Coulomb        Energy = 2655.67833285217785
 ---------------------------------------
  Cycle       Energy         DIIS error
 ---------------------------------------
    1   -4927.6967283687      1.50e-01  
 Alpha HF Exchange    Energy = -19.07236315320503
 Beta HF Exchange     Energy = -18.86288554689318
 DFT Correlation      Energy =  -5.17971001378262
 DFT Exchange         Energy = -151.05004758802801
 One-Electron (alpha) Energy = -4011.23532139164308
 One-Electron (beta)  Energy = -3955.49323288929872
 Total Coulomb        Energy = 2683.73139709148199
    2   -4921.5077257723      9.38e-03  
 Alpha HF Exchange    Energy = -18.92757811729197
 Beta HF Exchange     Energy = -18.73455028604707
 DFT Correlation      Energy =  -5.13457816340196
 DFT Exchange         Energy = -149.94045772771591
 One-Electron (alpha) Energy = -3996.01999419324966
 One-Electron (beta)  Energy = -3941.90547720339146
 Total Coulomb        Energy = 2653.49688305223253
    3   -4921.5113149198      3.76e-03  
 Alpha HF Exchange    Energy = -19.04662843023544
 Beta HF Exchange     Energy = -18.84296368896774
 DFT Correlation      Energy =  -5.17046261152747
 DFT Exchange         Energy = -150.84741740412233
 One-Electron (alpha) Energy = -4008.56054132435384
 One-Electron (beta)  Energy = -3952.96533486285944
 Total Coulomb        Energy = 2678.20740387871274
    4   -4921.5715067243      2.78e-03  
 Alpha HF Exchange    Energy = -19.00490370751925
 Beta HF Exchange     Energy = -18.80573077099288
 DFT Correlation      Energy =  -5.15720049067822
 DFT Exchange         Energy = -150.52820682740779
 One-Electron (alpha) Energy = -4004.24511835798330
 One-Electron (beta)  Energy = -3948.78246368552345
 Total Coulomb        Energy = 2669.24194212257407
    5   -4921.6272439985      1.21e-03  
 Alpha HF Exchange    Energy = -19.00181137600724
 Beta HF Exchange     Energy = -18.80030419654764
 DFT Correlation      Energy =  -5.15706872862078
 DFT Exchange         Energy = -150.49977085010676
 One-Electron (alpha) Energy = -4004.06342965660906
 One-Electron (beta)  Energy = -3948.73734620999630
 Total Coulomb        Energy = 2668.95185530265553
    6   -4921.6534379962      2.01e-04  
 Alpha HF Exchange    Energy = -19.00053701444476
 Beta HF Exchange     Energy = -18.79925170945623
 DFT Correlation      Energy =  -5.15672141795570
 DFT Exchange         Energy = -150.49033357463330
 One-Electron (alpha) Energy = -4003.90738238564018
 One-Electron (beta)  Energy = -3948.55098837854121
 Total Coulomb        Energy = 2668.59671161561891
    7   -4921.6540651460      8.98e-05  
 Alpha HF Exchange    Energy = -19.00048142291180
 Beta HF Exchange     Energy = -18.79918455438374
 DFT Correlation      Energy =  -5.15666051546983
 DFT Exchange         Energy = -150.48977929870642
 One-Electron (alpha) Energy = -4003.89421332648499
 One-Electron (beta)  Energy = -3948.53472761508147
 Total Coulomb        Energy = 2668.56643327294796
    8   -4921.6541757410      2.10e-05  
 Alpha HF Exchange    Energy = -19.00062234829464
 Beta HF Exchange     Energy = -18.79925492792827
 DFT Correlation      Energy =  -5.15665124587224
 DFT Exchange         Energy = -150.49053391769948
 One-Electron (alpha) Energy = -4003.91814394084940
 One-Electron (beta)  Energy = -3948.54419469767299
 Total Coulomb        Energy = 2668.60078130111015
    9   -4921.6541820582      6.44e-06  
 Alpha HF Exchange    Energy = -19.00065876256101
 Beta HF Exchange     Energy = -18.79926915756655
 DFT Correlation      Energy =  -5.15667306080547
 DFT Exchange         Energy = -150.49075456083784
 One-Electron (alpha) Energy = -4003.92399129807563
 One-Electron (beta)  Energy = -3948.54284716361417
 Total Coulomb        Energy = 2668.60557355189076
   10   -4921.6541827325      1.90e-06  
 Alpha HF Exchange    Energy = -19.00066389224055
 Beta HF Exchange     Energy = -18.79926620224335
 DFT Correlation      Energy =  -5.15666991296428
 DFT Exchange         Energy = -150.49074969913755
 One-Electron (alpha) Energy = -4003.92595313145785
 One-Electron (beta)  Energy = -3948.54052506878725
 Total Coulomb        Energy = 2668.60520731660154
   11   -4921.6541828712      8.20e-07  Convergence criterion met
 ---------------------------------------
 SCF time:   CPU 51.22s  wall 4.00s 
<S^2> =          2.005768930
 Alpha HF Exchange    Energy = -19.00066389224055
 Beta HF Exchange     Energy = -18.79926620224335
 DFT Correlation      Energy =  -5.15666991296428
 DFT Exchange         Energy = -150.49074969913755
 One-Electron (alpha) Energy = -4003.92595313145785
 One-Electron (beta)  Energy = -3948.54052506878725
 Total Coulomb        Energy = 2668.60520731660154
 Nuclear repulsion Energy = 555.65443771904711
 SCF   energy in the final basis set =    -4921.6541828712
 Total energy in the final basis set =    -4921.6541828712
 
 --------------------------------------------------------------
 
                    Orbital Energies (a.u.)
 --------------------------------------------------------------
 
 Alpha MOs
 -- Occupied --
*******-453.911 -58.107 -58.106 -52.164 -52.164 -52.163 -52.162
-52.162 -52.162 -10.203 -10.191 -10.188  -7.841  -7.840  -5.783
 -5.781  -5.781  -5.779  -5.779  -5.779  -2.116  -2.115  -2.114
 -2.114  -2.113  -2.112  -2.111  -2.111  -2.110  -2.110  -0.795
 -0.725  -0.696  -0.681  -0.565  -0.476  -0.431  -0.422  -0.397
 -0.380  -0.373  -0.356  -0.325  -0.289  -0.259  -0.251  -0.192
 -- Virtual --
 -0.009   0.015   0.081   0.099   0.125   0.134   0.158   0.168
  0.177   0.179   0.224   0.259   0.262   0.267   0.297   0.313
  0.327   0.336   0.368   0.458   0.469   0.481   0.486   0.514
  0.522   0.535   0.555   0.585   0.605   0.617   0.622   0.637
  0.660   0.696   0.735   0.811   0.822   0.830   0.842   0.862
  0.882   0.890   0.921   0.939   1.047   1.077   1.216   1.245
  1.302   1.322   1.394   1.490   1.525   1.612   1.629   1.800
  1.812   1.880   1.952   2.010   2.036   2.069   2.073   2.080
  2.089   2.099   2.113   2.117   2.206   2.287   2.355   2.371
  2.459   2.496   2.539   2.614   2.627   2.649   2.659   2.686
  2.828   2.850   2.861   2.995   3.170   3.267   3.420   3.423
  3.463   3.646   4.166   4.176   4.193   4.214   4.243   4.269
  4.279   4.301   4.342   4.380   4.459   4.533   4.636   5.396
  5.469  89.520  89.794
 
 Beta MOs
 -- Occupied --
*******-453.909 -58.106 -58.104 -52.163 -52.161 -52.161 -52.160
-52.159 -52.159 -10.203 -10.191 -10.188  -7.837  -7.836  -5.781
 -5.779  -5.775  -5.774  -5.773  -5.773  -2.113  -2.111  -2.111
 -2.110  -2.109  -2.109  -2.106  -2.105  -2.105  -2.104  -0.795
 -0.700  -0.687  -0.647  -0.564  -0.476  -0.430  -0.421  -0.388
 -0.378  -0.363  -0.356  -0.281  -0.257  -0.239
 -- Virtual --
 -0.163  -0.103  -0.006   0.023   0.088   0.101   0.125   0.136
  0.161   0.170   0.179   0.183   0.239   0.263   0.269   0.279
  0.314   0.330   0.339   0.346   0.378   0.470   0.495   0.500
  0.521   0.533   0.539   0.548   0.562   0.594   0.610   0.633
  0.642   0.663   0.671   0.698   0.737   0.816   0.826   0.842
  0.849   0.870   0.882   0.895   0.922   0.940   1.051   1.079
  1.216   1.250   1.303   1.322   1.394   1.490   1.539   1.614
  1.643   1.800   1.812   1.880   1.952   2.010   2.036   2.068
  2.072   2.080   2.087   2.098   2.113   2.117   2.206   2.288
  2.355   2.371   2.459   2.496   2.539   2.615   2.627   2.650
  2.660   2.686   2.829   2.850   2.861   2.995   3.170   3.267
  3.420   3.423   3.463   3.646   4.179   4.188   4.195   4.223
  4.252   4.279   4.292   4.309   4.346   4.387   4.469   4.537
  4.638   5.411   5.484  89.526  89.800
 --------------------------------------------------------------
 
          Ground-State Mulliken Net Atomic Charges

     Atom                 Charge (a.u.)    Spin (a.u.)
  --------------------------------------------------------
      1 Se                   -0.052824       1.051483
      2 C                    -0.271995       0.004419
      3 C                    -0.030323      -0.002731
      4 C                    -0.349479       0.000467
      5 Se                   -0.101746       1.003075
      6 H                     0.071095      -0.026834
      7 H                     0.035849      -0.029689
      8 H                     0.125574       0.000194
      9 H                     0.120659      -0.000753
     10 H                     0.092940       0.000388
     11 H                     0.116919      -0.000051
     12 H                     0.120514       0.000182
     13 H                     0.122819      -0.000150
  --------------------------------------------------------
  Sum of atomic charges =    -0.000000
  Sum of spin   charges =     2.000000

 -----------------------------------------------------------------
                    Cartesian Multipole Moments
 -----------------------------------------------------------------
    Charge (ESU x 10^10)
                 0.0000
    Dipole Moment (Debye)
         X      -0.5671      Y      -1.2410      Z      -0.2588
       Tot       1.3887
    Quadrupole Moments (Debye-Ang)
        XX     -55.7968     XY       3.1253     YY     -58.9540
        XZ       0.9316     YZ       0.5026     ZZ     -57.9456
    Octopole Moments (Debye-Ang^2)
       XXX     -34.6409    XXY      -0.2318    XYY      -7.2347
       YYY      -2.5776    XXZ     -22.8964    XYZ       3.7840
       YYZ     -16.4475    XZZ     -10.0625    YZZ      -0.3824
       ZZZ     -71.5287
    Hexadecapole Moments (Debye-Ang^3)
      XXXX    -590.2593   XXXY     -74.2746   XXYY    -271.0525
      XYYY     -69.1805   YYYY   -1122.4134   XXXZ     -81.8088
      XXYZ       2.5087   XYYZ     -21.8317   YYYZ     -27.7799
      XXZZ    -138.5148   XYZZ     -24.6870   YYZZ    -223.5540
      XZZZ     -84.3515   YZZZ     -20.7447   ZZZZ    -255.4962
 -----------------------------------------------------------------
 Calculating analytic gradient of the SCF energy
 Gradient of SCF Energy
            1           2           3           4           5           6
    1  -0.0077763   0.0100481  -0.0004015   0.0000296  -0.0005399   0.0008935
    2  -0.0179209   0.0176568   0.0005087  -0.0002949   0.0002815   0.0004035
    3  -0.0098718   0.0105457   0.0002582  -0.0001091  -0.0001949   0.0005144
            7           8           9          10          11          12
    1  -0.0006469  -0.0003689  -0.0010582  -0.0001766  -0.0000153   0.0000131
    2   0.0002737   0.0001926  -0.0008772  -0.0002197  -0.0000187   0.0000082
    3  -0.0000073  -0.0010217   0.0004936  -0.0004369  -0.0000572  -0.0000495
           13
    1  -0.0000008
    2   0.0000063
    3  -0.0000635
 Max gradient component =       1.792E-02
 RMS gradient           =       5.087E-03
 Gradient time:  CPU 17.97 s  wall 1.58 s
 Geometry Optimization Parameters
   NAtoms,    NIC,     NZ,  NCons,   NDum,   NFix, NCnnct, MaxDiis
       13     129       0       1       0       0       0       0

 Cartesian Hessian Update
 Hessian Updated using BFGS Update


** CONSTRAINED OPTIMIZATION IN DELOCALIZED INTERNAL COORDINATES **
   Searching for a Minimum

   Optimization Cycle:   3

                       Coordinates (Angstroms)
     ATOM                X               Y               Z
      1  Se        1.5549665441    0.0957548039    1.0827069349
      2  C         0.5306297941   -2.0855618224   -0.1349108733
      3  C        -0.7608319725   -1.9228719913   -0.4492182238
      4  C        -1.9169160428   -2.2931850907    0.4333169804
      5  Se       -0.1961502245    2.0789402112    0.1528061462
      6  H        -0.9437871913    0.9036829465   -0.3344999990
      7  H         2.3402369166    1.2550234742    1.6056147879
      8  H         1.3140320946   -1.8770006086   -0.8560774894
      9  H         0.8190275224   -2.5801510446    0.7891552265
     10  H        -1.0152074059   -1.4985230063   -1.4220350770
     11  H        -1.5769045270   -2.7066236026    1.3870095407
     12  H        -2.5576937714   -1.4281214575    0.6442851639
     13  H        -2.5534017365   -3.0407638119   -0.0566511180
   Point Group: c1    Number of degrees of freedom:    33


   Energy is  -4921.654182871

              Constraints and their Current Values
                                        Value     Constraint
   Distance(Angs):        1   2             2.700000     2.700000
 Hessian Updated using BFGS Update

 32 Hessian modes will be used to form the next step
  Hessian Eigenvalues:
     0.019926    0.044994    0.046347    0.047403    0.050823    0.052500
     0.055231    0.057799    0.065314    0.068645    0.080777    0.082012
     0.083192    0.087810    0.092439    0.097314    0.111438    0.123108
     0.143782    0.159991    0.160000    0.160011    0.172647    0.215045
     0.306830    0.311505    0.322238    0.326430    0.339962    0.340082
     0.343851    0.559228

 Minimum Search - Taking Simple RFO Step
 Searching for Lamda that Minimizes Along All modes
 Value Taken    Lamda =  -0.00005214
 Step Taken.  Stepsize is  0.034391

                             Maximum     Tolerance    Cnvgd?
         Gradient           0.000918      0.000300      NO
         Displacement       0.018587      0.001200      NO
         Energy change     -0.000061      0.000001      NO


 New Cartesian Coordinates Obtained by Inverse Iteration

 Displacement from previous Coordinates is:  0.029888
 ----------------------------------------------------------------
             Standard Nuclear Orientation (Angstroms)
    I     Atom           X                Y                Z
 ----------------------------------------------------------------
    1      Se      1.5560584296     0.0957864160     1.0835232267
    2      C       0.5298038673    -2.0837418103    -0.1356811913
    3      C      -0.7612415487    -1.9227196234    -0.4498992059
    4      C      -1.9175201121    -2.2915507146     0.4330038184
    5      Se     -0.1977638049     2.0722142681     0.1536580717
    6      H      -0.9490349760     0.8960867524    -0.3363788952
    7      H       2.3453158581     1.2529707585     1.6074066875
    8      H       1.3148201201    -1.8751967871    -0.8535935670
    9      H       0.8229314799    -2.5751747797     0.7874040812
   10      H      -1.0151967933    -1.4982411319    -1.4218964812
   11      H      -1.5778382467    -2.7038312390     1.3873264624
   12      H      -2.5584150114    -1.4263126195     0.6428741065
   13      H      -2.5539192618    -3.0396904895    -0.0562451139
 ----------------------------------------------------------------
 Nuclear Repulsion Energy =   556.0326845585 hartrees
 There are       48 alpha and       46 beta electrons

                       Distance Matrix (Angstroms)
             Se(  1)   C (  2)   C (  3)   C (  4)   Se(  5)   H (  6)
   C (  2)  2.700000
   C (  3)  3.434477  1.338454
   C (  4)  4.264775  2.521107  1.500845
   Se(  5)  2.801216  4.229071  4.079373  4.698728
   H (  6)  2.988661  3.332660  2.827335  3.419203  1.479128
   H (  7)  1.495479  4.179484  4.895734  5.666977  3.041677  3.841668
   H (  8)  2.774057  1.084039  2.115481  3.503813  4.345632  3.615600
   H (  9)  2.785533  1.086056  2.113344  2.777790  4.800175  4.056157
   H ( 10)  3.928028  2.093845  1.090621  2.210019  3.987320  2.629740
   H ( 11)  4.213249  2.673241  2.156934  1.093659  5.122222  4.040540
   H ( 12)  4.409064  3.251993  2.161112  1.097009  4.248729  2.990415
   H ( 13)  5.293600  3.229473  2.148553  1.097306  5.632681  4.259633
             H (  7)   H (  8)   H (  9)   H ( 10)   H ( 11)   H ( 12)
   H (  8)  4.111432
   H (  9)  4.200566  1.850621
   H ( 10)  5.295176  2.427765  3.069122
   H ( 11)  5.576366  3.751777  2.477934  3.108335
   H ( 12)  5.670578  4.176465  3.574112  2.578754  1.774202
   H ( 13)  6.722885  4.118125  3.511501  2.570746  1.774665  1.758345

 
 Applying Cartesian multipole field
    Component          Value
    ---------          -----
     (2,0,0)        1.00000E-11
     (0,2,0)        2.00000E-11
     (0,0,2)       -3.00000E-11
 Nucleus-field energy     =     0.0000000179 hartrees
 Requested basis set is 6-31G(d,p)
 There are 52 shells and 155 basis functions
 A cutoff of  1.0D-14 yielded   1191 shell pairs
 There are     10598 function pairs
 Smallest overlap matrix eigenvalue = 6.74E-04
 Guess from superposition of atomic densities
 Warning:  Energy on first SCF cycle will be non-variational
 SAD guess density has 93.936381 electrons

 -----------------------------------------------------------------------
  General SCF calculation program by
  Eric Jon Sundstrom, Paul Horn, Yuezhi Mao, Dmitri Zuev, Alec White,
  David Stuck, Shaama M.S., Shane Yost, Joonho Lee, David Small,
  Daniel Levine, Susi Lehtola, Hugh Burton, Evgeny Epifanovsky
 -----------------------------------------------------------------------
 Exchange:     0.2000 Hartree-Fock + 0.0800 Slater + 0.7200 B88
 Correlation:  0.1900 VWN1RPA + 0.8100 LYP
 Using SG-1 standard quadrature grid
 using 12 threads for integral computing
 -------------------------------------------------------
 OpenMP Integral computing Module                
 Release: version 1.0, May 2013, Q-Chem Inc. Pittsburgh 
 -------------------------------------------------------
 -------------------------------------------------------
 OpenMP BLAS3 based DFT computing Module                
 Release: version 1.0, May 2013, Q-Chem Inc. Pittsburgh 
 -------------------------------------------------------
 A unrestricted SCF calculation will be
 performed using DIIS
 SCF converges when DIIS error is below 1.0e-06
 Alpha HF Exchange    Energy = -18.84551520414564
 Beta HF Exchange     Energy = -18.84551520414564
 DFT Correlation      Energy =  -5.12803141064857
 DFT Exchange         Energy = -149.85853252319760
 One-Electron (alpha) Energy = -3973.55390000224679
 One-Electron (beta)  Energy = -3973.55390000224679
 Total Coulomb        Energy = 2656.05433120573798
 ---------------------------------------
  Cycle       Energy         DIIS error
 ---------------------------------------
    1   -4927.6983785645      1.50e-01  
 Alpha HF Exchange    Energy = -19.07244641512289
 Beta HF Exchange     Energy = -18.86299471598486
 DFT Correlation      Energy =  -5.17977551059556
 DFT Exchange         Energy = -151.05071220530897
 One-Electron (alpha) Energy = -4011.62715954987743
 One-Electron (beta)  Energy = -3955.86931721273413
 Total Coulomb        Energy = 2684.12222674632994
    2   -4921.5074942869      9.38e-03  
 Alpha HF Exchange    Energy = -18.92755324890326
 Beta HF Exchange     Energy = -18.73459739472389
 DFT Correlation      Energy =  -5.13460246456629
 DFT Exchange         Energy = -149.94047984647580
 One-Electron (alpha) Energy = -3996.38530098160618
 One-Electron (beta)  Energy = -3942.26065308454827
 Total Coulomb        Energy = 2653.83968030235701
    3   -4921.5108221421      3.76e-03  
 Alpha HF Exchange    Energy = -19.04671049442565
 Beta HF Exchange     Energy = -18.84309791751501
 DFT Correlation      Energy =  -5.17051792947059
 DFT Exchange         Energy = -150.84811115808233
 One-Electron (alpha) Energy = -4008.95673539209474
 One-Electron (beta)  Energy = -3953.34688007138675
 Total Coulomb        Energy = 2678.60837336112218
    4   -4921.5709950255      2.79e-03  
 Alpha HF Exchange    Energy = -19.00498653403484
 Beta HF Exchange     Energy = -18.80587507474315
 DFT Correlation      Energy =  -5.15726336721187
 DFT Exchange         Energy = -150.52901055166546
 One-Electron (alpha) Energy = -4004.63098431826802
 One-Electron (beta)  Energy = -3949.15591896498972
 Total Coulomb        Energy = 2669.62446244846751
    5   -4921.6268917861      1.22e-03  
 Alpha HF Exchange    Energy = -19.00184938628658
 Beta HF Exchange     Energy = -18.80038388051892
 DFT Correlation      Energy =  -5.15711942550941
 DFT Exchange         Energy = -150.50017059410663
 One-Electron (alpha) Energy = -4004.44560896457642
 One-Electron (beta)  Energy = -3949.10568110461918
 Total Coulomb        Energy = 2669.32464546263554
    6   -4921.6534833166      2.00e-04  
 Alpha HF Exchange    Energy = -19.00057941787972
 Beta HF Exchange     Energy = -18.79933224544423
 DFT Correlation      Energy =  -5.15677106322741
 DFT Exchange         Energy = -150.49075162809018
 One-Electron (alpha) Energy = -4004.29076204735020
 One-Electron (beta)  Energy = -3948.92061284480496
 Total Coulomb        Energy = 2668.97202301853486
    7   -4921.6541016519      9.02e-05  
 Alpha HF Exchange    Energy = -19.00052649418745
 Beta HF Exchange     Energy = -18.79926745336702
 DFT Correlation      Energy =  -5.15671117093243
 DFT Exchange         Energy = -150.49021761226479
 One-Electron (alpha) Energy = -4004.27779961130955
 One-Electron (beta)  Energy = -3948.90436752140977
 Total Coulomb        Energy = 2668.94199211727982
    8   -4921.6542131698      2.09e-05  
 Alpha HF Exchange    Energy = -19.00066819035020
 Beta HF Exchange     Energy = -18.79933808906398
 DFT Correlation      Energy =  -5.15670248746517
 DFT Exchange         Energy = -150.49097729936051
 One-Electron (alpha) Energy = -4004.30181819146310
 One-Electron (beta)  Energy = -3948.91387443552458
 Total Coulomb        Energy = 2668.97647469801814
    9   -4921.6542194188      6.46e-06  
 Alpha HF Exchange    Energy = -19.00070407449943
 Beta HF Exchange     Energy = -18.79935194897607
 DFT Correlation      Energy =  -5.15672416929642
 DFT Exchange         Energy = -150.49119442878913
 One-Electron (alpha) Energy = -4004.30759234236166
 One-Electron (beta)  Energy = -3948.91246720013351
 Total Coulomb        Energy = 2668.98112949396909
   10   -4921.6542200937      1.91e-06  
 Alpha HF Exchange    Energy = -19.00070926266715
 Beta HF Exchange     Energy = -18.79934894796876
 DFT Correlation      Energy =  -5.15672099517098
 DFT Exchange         Energy = -150.49118960250848
 One-Electron (alpha) Energy = -4004.30958134045113
 One-Electron (beta)  Energy = -3948.91013596960101
 Total Coulomb        Energy = 2668.98078130982822
   11   -4921.6542202322      8.18e-07  Convergence criterion met
 ---------------------------------------
 SCF time:   CPU 50.86s  wall 4.00s 
<S^2> =          2.005775394
 Alpha HF Exchange    Energy = -19.00070926266715
 Beta HF Exchange     Energy = -18.79934894796876
 DFT Correlation      Energy =  -5.15672099517098
 DFT Exchange         Energy = -150.49118960250848
 One-Electron (alpha) Energy = -4004.30958134045113
 One-Electron (beta)  Energy = -3948.91013596960101
 Total Coulomb        Energy = 2668.98078130982822
 Nuclear repulsion Energy = 556.03268457638762
 SCF   energy in the final basis set =    -4921.6542202322
 Total energy in the final basis set =    -4921.6542202322
 
 --------------------------------------------------------------
 
                    Orbital Energies (a.u.)
 --------------------------------------------------------------
 
 Alpha MOs
 -- Occupied --
*******-453.911 -58.107 -58.106 -52.164 -52.164 -52.163 -52.162
-52.162 -52.162 -10.202 -10.191 -10.188  -7.841  -7.840  -5.783
 -5.781  -5.781  -5.779  -5.779  -5.779  -2.116  -2.115  -2.114
 -2.114  -2.113  -2.113  -2.111  -2.111  -2.110  -2.110  -0.795
 -0.725  -0.696  -0.681  -0.565  -0.476  -0.431  -0.422  -0.397
 -0.380  -0.373  -0.356  -0.325  -0.289  -0.259  -0.251  -0.192
 -- Virtual --
 -0.009   0.015   0.081   0.100   0.125   0.134   0.158   0.168
  0.177   0.179   0.224   0.259   0.262   0.267   0.297   0.313
  0.327   0.336   0.368   0.458   0.469   0.481   0.486   0.514
  0.522   0.535   0.556   0.586   0.605   0.617   0.622   0.637
  0.660   0.695   0.735   0.812   0.823   0.831   0.843   0.862
  0.882   0.890   0.921   0.940   1.047   1.077   1.214   1.245
  1.302   1.323   1.394   1.489   1.525   1.613   1.629   1.800
  1.812   1.881   1.952   2.011   2.036   2.068   2.072   2.080
  2.088   2.099   2.115   2.117   2.206   2.287   2.355   2.372
  2.459   2.497   2.541   2.613   2.626   2.650   2.659   2.687
  2.830   2.851   2.861   3.000   3.170   3.268   3.420   3.424
  3.462   3.651   4.166   4.175   4.194   4.214   4.242   4.269
  4.280   4.301   4.342   4.380   4.460   4.534   4.636   5.396
  5.468  89.521  89.794
 
 Beta MOs
 -- Occupied --
*******-453.909 -58.106 -58.104 -52.163 -52.161 -52.161 -52.160
-52.159 -52.159 -10.202 -10.191 -10.187  -7.837  -7.836  -5.781
 -5.779  -5.775  -5.774  -5.773  -5.773  -2.113  -2.112  -2.111
 -2.110  -2.110  -2.109  -2.106  -2.105  -2.105  -2.105  -0.795
 -0.700  -0.687  -0.647  -0.565  -0.476  -0.430  -0.421  -0.388
 -0.378  -0.363  -0.355  -0.281  -0.257  -0.239
 -- Virtual --
 -0.163  -0.103  -0.006   0.023   0.087   0.101   0.126   0.136
  0.161   0.170   0.179   0.183   0.240   0.264   0.269   0.279
  0.314   0.330   0.339   0.346   0.377   0.470   0.495   0.500
  0.520   0.533   0.539   0.548   0.562   0.595   0.610   0.633
  0.643   0.663   0.671   0.697   0.737   0.816   0.827   0.842
  0.850   0.870   0.882   0.896   0.922   0.941   1.051   1.078
  1.215   1.250   1.303   1.323   1.394   1.490   1.540   1.614
  1.643   1.800   1.812   1.882   1.952   2.012   2.036   2.068
  2.071   2.079   2.087   2.098   2.114   2.117   2.206   2.287
  2.355   2.372   2.459   2.497   2.541   2.613   2.626   2.650
  2.660   2.687   2.830   2.851   2.861   3.000   3.170   3.268
  3.420   3.424   3.463   3.651   4.179   4.188   4.196   4.223
  4.251   4.279   4.293   4.309   4.347   4.387   4.470   4.537
  4.638   5.411   5.484  89.526  89.799
 --------------------------------------------------------------
 
          Ground-State Mulliken Net Atomic Charges

     Atom                 Charge (a.u.)    Spin (a.u.)
  --------------------------------------------------------
      1 Se                   -0.053003       1.051203
      2 C                    -0.271949       0.004373
      3 C                    -0.030503      -0.002665
      4 C                    -0.349554       0.000465
      5 Se                   -0.101155       1.003627
      6 H                     0.070733      -0.027045
      7 H                     0.035851      -0.029768
      8 H                     0.125547       0.000196
      9 H                     0.120752      -0.000757
     10 H                     0.092975       0.000387
     11 H                     0.117033      -0.000051
     12 H                     0.120480       0.000184
     13 H                     0.122791      -0.000150
  --------------------------------------------------------
  Sum of atomic charges =     0.000000
  Sum of spin   charges =     2.000000

 -----------------------------------------------------------------
                    Cartesian Multipole Moments
 -----------------------------------------------------------------
    Charge (ESU x 10^10)
                 0.0000
    Dipole Moment (Debye)
         X      -0.5633      Y      -1.2327      Z      -0.2571
       Tot       1.3795
    Quadrupole Moments (Debye-Ang)
        XX     -55.7816     XY       3.1353     YY     -58.9631
        XZ       0.9393     YZ       0.5108     ZZ     -57.9515
    Octopole Moments (Debye-Ang^2)
       XXX     -34.5522    XXY      -0.1312    XYY      -7.1937
       YYY      -2.2131    XXZ     -22.8991    XYZ       3.7871
       YYZ     -16.4883    XZZ     -10.0454    YZZ      -0.2501
       ZZZ     -71.5879
    Hexadecapole Moments (Debye-Ang^3)
      XXXX    -590.9208   XXXY     -74.1288   XXYY    -270.5015
      XYYY     -69.1276   YYYY   -1118.6525   XXXZ     -81.9206
      XXYZ       2.4849   XYYZ     -21.9009   YYYZ     -27.8181
      XXZZ    -138.6589   XYZZ     -24.6099   YYZZ    -222.9701
      XZZZ     -84.5182   YZZZ     -20.8504   ZZZZ    -255.7516
 -----------------------------------------------------------------
 Calculating analytic gradient of the SCF energy
 Gradient of SCF Energy
            1           2           3           4           5           6
    1  -0.0081061   0.0093266  -0.0000384   0.0000253   0.0002227   0.0001566
    2  -0.0177954   0.0176276   0.0003622  -0.0001450   0.0009103  -0.0005072
    3  -0.0100105   0.0102335  -0.0000820  -0.0001327   0.0003027   0.0000199
            7           8           9          10          11          12
    1  -0.0003490  -0.0005241  -0.0006622  -0.0000185  -0.0000235  -0.0000197
    2   0.0003841  -0.0000865  -0.0004145  -0.0003129  -0.0000152  -0.0000158
    3   0.0001225  -0.0001357  -0.0002431   0.0000658  -0.0000368  -0.0000177
           13
    1   0.0000104
    2   0.0000083
    3  -0.0000858
 Max gradient component =       1.780E-02
 RMS gradient           =       5.033E-03
 Gradient time:  CPU 18.07 s  wall 1.60 s
 Geometry Optimization Parameters
   NAtoms,    NIC,     NZ,  NCons,   NDum,   NFix, NCnnct, MaxDiis
       13     129       0       1       0       0       0       0

 Cartesian Hessian Update
 Hessian Updated using BFGS Update


** CONSTRAINED OPTIMIZATION IN DELOCALIZED INTERNAL COORDINATES **
   Searching for a Minimum

   Optimization Cycle:   4

                       Coordinates (Angstroms)
     ATOM                X               Y               Z
      1  Se        1.5560584296    0.0957864160    1.0835232267
      2  C         0.5298038673   -2.0837418103   -0.1356811913
      3  C        -0.7612415487   -1.9227196234   -0.4498992059
      4  C        -1.9175201121   -2.2915507146    0.4330038184
      5  Se       -0.1977638049    2.0722142681    0.1536580717
      6  H        -0.9490349760    0.8960867524   -0.3363788952
      7  H         2.3453158581    1.2529707585    1.6074066875
      8  H         1.3148201201   -1.8751967871   -0.8535935670
      9  H         0.8229314799   -2.5751747797    0.7874040812
     10  H        -1.0151967933   -1.4982411319   -1.4218964812
     11  H        -1.5778382467   -2.7038312390    1.3873264624
     12  H        -2.5584150114   -1.4263126195    0.6428741065
     13  H        -2.5539192618   -3.0396904895   -0.0562451139
   Point Group: c1    Number of degrees of freedom:    33


   Energy is  -4921.654220232

              Constraints and their Current Values
                                        Value     Constraint
   Distance(Angs):        1   2             2.700000     2.700000
 Hessian Updated using BFGS Update

 32 Hessian modes will be used to form the next step
  Hessian Eigenvalues:
     0.014692    0.037222    0.045008    0.046729    0.047601    0.052394
     0.055083    0.057308    0.061588    0.066091    0.080748    0.082016
     0.083192    0.087800    0.091739    0.096469    0.107024    0.122636
     0.143894    0.159999    0.160003    0.160109    0.172665    0.230248
     0.306806    0.311616    0.322550    0.339961    0.340061    0.343842
     0.368001    0.567649

 Minimum Search - Taking Simple RFO Step
 Searching for Lamda that Minimizes Along All modes
 Value Taken    Lamda =  -0.00003630
 Step Taken.  Stepsize is  0.040574

                             Maximum     Tolerance    Cnvgd?
         Gradient           0.000599      0.000300      NO
         Displacement       0.020804      0.001200      NO
         Energy change     -0.000037      0.000001      NO


 New Cartesian Coordinates Obtained by Inverse Iteration

 Displacement from previous Coordinates is:  0.039556
 ----------------------------------------------------------------
             Standard Nuclear Orientation (Angstroms)
    I     Atom           X                Y                Z
 ----------------------------------------------------------------
    1      Se      1.5575750549     0.0950964215     1.0852623182
    2      C       0.5291327052    -2.0818285775    -0.1367462786
    3      C      -0.7616567328    -1.9223347129    -0.4509601031
    4      C      -1.9179138788    -2.2891424701     0.4328259952
    5      Se     -0.2023038293     2.0622796942     0.1533344174
    6      H      -0.9561999605     0.8878307414    -0.3389665138
    7      H       2.3514710837     1.2486502220     1.6102860477
[...]
   H (  7)  1.495002  4.177964  4.898350  5.663140  3.063749  3.871551
   H (  8)  2.772992  1.084620  2.117517  3.505773  4.325667  3.609044
   H (  9)  2.770636  1.086421  2.115915  2.782034  4.773518  4.043962
   H ( 10)  3.931757  2.093237  1.090957  2.210952  3.962209  2.609699
   H ( 11)  4.202025  2.673043  2.156772  1.093635  5.090120  4.017602
   H ( 12)  4.402427  3.250672  2.160630  1.097003  4.214493  2.961537
   H ( 13)  5.289875  3.230750  2.149319  1.097284  5.602786  4.234273
             H (  7)   H (  8)   H (  9)   H ( 10)   H ( 11)   H ( 12)
   H (  8)  4.106851
   H (  9)  4.183354  1.848354
   H ( 10)  5.300264  2.429742  3.071029
   H ( 11)  5.565642  3.752772  2.482094  3.108901
   H ( 12)  5.666872  4.175513  3.575766  2.577365  1.774248
   H ( 13)  6.720371  4.123523  3.518177  2.574403  1.774599  1.758365

 
 Applying Cartesian multipole field
    Component          Value
    ---------          -----
     (2,0,0)        1.00000E-11
     (0,2,0)        2.00000E-11
     (0,0,2)       -3.00000E-11
 Nucleus-field energy     =     0.0000000176 hartrees
 Requested basis set is 6-31G(d,p)
 There are 52 shells and 155 basis functions
 A cutoff of  1.0D-14 yielded   1195 shell pairs
 There are     10638 function pairs
 Smallest overlap matrix eigenvalue = 6.74E-04
 Guess from superposition of atomic densities
 Warning:  Energy on first SCF cycle will be non-variational
 SAD guess density has 93.936381 electrons

 -----------------------------------------------------------------------
  General SCF calculation program by
  Eric Jon Sundstrom, Paul Horn, Yuezhi Mao, Dmitri Zuev, Alec White,
  David Stuck, Shaama M.S., Shane Yost, Joonho Lee, David Small,
  Daniel Levine, Susi Lehtola, Hugh Burton, Evgeny Epifanovsky
 -----------------------------------------------------------------------
 Exchange:     0.2000 Hartree-Fock + 0.0800 Slater + 0.7200 B88
 Correlation:  0.1900 VWN1RPA + 0.8100 LYP
 Using SG-1 standard quadrature grid
 using 12 threads for integral computing
 -------------------------------------------------------
 OpenMP Integral computing Module                
 Release: version 1.0, May 2013, Q-Chem Inc. Pittsburgh 
 -------------------------------------------------------
 -------------------------------------------------------
 OpenMP BLAS3 based DFT computing Module                
 Release: version 1.0, May 2013, Q-Chem Inc. Pittsburgh 
 -------------------------------------------------------
 A unrestricted SCF calculation will be
 performed using DIIS
 SCF converges when DIIS error is below 1.0e-06
 Alpha HF Exchange    Energy = -18.84554935972673
 Beta HF Exchange     Energy = -18.84554935972673
 DFT Correlation      Energy =  -5.12810035036984
 DFT Exchange         Energy = -149.85861995470779
 One-Electron (alpha) Energy = -3974.13192575458424
 One-Electron (beta)  Energy = -3974.13192575458424
 Total Coulomb        Energy = 2656.63034455766547
 ---------------------------------------
  Cycle       Energy         DIIS error
 ---------------------------------------
    1   -4927.6999790076      1.50e-01  
 Alpha HF Exchange    Energy = -19.07246177730618
 Beta HF Exchange     Energy = -18.86300330523283
 DFT Correlation      Energy =  -5.17981504619609
 DFT Exchange         Energy = -151.05070688581844
 One-Electron (alpha) Energy = -4012.21774536097155
 One-Electron (beta)  Energy = -3956.44477239332946
 Total Coulomb        Energy = 2684.70970875611238
    2   -4921.5074490443      9.38e-03  
 Alpha HF Exchange    Energy = -18.92755493605506
 Beta HF Exchange     Energy = -18.73461823579322
 DFT Correlation      Energy =  -5.13465323786270
 DFT Exchange         Energy = -149.94051153214514
 One-Electron (alpha) Energy = -3996.95593879740500
 One-Electron (beta)  Energy = -3942.82573282770272
 Total Coulomb        Energy = 2654.39687307601253
    3   -4921.5107895226      3.76e-03  
 Alpha HF Exchange    Energy = -19.04675664751317
 Beta HF Exchange     Energy = -18.84303163716928
 DFT Correlation      Energy =  -5.17058483838491
 DFT Exchange         Energy = -150.84811334696778
 One-Electron (alpha) Energy = -4009.55155046269056
 One-Electron (beta)  Energy = -3953.90898616587492
 Total Coulomb        Energy = 2679.18540859144014
    4   -4921.5722675388      2.78e-03  
 Alpha HF Exchange    Energy = -19.00489868343711
 Beta HF Exchange     Energy = -18.80557454094085
 DFT Correlation      Energy =  -5.15731853251906
 DFT Exchange         Energy = -150.52774784796969
 One-Electron (alpha) Energy = -4005.21066930600955
 One-Electron (beta)  Energy = -3949.72326880807304
 Total Coulomb        Energy = 2670.18903310364794
    5   -4921.6290976469      1.17e-03  
 Alpha HF Exchange    Energy = -19.00186560214055
 Beta HF Exchange     Energy = -18.80042081134469
 DFT Correlation      Energy =  -5.15716123579569
 DFT Exchange         Energy = -150.50024640853570
 One-Electron (alpha) Energy = -4005.03038658368132
 One-Electron (beta)  Energy = -3949.67400522037906
 Total Coulomb        Energy = 2669.89926205099118
    6   -4921.6534768425      2.05e-04  
 Alpha HF Exchange    Energy = -19.00060700223527
 Beta HF Exchange     Energy = -18.79937469818489
 DFT Correlation      Energy =  -5.15681657836470
 DFT Exchange         Energy = -150.49090221639102
 One-Electron (alpha) Energy = -4004.87706106715541
 One-Electron (beta)  Energy = -3949.48995470287264
 Total Coulomb        Energy = 2669.54923301000963
    7   -4921.6541362868      9.00e-05  
 Alpha HF Exchange    Energy = -19.00054778378913
 Beta HF Exchange     Energy = -18.79930670354604
 DFT Correlation      Energy =  -5.15675588907741
 DFT Exchange         Energy = -150.49033133946273
 One-Electron (alpha) Energy = -4004.86343079001017
 One-Electron (beta)  Energy = -3949.47312497268967
 Total Coulomb        Energy = 2669.51790243557207
    8   -4921.6542480746      2.08e-05  
 Alpha HF Exchange    Energy = -19.00068826186281
 Beta HF Exchange     Energy = -18.79937701932346
 DFT Correlation      Energy =  -5.15674656769076
 DFT Exchange         Energy = -150.49108441659047
 One-Electron (alpha) Energy = -4004.88713163764260
 One-Electron (beta)  Energy = -3949.48243802931484
 Total Coulomb        Energy = 2669.55186470077160
    9   -4921.6542542633      6.37e-06  
 Alpha HF Exchange    Energy = -19.00072462522638
 Beta HF Exchange     Energy = -18.79939131983098
 DFT Correlation      Energy =  -5.15676824402639
 DFT Exchange         Energy = -150.49130501365062
 One-Electron (alpha) Energy = -4004.89300247786650
 One-Electron (beta)  Energy = -3949.48104779691539
 Total Coulomb        Energy = 2669.55663758360151
   10   -4921.6542549255      1.82e-06  
 Alpha HF Exchange    Energy = -19.00072975506094
 Beta HF Exchange     Energy = -18.79938834065029
 DFT Correlation      Energy =  -5.15676514185068
 DFT Exchange         Energy = -150.49130015438203
 One-Electron (alpha) Energy = -4004.89501996891022
 One-Electron (beta)  Energy = -3949.47870948833588
 Total Coulomb        Energy = 2669.55631082585433
   11   -4921.6542550549      7.96e-07  Convergence criterion met
 ---------------------------------------
 SCF time:   CPU 50.65s  wall 4.00s 
<S^2> =          2.005778136
 Alpha HF Exchange    Energy = -19.00072975506094
 Beta HF Exchange     Energy = -18.79938834065029
 DFT Correlation      Energy =  -5.15676514185068
 DFT Exchange         Energy = -150.49130015438203
 One-Electron (alpha) Energy = -4004.89501996891022
 One-Electron (beta)  Energy = -3949.47870948833588
 Total Coulomb        Energy = 2669.55631082585433
 Nuclear repulsion Energy = 556.61134696839713
 SCF   energy in the final basis set =    -4921.6542550549
 Total energy in the final basis set =    -4921.6542550549
 
 --------------------------------------------------------------
 
                    Orbital Energies (a.u.)
 --------------------------------------------------------------
 
 Alpha MOs
 -- Occupied --
*******-453.911 -58.107 -58.106 -52.164 -52.164 -52.163 -52.162
-52.162 -52.162 -10.202 -10.191 -10.188  -7.841  -7.840  -5.783
 -5.781  -5.781  -5.779  -5.779  -5.779  -2.116  -2.115  -2.114
 -2.114  -2.113  -2.113  -2.111  -2.111  -2.110  -2.110  -0.795
 -0.725  -0.696  -0.681  -0.565  -0.476  -0.431  -0.422  -0.397
 -0.380  -0.374  -0.356  -0.325  -0.289  -0.259  -0.251  -0.192
 -- Virtual --
 -0.009   0.015   0.080   0.100   0.125   0.134   0.158   0.168
  0.177   0.178   0.224   0.259   0.262   0.267   0.298   0.313
  0.327   0.337   0.367   0.458   0.470   0.482   0.486   0.514
  0.522   0.535   0.556   0.588   0.604   0.617   0.622   0.638
  0.662   0.695   0.735   0.813   0.823   0.830   0.842   0.862
  0.882   0.890   0.921   0.941   1.049   1.076   1.214   1.245
  1.303   1.323   1.394   1.488   1.527   1.612   1.629   1.800
  1.811   1.881   1.952   2.013   2.036   2.068   2.072   2.080
  2.088   2.098   2.116   2.118   2.205   2.286   2.355   2.372
  2.459   2.497   2.542   2.613   2.627   2.649   2.658   2.686
  2.830   2.851   2.861   3.002   3.170   3.266   3.420   3.423
  3.461   3.652   4.166   4.175   4.194   4.214   4.243   4.270
  4.279   4.302   4.342   4.379   4.459   4.534   4.636   5.396
  5.468  89.521  89.794
 
 Beta MOs
 -- Occupied --
*******-453.909 -58.106 -58.104 -52.163 -52.161 -52.161 -52.160
-52.159 -52.159 -10.202 -10.191 -10.187  -7.837  -7.836  -5.781
 -5.779  -5.775  -5.774  -5.773  -5.773  -2.113  -2.112  -2.111
 -2.110  -2.110  -2.109  -2.106  -2.106  -2.105  -2.105  -0.795
 -0.700  -0.687  -0.647  -0.565  -0.476  -0.431  -0.421  -0.388
 -0.378  -0.364  -0.355  -0.281  -0.257  -0.239
 -- Virtual --
 -0.164  -0.102  -0.006   0.023   0.087   0.101   0.126   0.136
  0.161   0.169   0.179   0.183   0.239   0.264   0.269   0.279
  0.314   0.330   0.339   0.346   0.376   0.470   0.495   0.501
  0.520   0.533   0.538   0.548   0.563   0.596   0.610   0.633
  0.643   0.663   0.673   0.697   0.737   0.818   0.827   0.841
  0.850   0.869   0.882   0.895   0.922   0.942   1.053   1.078
  1.214   1.251   1.304   1.324   1.394   1.489   1.541   1.613
  1.643   1.800   1.811   1.882   1.952   2.013   2.036   2.068
  2.071   2.080   2.087   2.097   2.116   2.118   2.205   2.286
  2.355   2.372   2.459   2.497   2.542   2.614   2.627   2.649
  2.659   2.686   2.830   2.851   2.861   3.002   3.170   3.266
  3.420   3.423   3.462   3.653   4.179   4.188   4.196   4.223
  4.252   4.279   4.292   4.310   4.346   4.386   4.469   4.537
  4.638   5.412   5.484  89.527  89.800
 --------------------------------------------------------------
 
          Ground-State Mulliken Net Atomic Charges

     Atom                 Charge (a.u.)    Spin (a.u.)
  --------------------------------------------------------
      1 Se                   -0.053381       1.050780
      2 C                    -0.271788       0.004174
      3 C                    -0.030945      -0.002253
      4 C                    -0.349534       0.000442
      5 Se                   -0.100651       1.004130
      6 H                     0.070724      -0.027216
      7 H                     0.036146      -0.029897
      8 H                     0.125342       0.000229
      9 H                     0.120931      -0.000785
     10 H                     0.092850       0.000377
     11 H                     0.117208      -0.000051
     12 H                     0.120341       0.000210
     13 H                     0.122758      -0.000141
  --------------------------------------------------------
  Sum of atomic charges =     0.000000
  Sum of spin   charges =     2.000000

 -----------------------------------------------------------------
                    Cartesian Multipole Moments
 -----------------------------------------------------------------
    Charge (ESU x 10^10)
                -0.0000
    Dipole Moment (Debye)
         X      -0.5523      Y      -1.2109      Z      -0.2502
       Tot       1.3542
    Quadrupole Moments (Debye-Ang)
        XX     -55.7349     XY       3.1564     YY     -59.0305
        XZ       0.9663     YZ       0.5146     ZZ     -57.9420
    Octopole Moments (Debye-Ang^2)
       XXX     -33.8563    XXY       0.3242    XYY      -7.0218
       YYY      -0.7206    XXZ     -22.8639    XYZ       3.8124
       YYZ     -16.5163    XZZ      -9.8034    YZZ       0.2451
       ZZZ     -71.6194
    Hexadecapole Moments (Debye-Ang^3)
      XXXX    -591.5834   XXXY     -71.9765   XXYY    -268.7672
      XYYY     -67.2238   YYYY   -1107.2240   XXXZ     -82.3729
      XXYZ       2.7401   XYYZ     -22.2501   YYYZ     -27.2439
      XXZZ    -139.0093   XYZZ     -23.8590   YYZZ    -221.3331
      XZZZ     -85.1218   YZZZ     -20.1165   ZZZZ    -257.6485
 -----------------------------------------------------------------
 Calculating analytic gradient of the SCF energy
 Gradient of SCF Energy
            1           2           3           4           5           6
    1  -0.0080321   0.0081427  -0.0000250  -0.0000089  -0.0001025   0.0000649
    2  -0.0171874   0.0172062  -0.0000619  -0.0000187  -0.0001108   0.0001403
    3  -0.0098827   0.0098106  -0.0000376  -0.0000349   0.0000468   0.0000191
            7           8           9          10          11          12
    1  -0.0000346   0.0000455  -0.0000547   0.0000238  -0.0000164  -0.0000053
    2  -0.0000891   0.0000980  -0.0000365   0.0000688  -0.0000122  -0.0000021
    3   0.0001678   0.0000046   0.0000814  -0.0000290  -0.0000446  -0.0000426
           13
    1   0.0000026
    2   0.0000054
    3  -0.0000589
 Max gradient component =       1.721E-02
 RMS gradient           =       4.847E-03
 Gradient time:  CPU 18.06 s  wall 1.59 s
 Geometry Optimization Parameters
   NAtoms,    NIC,     NZ,  NCons,   NDum,   NFix, NCnnct, MaxDiis
       13     129       0       1       0       0       0       0

 Cartesian Hessian Update
 Hessian Updated using BFGS Update


** CONSTRAINED OPTIMIZATION IN DELOCALIZED INTERNAL COORDINATES **
   Searching for a Minimum

   Optimization Cycle:   9

                       Coordinates (Angstroms)
     ATOM                X               Y               Z
      1  Se        1.5571138347    0.0915295569    1.0906854282
      2  C         0.5305265512   -2.0815206819   -0.1397504042
      3  C        -0.7606649499   -1.9217414426   -0.4528518509
      4  C        -1.9160184832   -2.2849793326    0.4337240361
      5  Se       -0.2103248671    2.0506976907    0.1493333865
      6  H        -0.9644197149    0.8792861715   -0.3434407450
      7  H         2.3541386584    1.2414656585    1.6174022127
      8  H         1.3176093710   -1.8694594412   -0.8552442385
      9  H         0.8293810092   -2.5644533716    0.7864100045
     10  H        -1.0147341563   -1.4954754928   -1.4244140525
     11  H        -1.5749732927   -2.6937969180    1.3890220105
     12  H        -2.5542233271   -1.4171810379    0.6411733211
     13  H        -2.5554106334   -3.0337723591   -0.0505471086
   Point Group: c1    Number of degrees of freedom:    33


   Energy is  -4921.654255055

              Constraints and their Current Values
                                        Value     Constraint
   Distance(Angs):        1   2             2.700000     2.700000
 Hessian Updated using BFGS Update

 32 Hessian modes will be used to form the next step
  Hessian Eigenvalues:
     0.006088    0.020094    0.033682    0.045027    0.046934    0.049804
     0.052794    0.056994    0.062528    0.065348    0.080272    0.081971
     0.083160    0.083228    0.087880    0.096268    0.110069    0.121350
     0.143913    0.159996    0.160008    0.160092    0.172615    0.215454
     0.306762    0.311412    0.322551    0.339935    0.340021    0.343436
     0.344279    0.563498

 Minimum Search - Taking Simple RFO Step
 Searching for Lamda that Minimizes Along All modes
 Value Taken    Lamda =   0.00000000
 Step Taken.  Stepsize is  0.008004

                             Maximum     Tolerance    Cnvgd?
         Gradient           0.000091      0.000300     YES
         Displacement       0.003381      0.001200      NO
         Energy change     -0.000001      0.000001     YES


                       Distance Matrix (Angstroms)
             Se(  1)   C (  2)   C (  3)   C (  4)   Se(  5)   H (  6)
   C (  2)  2.700000
   C (  3)  3.436258  1.338184
   C (  4)  4.259347  2.521081  1.500933
   Se(  5)  2.801486  4.208047  4.055339  4.667801
   H (  6)  3.005896  3.323061  2.810559  3.394422  1.477731
   H (  7)  1.495002  4.177964  4.898350  5.663140  3.063749  3.871551
   H (  8)  2.772992  1.084620  2.117517  3.505773  4.325667  3.609044
   H (  9)  2.770636  1.086421  2.115915  2.782034  4.773518  4.043962
   H ( 10)  3.931757  2.093237  1.090957  2.210952  3.962209  2.609699
   H ( 11)  4.202025  2.673043  2.156772  1.093635  5.090120  4.017602
   H ( 12)  4.402427  3.250672  2.160630  1.097003  4.214493  2.961537
   H ( 13)  5.289875  3.230750  2.149319  1.097284  5.602786  4.234273
             H (  7)   H (  8)   H (  9)   H ( 10)   H ( 11)   H ( 12)
   H (  8)  4.106851
   H (  9)  4.183354  1.848354
   H ( 10)  5.300264  2.429742  3.071029
   H ( 11)  5.565642  3.752772  2.482094  3.108901
   H ( 12)  5.666872  4.175513  3.575766  2.577365  1.774248
   H ( 13)  6.720371  4.123523  3.518177  2.574403  1.774599  1.758365

 
 Final energy is   -4921.65425505494     


 ******************************
 **  OPTIMIZATION CONVERGED  **
 ******************************

                       Coordinates (Angstroms)
     ATOM                X               Y               Z
      1  Se        1.5571138347    0.0915295569    1.0906854282
      2  C         0.5305265512   -2.0815206819   -0.1397504042
      3  C        -0.7606649499   -1.9217414426   -0.4528518509
      4  C        -1.9160184832   -2.2849793326    0.4337240361
      5  Se       -0.2103248671    2.0506976907    0.1493333865
      6  H        -0.9644197149    0.8792861715   -0.3434407450
      7  H         2.3541386584    1.2414656585    1.6174022127
      8  H         1.3176093710   -1.8694594412   -0.8552442385
      9  H         0.8293810092   -2.5644533716    0.7864100045
     10  H        -1.0147341563   -1.4954754928   -1.4244140525
     11  H        -1.5749732927   -2.6937969180    1.3890220105
     12  H        -2.5542233271   -1.4171810379    0.6411733211
     13  H        -2.5554106334   -3.0337723591   -0.0505471086

Z-matrix Print:
$molecule
0 3
Se
H  1 1.495002
C  1 2.700000 2 169.212621
H  3 1.084620 1 82.377296 2 -19.797973 0
H  3 1.086421 1 82.222779 2 98.636396 0
C  3 1.338184 1 112.172391 2 -140.776315 0
H  6 1.090957 3 118.667745 1 89.920561 0
C  6 1.500933 3 125.143386 1 -90.077874 0
H  8 1.093635 6 111.492964 3 0.618507 0
H  8 1.097003 6 111.597281 3 121.713584 0
H  8 1.097284 6 110.670830 3 -119.852487 0
H  7 2.609699 6 88.978908 3 -90.109836 0
Se 12 1.477731 7 150.378676 6 79.437186 0
$end

PES scan, value:    2.7000 energy: -4921.6542550549
------- Summary of potential scan: ------ 
    2.7000     -4921.6542550549
----------------------------------------- 
Archival summary:
1\1\hpc0248\JobtypUnspecified\ProcedureUnspecified\6-31G**\e238(3)\knomura\ThuMar1410:28:052019ThuMar1410:28:052019\0\\#,JobtypUnspecified,ProcedureUnspecified,6-31G**,\\0,3\Se\H,1,1.495\C,1,2.7,2,169.213\H,3,1.08462,1,82.3773,2,-19.798,0\H,3,1.08642,1,82.2228,2,98.6364,0\C,3,1.33818,1,112.172,2,-140.776,0\H,6,1.09096,3,118.668,1,89.9206,0\C,6,1.50093,3,125.143,1,-90.0779,0\H,8,1.09364,6,111.493,3,0.618507,0\H,8,1.097,6,111.597,3,121.714,0\H,8,1.09728,6,110.671,3,-119.852,0\H,7,2.6097,6,88.9789,3,-90.1098,0\Se,12,1.47773,7,150.379,6,79.4372,0\\\@

 Total job time:  58.59s(wall), 675.71s(cpu) 
 Thu Mar 14 10:28:05 2019

        *************************************************************
        *                                                           *
        *  Thank you very much for using Q-Chem.  Have a nice day.  *
        *                                                           *
        *************************************************************


