
Running Job 1 of 1 selenium/03/C-Se.xyz.data/inputs/bond_triplet_5.5.in
qchem selenium/03/C-Se.xyz.data/inputs/bond_triplet_5.5.in_11871.0 /staging/scratch/2868765/qchem11871/ 1
/usr/usc/qchem/5.1.1/exe/qcprog.exe_s selenium/03/C-Se.xyz.data/inputs/bond_triplet_5.5.in_11871.0 /staging/scratch/2868765/qchem11871/
Check license passed

                  Welcome to Q-Chem
     A Quantum Leap Into The Future Of Chemistry


 Q-Chem 5.1, Q-Chem, Inc., Pleasanton, CA (2018)

 Yihan Shao,  Zhengting Gan,  E. Epifanovsky,  A. T. B. Gilbert,  M. Wormit,  
 J. Kussmann,  A. W. Lange,  A. Behn,  Jia Deng,  Xintian Feng,  D. Ghosh,  
 M. Goldey,  P. R. Horn,  L. D. Jacobson,  I. Kaliman,  T. Kus,  A. Landau,  
 Jie Liu,  E. I. Proynov,  R. M. Richard,  R. P. Steele,  E. J. Sundstrom,  
 H. L. Woodcock III,  P. M. Zimmerman,  D. Zuev,  B. Albrecht,  E. Alguire,  
 S. A. Baeppler,  D. Barton,  Z. Benda,  Y. A. Bernard,  E. J. Berquist,  
 K. B. Bravaya,  H. Burton,  D. Casanova,  Chun-Min Chang,  Yunqing Chen,  
 A. Chien,  K. D. Closser,  M. P. Coons,  S. Coriani,  S. Dasgupta,  
 A. L. Dempwolff,  M. Diedenhofen,  Hainam Do,  R. G. Edgar,  Po-Tung Fang,  
 S. Faraji,  S. Fatehi,  Qingguo Feng,  K. D. Fenk,  J. Fosso-Tande,  
 Qinghui Ge,  A. Ghysels,  G. Gidofalvi,  J. Gomes,  J. Gonthier,  A. Gunina,  
 D. Hait,  M. W. D. Hanson-Heine,  P. H. P. Harbach,  A. W. Hauser,  
 J. E. Herr,  E. G. Hohenstein,  Z. C. Holden,  Kerwin Hui,  B. C. Huynh,  
 T.-C. Jagau,  Hyunjun Ji,  B. Kaduk,  K. Khistyaev,  Jaehoon Kim,  
 P. Klunzinger,  K. Koh,  D. Kosenkov,  L. Koulias,  T. Kowalczyk,  
 C. M. Krauter,  A. Kunitsa,  Ka Un Lao,  A. Laurent,  K. V. Lawler,  
 Joonho Lee,  D. Lefrancois,  S. Lehtola,  D. S. Levine,  Yi-Pei Li,  
 You-Sheng Lin,  Fenglai Liu,  E. Livshits,  A. Luenser,  P. Manohar,  
 E. Mansoor,  S. F. Manzer,  Shan-Ping Mao,  Yuezhi Mao,  N. Mardirossian,  
 A. V. Marenich,  T. Markovich,  L. A. Martinez-Martinez,  S. A. Maurer,  
 N. J. Mayhall,  S. C. McKenzie,  J.-M. Mewes,  A. F. Morrison,  
 J. W. Mullinax,  K. Nanda,  T. S. Nguyen-Beck,  R. Olivares-Amaya,  
 J. A. Parkhill,  T. M. Perrine,  F. Plasser,  P. Pokhilko,  S. Prager,  
 A. Prociuk,  E. Ramos,  D. R. Rehn,  F. Rob,  M. Schneider,  N. Sergueev,  
 S. M. Sharada,  S. Sharma,  D. W. Small,  T. Stauch,  T. Stein,  
 Yu-Chuan Su,  A. J. W. Thom,  A. Tkatchenko,  T. Tsuchimochi,  N. M. Tubman,  
 L. Vogt,  M. L. Vidal,  O. Vydrov,  M. A. Watson,  J. Wenzel,  
 M. de Wergifosse,  T. A. Wesolowski,  A. White,  J. Witte,  A. Yamada,  
 Jun Yang,  K. Yao,  S. Yeganeh,  S. R. Yost,  Zhi-Qiang You,  A. Zech,  
 Igor Ying Zhang,  Xing Zhang,  Yan Zhao,  Ying Zhu,  B. R. Brooks,  
 G. K. L. Chan,  C. J. Cramer,  M. S. Gordon,  W. J. Hehre,  A. Klamt,  
 M. W. Schmidt,  C. D. Sherrill,  D. G. Truhlar,  A. Aspuru-Guzik,  R. Baer,  
 A. T. Bell,  N. A. Besley,  Jeng-Da Chai,  A. E. DePrince, III,  
 R. A. DiStasio Jr.,  A. Dreuw,  B. D. Dunietz,  T. R. Furlani,  
 Chao-Ping Hsu,  Yousung Jung,  Jing Kong,  D. S. Lambrecht,  WanZhen Liang,  
 C. Ochsenfeld,  V. A. Rassolov,  L. V. Slipchenko,  J. E. Subotnik,  
 T. Van Voorhis,  J. M. Herbert,  A. I. Krylov,  P. M. W. Gill,  M. Head-Gordon

 Contributors to earlier versions of Q-Chem not listed above: 
 R. D. Adamson,  B. Austin,  J. Baker,  G. J. O. Beran,  K. Brandhorst,  
 S. T. Brown,  E. F. C. Byrd,  A. K. Chakraborty,  C.-L. Cheng,  
 Siu Hung Chien,  D. M. Chipman,  D. L. Crittenden,  H. Dachsel,  
 R. J. Doerksen,  A. D. Dutoi,  L. Fusti-Molnar,  W. A. Goddard III,  
 A. Golubeva-Zadorozhnaya,  S. R. Gwaltney,  G. Hawkins,  A. Heyden,  
 S. Hirata,  G. Kedziora,  F. J. Keil,  C. Kelley,  Jihan Kim,  R. A. King,  
 R. Z. Khaliullin,  P. P. Korambath,  W. Kurlancheek,  A. M. Lee,  M. S. Lee,  
 S. V. Levchenko,  Ching Yeh Lin,  D. Liotard,  R. C. Lochan,  I. Lotan,  
 P. E. Maslen,  N. Nair,  D. P. O'Neill,  D. Neuhauser,  E. Neuscamman,  
 C. M. Oana,  R. Olson,  B. Peters,  R. Peverati,  P. A. Pieniazek,  
 Y. M. Rhee,  J. Ritchie,  M. A. Rohrdanz,  E. Rosta,  N. J. Russ,  
 H. F. Schaefer III,  N. E. Schultz,  N. Shenvi,  A. C. Simmonett,  A. Sodt,  
 D. Stuck,  K. S. Thanthiriwatte,  V. Vanovschi,  Tao Wang,  A. Warshel,  
 C. F. Williams,  Q. Wu,  X. Xu,  W. Zhang

 Please cite Q-Chem as follows:
 Y. Shao et al., Mol. Phys. 113, 184-215 (2015)
 DOI: 10.1080/00268976.2014.952696

 Q-Chem 5.1.1 for Intel X86 EM64T Linux

 Parts of Q-Chem use Armadillo 8.300.2 (Tropical Shenanigans).
 http://arma.sourceforge.net/

 Q-Chem begins on Thu Mar 14 09:12:03 2019  

Host: 
0

     Scratch files written to /staging/scratch/2868765/qchem11871//
 Aug318 |scratch|qcdevops|jenkins|workspace|build_RNUM 6013   
Processing $rem in /usr/usc/qchem/5.1.1/config/preferences.
 MEM_TOTAL  2000 
Input Ideriv = 2
Curr. Ideriv = -1
Max.  Ideriv = 2

Checking the input file for inconsistencies... 	...done.

--------------------------------------------------------------
User input:
--------------------------------------------------------------

$comment
potential surface scanner
$end

$rem
JOBTYPE  PES_SCAN
UNRESTRICTED TRUE
SYM_IGNORE  TRUE
GEOM_OPT_MAX_CYCLES 400
SCF_MAX_CYCLES 400
METHOD   B3LYP
BASIS   6-31G**
PDB_PRINT 2
SCF_CONVERGENCE 6
THRESH 14
SCF_PRINT 1
$end
$molecule
0 3
Se 3.583021 2.071633 -0.010152
C 0.223524 -2.368865 0.586303
C -0.746314 -1.661817 -0.225566
C -2.210452 -2.009780 0.013025
Se -0.462238 0.414644 0.106589
H -0.672232 0.291441 1.559437
H 2.322448 1.278480 -0.006733
H 1.262412 -2.433011 0.283964
H -0.029268 -2.672264 1.598104
H -0.493203 -1.683359 -1.288792
H -2.478880 -1.893434 1.067715
H -2.874411 -1.376766 -0.578961
H -2.386409 -3.056302 -0.263430
$end
$scan
stre 1 2 5.500000 5.501000 0.100000
$end
--------------------------------------------------------------
 ----------------------------------------------------------------
             Standard Nuclear Orientation (Angstroms)
    I     Atom           X                Y                Z
 ----------------------------------------------------------------
    1      Se      3.5830210000     2.0716330000    -0.0101520000
    2      C       0.2235240000    -2.3688650000     0.5863030000
    3      C      -0.7463140000    -1.6618170000    -0.2255660000
    4      C      -2.2104520000    -2.0097800000     0.0130250000
    5      Se     -0.4622380000     0.4146440000     0.1065890000
    6      H      -0.6722320000     0.2914410000     1.5594370000
    7      H       2.3224480000     1.2784800000    -0.0067330000
    8      H       1.2624120000    -2.4330110000     0.2839640000
    9      H      -0.0292680000    -2.6722640000     1.5981040000
   10      H      -0.4932030000    -1.6833590000    -1.2887920000
   11      H      -2.4788800000    -1.8934340000     1.0677150000
   12      H      -2.8744110000    -1.3767660000    -0.5789610000
   13      H      -2.3864090000    -3.0563020000    -0.2634300000
 ----------------------------------------------------------------
 Nuclear Repulsion Energy =   478.2682843142 hartrees
 There are       48 alpha and       46 beta electrons
 Requested basis set is 6-31G(d,p)
 There are 52 shells and 155 basis functions

 Total QAlloc Memory Limit   2000 MB
 Mega-Array Size       188 MB
 MEM_STATIC part       192 MB
A total of 1 constraints
  
            1
    1   1.0100000
    2   1.0100000
    3   2.0100000
    4   5.5000000
    5   5.5010000
    6   0.1000000
    7   0.0000000
    8   0.0000000
    9   0.0000000
   10   0.0000000

                       Distance Matrix (Angstroms)
             Se(  1)   C (  2)   C (  3)   C (  4)   Se(  5)   H (  6)
   C (  2)  5.600000
   C (  3)  5.720856  1.449011
   C (  4)  7.086805  2.526228  1.523714
   Se(  5)  4.373027  2.906599  2.121961  2.990458
   H (  6)  4.872358  2.970959  2.647063  3.170667  1.473107
   H (  7)  1.489345  4.249741  4.255647  5.600020  2.917796  3.520688
   H (  8)  5.075781  1.083887  2.211185  3.509034  3.333919  3.576635
   H (  9)  6.175733  1.086138  2.204752  2.776495  3.455587  3.032894
   H ( 10)  5.687749  2.121225  1.093151  2.179500  2.519854  3.470489
   H ( 11)  7.323264  2.785818  2.174398  1.094514  3.212138  2.877403
   H ( 12)  7.342576  3.455329  2.175991  1.091786  3.081835  3.493602
   H ( 13)  7.873624  2.829552  2.153122  1.096630  3.985827  4.179549
             H (  7)   H (  8)   H (  9)   H ( 10)   H ( 11)   H ( 12)
   H (  8)  3.870833
   H (  9)  4.869748  1.858129
   H ( 10)  4.282996  2.473403  3.086639
   H ( 11)  5.853907  3.860398  2.624593  3.088717
   H ( 12)  5.863883  4.355869  3.809562  2.503600  1.770574
   H ( 13)  6.405432  3.741928  3.028020  2.553540  1.769960  1.777230

 
 A cutoff of  1.0D-14 yielded   1155 shell pairs
 There are      9978 function pairs
 
 -------------------------------------------------------
 OpenMP Integral Computing Module                       
 Release: version 1.0, May 2013, Q-Chem Inc. Pittsburgh 
 -------------------------------------------------------
 Integral Job Info:
 Integral job number is                      11
 Integral operator is                         1
 short-range coefficients                     0
 long-range coefficients              100000000
 Omega coefficients                           0
 if combine SR and LR in K                    0
 Integral screening is                        0
 Integral computing path is                   2
 max size of driver memory is            800000
 size of driver memory is                593474
 size of scratch memory is             15267112
 max col of scratch BK array               1296
 max len of scratch array in speh3          155
 max len of scratch index in speh4           18
 max int batch size is                      520
 min int batch size is                       52
 fixed nKL is                                52
 max L of basis functions is                  2
 order of int derivative is                   0
 number of shells is                         52
 number of basis is                         155
 number of cartesian basis is               155
 number of contracted shell pairs          1155
 number of primitive shell pairs           4564
 maxK2 (contraction) of shell pair           36
 max number of K2 of shell pair               1
 max number of CS2 of shell pair             87
 max number of PS2 of shell pair            438
 mem total for path MDJ                  528444
 -------------------------------------------------------
 Smallest overlap matrix eigenvalue = 6.74E-04

 Scale SEOQF with 1.000000e-01/1.000000e-01/1.000000e-01

 Standard Electronic Orientation quadrupole field applied
 Nucleus-field energy     =     0.0000000353 hartrees
 Guess from superposition of atomic densities
 Warning:  Energy on first SCF cycle will be non-variational
 SAD guess density has 93.936381 electrons

 -----------------------------------------------------------------------
  General SCF calculation program by
  Eric Jon Sundstrom, Paul Horn, Yuezhi Mao, Dmitri Zuev, Alec White,
  David Stuck, Shaama M.S., Shane Yost, Joonho Lee, David Small,
  Daniel Levine, Susi Lehtola, Hugh Burton, Evgeny Epifanovsky
 -----------------------------------------------------------------------
 Exchange:     0.2000 Hartree-Fock + 0.0800 Slater + 0.7200 B88
 Correlation:  0.1900 VWN1RPA + 0.8100 LYP
 Using SG-1 standard quadrature grid
 using 12 threads for integral computing
 -------------------------------------------------------
 OpenMP Integral computing Module                
 Release: version 1.0, May 2013, Q-Chem Inc. Pittsburgh 
 -------------------------------------------------------
 -------------------------------------------------------
 OpenMP BLAS3 based DFT computing Module                
 Release: version 1.0, May 2013, Q-Chem Inc. Pittsburgh 
 -------------------------------------------------------
 A unrestricted SCF calculation will be
 performed using DIIS
 SCF converges when DIIS error is below 1.0e-06
 Alpha HF Exchange    Energy = -18.84214812731046
 Beta HF Exchange     Energy = -18.84214812731046
 DFT Correlation      Energy =  -5.12559361313903
 DFT Exchange         Energy = -149.84860736952777
 One-Electron (alpha) Energy = -3895.92758239470322
 One-Electron (beta)  Energy = -3895.92758239470322
 Total Coulomb        Energy = 2578.86720952687119
 ---------------------------------------
  Cycle       Energy         DIIS error
 ---------------------------------------
    1   -4927.3781681503      1.50e-01  
 Alpha HF Exchange    Energy = -19.06273673290457
 Beta HF Exchange     Energy = -18.87265448049749
 DFT Correlation      Energy =  -5.17331228803910
 DFT Exchange         Energy = -151.02055547311863
 One-Electron (alpha) Energy = -3928.28234697256721
 One-Electron (beta)  Energy = -3883.29558620145690
 Total Coulomb        Energy = 2605.93032696756109
    2   -4921.5085808315      9.30e-03  
 Alpha HF Exchange    Energy = -18.92518951837671
 Beta HF Exchange     Energy = -18.75206319893343
 DFT Correlation      Energy =  -5.13054079137983
 DFT Exchange         Energy = -149.96870637372626
 One-Electron (alpha) Energy = -3913.93730437981731
 One-Electron (beta)  Energy = -3870.56640493599252
 Total Coulomb        Energy = 2577.47328496595537
    3   -4921.5386398827      3.39e-03  
 Alpha HF Exchange    Energy = -19.04038734726189
 Beta HF Exchange     Energy = -18.85809974564182
 DFT Correlation      Energy =  -5.16280499977884
 DFT Exchange         Energy = -150.84355474195624
 One-Electron (alpha) Energy = -3925.19318891832199
 One-Electron (beta)  Energy = -3880.88370743494488
 Total Coulomb        Energy = 2600.12784883754148
    4   -4921.5856100008      2.51e-03  
 Alpha HF Exchange    Energy = -18.99805012573468
 Beta HF Exchange     Energy = -18.81808101332811
 DFT Correlation      Energy =  -5.15002999147526
 DFT Exchange         Energy = -150.51329955330397
 One-Electron (alpha) Energy = -3921.40984904912739
 One-Electron (beta)  Energy = -3877.47381898032927
 Total Coulomb        Energy = 2592.45683626661094
    5   -4921.6380080971      4.27e-04  
 Alpha HF Exchange    Energy = -18.99553706875131
 Beta HF Exchange     Energy = -18.81614477911421
 DFT Correlation      Energy =  -5.15000158623755
 DFT Exchange         Energy = -150.49773623953169
 One-Electron (alpha) Energy = -3920.96863606326315
 One-Electron (beta)  Energy = -3877.04500379579531
 Total Coulomb        Energy = 2591.56440006983894
    6   -4921.6403751133      8.51e-05  
 Alpha HF Exchange    Energy = -18.99486490462997
 Beta HF Exchange     Energy = -18.81574909115339
 DFT Correlation      Energy =  -5.14950054063937
 DFT Exchange         Energy = -150.49257476939337
 One-Electron (alpha) Energy = -3920.89544984281247
 One-Electron (beta)  Energy = -3877.01422159550748
 Total Coulomb        Energy = 2591.45359787438201
    7   -4921.6404785202      2.70e-05  
 Alpha HF Exchange    Energy = -18.99501745241153
 Beta HF Exchange     Energy = -18.81580185274401
 DFT Correlation      Energy =  -5.14947039257359
 DFT Exchange         Energy = -150.49320065491361
 One-Electron (alpha) Energy = -3920.88746805027677
 One-Electron (beta)  Energy = -3877.01265405119511
 Total Coulomb        Energy = 2591.44483570598277
    8   -4921.6404923986      1.30e-05  
 Alpha HF Exchange    Energy = -18.99511084419979
 Beta HF Exchange     Energy = -18.81591745023736
 DFT Correlation      Energy =  -5.14946769756842
 DFT Exchange         Energy = -150.49388448086327
 One-Electron (alpha) Energy = -3920.90102829543957
 One-Electron (beta)  Energy = -3877.03322521335849
 Total Coulomb        Energy = 2591.47985286458243
    9   -4921.6404967675      4.06e-06  
 Alpha HF Exchange    Energy = -18.99511787916883
 Beta HF Exchange     Energy = -18.81590962354161
 DFT Correlation      Energy =  -5.14945767551439
 DFT Exchange         Energy = -150.49384748663704
 One-Electron (alpha) Energy = -3920.89399887318677
 One-Electron (beta)  Energy = -3877.02891753209951
 Total Coulomb        Energy = 2591.46846738769727
   10   -4921.6404973329      2.15e-06  
 Alpha HF Exchange    Energy = -18.99512274224243
 Beta HF Exchange     Energy = -18.81591951206511
 DFT Correlation      Energy =  -5.14945300807869
 DFT Exchange         Energy = -150.49388990888230
 One-Electron (alpha) Energy = -3920.89533381997580
 One-Electron (beta)  Energy = -3877.03104388054999
 Total Coulomb        Energy = 2591.47198106591395
   11   -4921.6404974563      6.78e-07  Convergence criterion met
 ---------------------------------------
 SCF time:   CPU 49.19s  wall 4.00s 
<S^2> =          2.011628855
 Alpha HF Exchange    Energy = -18.99512274224243
 Beta HF Exchange     Energy = -18.81591951206511
 DFT Correlation      Energy =  -5.14945300807869
 DFT Exchange         Energy = -150.49388990888230
 One-Electron (alpha) Energy = -3920.89533381997580
 One-Electron (beta)  Energy = -3877.03104388054999
 Total Coulomb        Energy = 2591.47198106591395
 Nuclear repulsion Energy = 478.26828434955127
 SCF   energy in the final basis set =    -4921.6404974563
 Total energy in the final basis set =    -4921.6404974563
 
 --------------------------------------------------------------
 
                    Orbital Energies (a.u.)
 --------------------------------------------------------------
 
 Alpha MOs
 -- Occupied --
*******-453.898 -58.102 -58.094 -52.161 -52.158 -52.155 -52.151
-52.150 -52.148 -10.242 -10.209 -10.196  -7.835  -7.827  -5.784
 -5.777  -5.772  -5.769  -5.765  -5.759  -2.116  -2.115  -2.106
 -2.106  -2.105  -2.101  -2.099  -2.097  -2.095  -2.093  -0.816
 -0.701  -0.695  -0.690  -0.584  -0.481  -0.439  -0.431  -0.389
 -0.382  -0.378  -0.361  -0.337  -0.286  -0.243  -0.242  -0.206
 -- Virtual --
 -0.010   0.029   0.041   0.097   0.119   0.129   0.151   0.158
  0.167   0.177   0.204   0.231   0.247   0.256   0.267   0.287
  0.301   0.323   0.391   0.440   0.451   0.494   0.509   0.518
  0.539   0.541   0.541   0.554   0.570   0.580   0.627   0.661
  0.689   0.721   0.745   0.759   0.797   0.808   0.857   0.873
  0.889   0.903   0.931   0.990   1.012   1.057   1.110   1.185
  1.333   1.408   1.427   1.481   1.519   1.640   1.719   1.772
  1.835   1.881   1.912   1.977   2.019   2.036   2.071   2.077
  2.083   2.089   2.098   2.116   2.117   2.268   2.298   2.348
  2.401   2.489   2.558   2.585   2.597   2.622   2.643   2.700
  2.746   2.825   2.865   2.917   3.179   3.271   3.379   3.406
  3.457   3.513   4.197   4.219   4.219   4.240   4.261   4.263
  4.296   4.336   4.384   4.391   4.421   4.469   4.602   5.402
  5.484  89.570  89.819
 
 Beta MOs
 -- Occupied --
*******-453.898 -58.101 -58.093 -52.157 -52.157 -52.154 -52.151
-52.150 -52.147 -10.244 -10.197 -10.195  -7.832  -7.826  -5.775
 -5.775  -5.771  -5.767  -5.764  -5.759  -2.110  -2.110  -2.105
 -2.104  -2.101  -2.100  -2.098  -2.096  -2.094  -2.093  -0.809
 -0.693  -0.673  -0.660  -0.576  -0.476  -0.436  -0.426  -0.386
 -0.378  -0.369  -0.358  -0.318  -0.235  -0.230
 -- Virtual --
 -0.163  -0.084   0.002   0.036   0.046   0.100   0.121   0.137
  0.158   0.160   0.168   0.181   0.209   0.235   0.254   0.261
  0.285   0.293   0.306   0.334   0.396   0.447   0.457   0.505
  0.523   0.546   0.550   0.561   0.583   0.586   0.587   0.608
  0.636   0.665   0.692   0.727   0.753   0.764   0.807   0.814
  0.859   0.875   0.891   0.910   0.932   1.001   1.018   1.062
  1.116   1.190   1.348   1.422   1.428   1.503   1.535   1.646
  1.724   1.772   1.839   1.886   1.931   1.995   2.027   2.037
  2.071   2.078   2.080   2.095   2.099   2.116   2.125   2.274
  2.299   2.351   2.412   2.503   2.569   2.597   2.598   2.623
  2.644   2.704   2.748   2.826   2.865   2.920   3.180   3.274
  3.383   3.408   3.458   3.518   4.212   4.232   4.233   4.253
  4.264   4.264   4.300   4.339   4.390   4.394   4.431   4.473
  4.605   5.417   5.488  89.575  89.820
 --------------------------------------------------------------
 
          Ground-State Mulliken Net Atomic Charges

     Atom                 Charge (a.u.)    Spin (a.u.)
  --------------------------------------------------------
      1 Se                   -0.116350       1.025931
      2 C                    -0.197653       0.925270
      3 C                    -0.149650      -0.114156
      4 C                    -0.307691       0.007244
      5 Se                   -0.116631       0.259958
      6 H                     0.060851      -0.006433
      7 H                     0.095309      -0.026568
      8 H                     0.120121      -0.040797
      9 H                     0.111879      -0.041032
     10 H                     0.137869       0.012101
     11 H                     0.115053      -0.000936
     12 H                     0.128946       0.000943
     13 H                     0.117946      -0.001526
  --------------------------------------------------------
  Sum of atomic charges =    -0.000000
  Sum of spin   charges =     2.000000

 -----------------------------------------------------------------
                    Cartesian Multipole Moments
 -----------------------------------------------------------------
    Charge (ESU x 10^10)
                -0.0000
    Dipole Moment (Debye)
         X      -1.7584      Y      -2.5320      Z       0.3500
       Tot       3.1025
    Quadrupole Moments (Debye-Ang)
        XX     -63.0803     XY      -1.8198     YY     -57.9498
        XZ      -1.4613     YZ       1.4724     ZZ     -56.4499
    Octopole Moments (Debye-Ang^2)
       XXX    -137.0333    XXY     -23.2990    XYY     -46.7854
       YYY     -21.2905    XXZ     -11.3513    XYZ       2.3238
       YYZ       0.9116    XZZ     -48.0002    YZZ     -12.0634
       ZZZ     -14.5273
    Hexadecapole Moments (Debye-Ang^3)
      XXXX   -1846.7419   XXXY    -541.9064   XXYY    -491.7116
      XYYY    -515.3730   YYYY   -1097.9192   XXXZ     -27.7536
      XXYZ      12.3721   XYYZ      15.0560   YYYZ      37.0372
      XXZZ    -341.1789   XYZZ    -182.7547   YYZZ    -202.3620
      XZZZ      -2.4118   YZZZ      20.9234   ZZZZ    -114.1152
 -----------------------------------------------------------------
 Calculating analytic gradient of the SCF energy
 Gradient of SCF Energy
            1           2           3           4           5           6
    1   0.0000282   0.0000117  -0.0000829  -0.0000031   0.0000871   0.0000040
    2  -0.0000386   0.0000141   0.0000240  -0.0000087  -0.0000561   0.0000380
    3  -0.0000366   0.0000470   0.0000239  -0.0000094  -0.0000320  -0.0000344
            7           8           9          10          11          12
    1  -0.0000168  -0.0000103  -0.0000148   0.0000068  -0.0000116   0.0000053
    2   0.0000159  -0.0000093   0.0000302  -0.0000433   0.0000340  -0.0000022
    3  -0.0000737   0.0000373   0.0000376   0.0000092   0.0000033  -0.0000089
           13
    1  -0.0000035
    2   0.0000020
    3   0.0000368
 Max gradient component =       8.712E-05
 RMS gradient           =       3.346E-05
 Gradient time:  CPU 16.73 s  wall 1.47 s
 Geometry Optimization Parameters
   NAtoms,    NIC,     NZ,  NCons,   NDum,   NFix, NCnnct, MaxDiis
       13      80       0       1       0       0       0       0


** CONSTRAINED OPTIMIZATION IN DELOCALIZED INTERNAL COORDINATES **
   Searching for a Minimum

   Optimization Cycle:   1

                       Coordinates (Angstroms)
     ATOM                X               Y               Z
      1  Se        3.5830210000    2.0716330000   -0.0101520000
      2  C         0.2235240000   -2.3688650000    0.5863030000
      3  C        -0.7463140000   -1.6618170000   -0.2255660000
      4  C        -2.2104520000   -2.0097800000    0.0130250000
      5  Se       -0.4622380000    0.4146440000    0.1065890000
      6  H        -0.6722320000    0.2914410000    1.5594370000
      7  H         2.3224480000    1.2784800000   -0.0067330000
      8  H         1.2624120000   -2.4330110000    0.2839640000
      9  H        -0.0292680000   -2.6722640000    1.5981040000
     10  H        -0.4932030000   -1.6833590000   -1.2887920000
     11  H        -2.4788800000   -1.8934340000    1.0677150000
     12  H        -2.8744110000   -1.3767660000   -0.5789610000
     13  H        -2.3864090000   -3.0563020000   -0.2634300000
   Point Group: c1    Number of degrees of freedom:    33


   Energy is  -4921.640497456

              Constraints and their Current Values
                                        Value     Constraint
   Distance(Angs):        1   2             5.600000     5.500000

 Attempting to Generate Delocalized Internal Coordinates

   Using Lagrange Multiplier Algorithm


 34 Hessian modes will be used to form the next step
  Hessian Eigenvalues:
    -0.998835    0.019059    0.045000    0.045000    0.045000    0.045825
     0.046561    0.071201    0.078219    0.078957    0.082429    0.084126
     0.097518    0.114490    0.133650    0.160000    0.160000    0.160000
     0.160000    0.160000    0.160000    0.172617    0.181020    0.182826
     0.192985    0.300117    0.340576    0.342961    0.344510    0.346071
     0.352628    0.355287    0.383727    1.001166

 Minimum Search - Taking P-RFO Step
 Searching for Lamda that Maximizes Along the Constraint modes Only
 Value Taken    Lamda =   0.01758351
 Searching for Lamda that Minimizes Along All other modes
 Value Taken    Lamda =  -0.01751156
 Step Taken.  Stepsize is  0.185718

                             Maximum     Tolerance    Cnvgd?
         Gradient            0.188973       0.000300      NO
         Displacement        0.185714       0.001200      NO
         Energy change     *********       0.000001      NO


 New Cartesian Coordinates Obtained by Inverse Iteration

 Displacement from previous Coordinates is:  0.261215
 ----------------------------------------------------------------
             Standard Nuclear Orientation (Angstroms)
    I     Atom           X                Y                Z
 ----------------------------------------------------------------
    1      Se      3.5870272540     1.9899324425    -0.0116061220
    2      C       0.2370391908    -2.3335082718     0.5837197558
    3      C      -0.7487623690    -1.6459517690    -0.2252680476
    4      C      -2.2071445721    -2.0190705029     0.0106161756
    5      Se     -0.4902392949     0.4285792856     0.1168695323
    6      H      -0.6964308728     0.2988279688     1.5696875452
    7      H       2.3081811045     1.2345406464    -0.0046851744
    8      H       1.2763633814    -2.3760464301     0.2790690520
    9      H      -0.0072481708    -2.6428648645     1.5958073754
   10      H      -0.4959076116    -1.6604050195    -1.2886700493
   11      H      -2.4784603574    -1.9108723035     1.0654378430
   12      H      -2.8809984437    -1.3951514601    -0.5798422847
   13      H      -2.3654212383    -3.0674097219    -0.2696326011
 ----------------------------------------------------------------
 Nuclear Repulsion Energy =   479.5998083736 hartrees
 There are       48 alpha and       46 beta electrons

                       Distance Matrix (Angstroms)
             Se(  1)   C (  2)   C (  3)   C (  4)   Se(  5)   H (  6)
   C (  2)  5.501725
   C (  3)  5.662542  1.448793
   C (  4)  7.045923  2.530090  1.523725
   Se(  5)  4.367886  2.894134  2.118389  2.991662
   H (  6)  4.869121  2.961873  2.647031  3.175785  1.473102
   H (  7)  1.485299  4.167352  4.206043  5.565464  2.914705  3.518793
   H (  8)  4.948276  1.083889  2.211002  3.512026  3.318602  3.565469
   H (  9)  6.079918  1.086140  2.204540  2.782354  3.443008  3.021459
   H ( 10)  5.623719  2.120406  1.093146  2.178329  2.517822  3.471169
   H ( 11)  7.291532  2.790092  2.174387  1.094517  3.213384  2.883171
   H ( 12)  7.322366  3.457824  2.176018  1.091785  3.086605  3.501768
   H ( 13)  7.815045  2.835423  2.153160  1.096634  3.985929  4.183322
             H (  7)   H (  8)   H (  9)   H ( 10)   H ( 11)   H ( 12)
   H (  8)  3.765834
   H (  9)  4.791353  1.858131
   H ( 10)  4.229922  2.472022  3.086134
   H ( 11)  5.826725  3.864384  2.631348  3.087891
   H ( 12)  5.845825  4.357011  3.814273  2.502290  1.770579
   H ( 13)  6.357636  3.747219  3.036624  2.552093  1.769963  1.777216

 
 Applying Cartesian multipole field
    Component          Value
    ---------          -----
     (2,0,0)        1.00000E-11
     (0,2,0)        2.00000E-11
     (0,0,2)       -3.00000E-11
 Nucleus-field energy     =     0.0000000345 hartrees
 Requested basis set is 6-31G(d,p)
 There are 52 shells and 155 basis functions
 A cutoff of  1.0D-14 yielded   1158 shell pairs
 There are     10006 function pairs
 Smallest overlap matrix eigenvalue = 6.74E-04
 Guess from superposition of atomic densities
 Warning:  Energy on first SCF cycle will be non-variational
 SAD guess density has 93.936381 electrons

 -----------------------------------------------------------------------
  General SCF calculation program by
  Eric Jon Sundstrom, Paul Horn, Yuezhi Mao, Dmitri Zuev, Alec White,
  David Stuck, Shaama M.S., Shane Yost, Joonho Lee, David Small,
  Daniel Levine, Susi Lehtola, Hugh Burton, Evgeny Epifanovsky
 -----------------------------------------------------------------------
 Exchange:     0.2000 Hartree-Fock + 0.0800 Slater + 0.7200 B88
 Correlation:  0.1900 VWN1RPA + 0.8100 LYP
 Using SG-1 standard quadrature grid
 using 12 threads for integral computing
 -------------------------------------------------------
 OpenMP Integral computing Module                
 Release: version 1.0, May 2013, Q-Chem Inc. Pittsburgh 
 -------------------------------------------------------
 -------------------------------------------------------
 OpenMP BLAS3 based DFT computing Module                
 Release: version 1.0, May 2013, Q-Chem Inc. Pittsburgh 
 -------------------------------------------------------
 A unrestricted SCF calculation will be
 performed using DIIS
 SCF converges when DIIS error is below 1.0e-06
 Alpha HF Exchange    Energy = -18.84260336559127
 Beta HF Exchange     Energy = -18.84260336559127
 DFT Correlation      Energy =  -5.12575324352813
 DFT Exchange         Energy = -149.84952138636078
 One-Electron (alpha) Energy = -3897.25586665003675
 One-Electron (beta)  Energy = -3897.25586665003675
 Total Coulomb        Energy = 2580.18722493624364
 ---------------------------------------
  Cycle       Energy         DIIS error
 ---------------------------------------
    1   -4927.3851813168      1.50e-01  
 Alpha HF Exchange    Energy = -19.06302385007673
 Beta HF Exchange     Energy = -18.87285992659397
 DFT Correlation      Energy =  -5.17347162269733
 DFT Exchange         Energy = -151.02206323390715
 One-Electron (alpha) Energy = -3929.63840021049828
 One-Electron (beta)  Energy = -3884.56801033964575
 Total Coulomb        Energy = 2607.22936404328175
    2   -4921.5086567321      9.30e-03  
 Alpha HF Exchange    Energy = -18.92545993685612
 Beta HF Exchange     Energy = -18.75235828879526
 DFT Correlation      Energy =  -5.13070144673082
 DFT Exchange         Energy = -149.97049363262326
 One-Electron (alpha) Energy = -3915.33143437778426
 One-Electron (beta)  Energy = -3871.87639832012655
 Total Coulomb        Energy = 2578.84843666227925
    3   -4921.5386009326      3.39e-03  
 Alpha HF Exchange    Energy = -19.04062167231436
 Beta HF Exchange     Energy = -18.85817265493753
 DFT Correlation      Energy =  -5.16299650771287
 DFT Exchange         Energy = -150.84459147252801
 One-Electron (alpha) Energy = -3926.53933991083750
 One-Electron (beta)  Energy = -3882.14049224019800
 Total Coulomb        Energy = 2601.40108425502922
    4   -4921.5853217954      2.51e-03  
 Alpha HF Exchange    Energy = -18.99831772632381
 Beta HF Exchange     Energy = -18.81831753022478
 DFT Correlation      Energy =  -5.15018893335863
 DFT Exchange         Energy = -150.51490271924834
 One-Electron (alpha) Energy = -3922.78928192325702
 One-Electron (beta)  Energy = -3878.76606805842994
 Total Coulomb        Energy = 2593.79937259833241
    5   -4921.6378958844      4.34e-04  
 Alpha HF Exchange    Energy = -18.99579637323811
 Beta HF Exchange     Energy = -18.81633586972930
 DFT Correlation      Energy =  -5.15017412475072
 DFT Exchange         Energy = -150.49918801459648
 One-Electron (alpha) Energy = -3922.34195660071828
 One-Electron (beta)  Energy = -3878.32986668425565
 Total Coulomb        Energy = 2592.89316754006450
    6   -4921.6403417192      8.40e-05  
 Alpha HF Exchange    Energy = -18.99511621100376
 Beta HF Exchange     Energy = -18.81593815587559
 DFT Correlation      Energy =  -5.14967449519338
 DFT Exchange         Energy = -150.49399629392792
 One-Electron (alpha) Energy = -3922.26697679598419
 One-Electron (beta)  Energy = -3878.29732484801070
 Total Coulomb        Energy = 2592.77877524085170
    7   -4921.6404431511      2.67e-05  
 Alpha HF Exchange    Energy = -18.99526892901905
 Beta HF Exchange     Energy = -18.81599216182144
 DFT Correlation      Energy =  -5.14964355233205
 DFT Exchange         Energy = -150.49462358978894
 One-Electron (alpha) Energy = -3922.26004250724782
 One-Electron (beta)  Energy = -3878.29670968492201
 Total Coulomb        Energy = 2592.77201522860605
    8   -4921.6404567885      1.29e-05  
 Alpha HF Exchange    Energy = -18.99536136105881
 Beta HF Exchange     Energy = -18.81610699916785
 DFT Correlation      Energy =  -5.14964139142728
 DFT Exchange         Energy = -150.49530266151712
 One-Electron (alpha) Energy = -3922.27319681933204
 One-Electron (beta)  Energy = -3878.31685098392609
 Total Coulomb        Energy = 2592.80619074737024
    9   -4921.6404610610      4.03e-06  
 Alpha HF Exchange    Energy = -18.99536848643939
 Beta HF Exchange     Energy = -18.81609929249861
 DFT Correlation      Energy =  -5.14963129568974
 DFT Exchange         Energy = -150.49526630021347
 One-Electron (alpha) Energy = -3922.26626081531276
 One-Electron (beta)  Energy = -3878.31264649402419
 Total Coulomb        Energy = 2592.79500266342529
   10   -4921.6404616127      2.13e-06  
 Alpha HF Exchange    Energy = -18.99537320159650
 Beta HF Exchange     Energy = -18.81610915912954
 DFT Correlation      Energy =  -5.14962670863941
 DFT Exchange         Energy = -150.49530820406153
 One-Electron (alpha) Energy = -3922.26756929438307
 One-Electron (beta)  Energy = -3878.31475960952412
 Total Coulomb        Energy = 2592.79847604187944
   11   -4921.6404617274      6.55e-07  Convergence criterion met
 ---------------------------------------
 SCF time:   CPU 48.53s  wall 4.00s 
<S^2> =          2.011534396
 Alpha HF Exchange    Energy = -18.99537320159650
 Beta HF Exchange     Energy = -18.81610915912954
 DFT Correlation      Energy =  -5.14962670863941
 DFT Exchange         Energy = -150.49530820406153
 One-Electron (alpha) Energy = -3922.26756929438307
 One-Electron (beta)  Energy = -3878.31475960952412
 Total Coulomb        Energy = 2592.79847604187944
 Nuclear repulsion Energy = 479.59980840806583
 SCF   energy in the final basis set =    -4921.6404617274
 Total energy in the final basis set =    -4921.6404617274
 
 --------------------------------------------------------------
 
                    Orbital Energies (a.u.)
 --------------------------------------------------------------
 
 Alpha MOs
 -- Occupied --
*******-453.898 -58.101 -58.094 -52.161 -52.158 -52.155 -52.151
-52.150 -52.148 -10.242 -10.209 -10.196  -7.835  -7.827  -5.784
 -5.776  -5.772  -5.769  -5.765  -5.760  -2.116  -2.115  -2.106
 -2.106  -2.105  -2.101  -2.099  -2.098  -2.095  -2.094  -0.817
 -0.701  -0.696  -0.690  -0.584  -0.481  -0.439  -0.431  -0.389
 -0.383  -0.378  -0.361  -0.337  -0.286  -0.243  -0.243  -0.205
 -- Virtual --
 -0.010   0.030   0.040   0.097   0.119   0.128   0.150   0.158
  0.167   0.177   0.204   0.231   0.247   0.256   0.268   0.287
  0.301   0.323   0.393   0.440   0.451   0.494   0.509   0.518
  0.539   0.541   0.541   0.554   0.570   0.580   0.627   0.661
  0.689   0.721   0.746   0.759   0.798   0.808   0.857   0.874
  0.889   0.903   0.930   0.992   1.012   1.058   1.114   1.185
  1.333   1.408   1.427   1.483   1.519   1.641   1.719   1.771
  1.836   1.881   1.912   1.977   2.019   2.036   2.070   2.078
  2.084   2.089   2.099   2.116   2.117   2.269   2.297   2.348
  2.401   2.489   2.558   2.585   2.597   2.626   2.643   2.701
  2.746   2.824   2.865   2.918   3.179   3.271   3.380   3.406
  3.457   3.513   4.198   4.219   4.219   4.240   4.262   4.262
  4.296   4.336   4.384   4.391   4.421   4.470   4.602   5.403
  5.484  89.571  89.821
 
 Beta MOs
 -- Occupied --
*******-453.898 -58.100 -58.093 -52.157 -52.157 -52.154 -52.151
-52.150 -52.147 -10.244 -10.197 -10.196  -7.832  -7.826  -5.775
 -5.775  -5.771  -5.767  -5.764  -5.759  -2.110  -2.110  -2.105
 -2.104  -2.101  -2.100  -2.097  -2.097  -2.094  -2.093  -0.809
 -0.693  -0.673  -0.661  -0.576  -0.476  -0.436  -0.426  -0.386
 -0.378  -0.369  -0.358  -0.318  -0.235  -0.230
 -- Virtual --
 -0.163  -0.083   0.003   0.037   0.046   0.100   0.121   0.137
  0.158   0.160   0.168   0.181   0.209   0.235   0.254   0.262
  0.285   0.293   0.306   0.334   0.399   0.447   0.456   0.505
  0.523   0.546   0.550   0.560   0.583   0.586   0.587   0.609
  0.636   0.665   0.691   0.726   0.754   0.765   0.808   0.814
  0.859   0.876   0.890   0.910   0.932   1.003   1.019   1.063
  1.121   1.190   1.349   1.422   1.428   1.504   1.535   1.647
  1.724   1.771   1.840   1.885   1.932   1.994   2.027   2.037
  2.071   2.079   2.081   2.096   2.099   2.116   2.125   2.274
  2.298   2.351   2.412   2.503   2.569   2.597   2.598   2.626
  2.644   2.704   2.748   2.826   2.865   2.920   3.179   3.274
  3.384   3.408   3.458   3.518   4.213   4.232   4.233   4.253
  4.264   4.264   4.300   4.339   4.390   4.394   4.432   4.473
  4.606   5.417   5.489  89.576  89.823
 --------------------------------------------------------------
 
          Ground-State Mulliken Net Atomic Charges

     Atom                 Charge (a.u.)    Spin (a.u.)
  --------------------------------------------------------
      1 Se                   -0.116855       1.025701
      2 C                    -0.198605       0.925547
      3 C                    -0.149789      -0.113330
      4 C                    -0.307629       0.007157
      5 Se                   -0.115476       0.259057
      6 H                     0.060927      -0.006369
      7 H                     0.095580      -0.026348
      8 H                     0.120128      -0.040871
      9 H                     0.111696      -0.041104
     10 H                     0.137876       0.012076
     11 H                     0.115079      -0.000915
     12 H                     0.128941       0.000885
     13 H                     0.118127      -0.001487
  --------------------------------------------------------
  Sum of atomic charges =    -0.000000
  Sum of spin   charges =     2.000000

 -----------------------------------------------------------------
                    Cartesian Multipole Moments
 -----------------------------------------------------------------
    Charge (ESU x 10^10)
                 0.0000
    Dipole Moment (Debye)
         X      -1.7636      Y      -2.4952      Z       0.3436
       Tot       3.0748
    Quadrupole Moments (Debye-Ang)
        XX     -63.1705     XY      -1.6745     YY     -57.8984
        XZ      -1.4205     YZ       1.4971     ZZ     -56.4315
    Octopole Moments (Debye-Ang^2)
       XXX    -136.1815    XXY     -22.0140    XYY     -46.1263
       YYY     -17.6810    XXZ     -11.2666    XYZ       2.4864
       YYZ       0.6265    XZZ     -47.6946    YZZ     -10.8448
       ZZZ     -14.8655
    Hexadecapole Moments (Debye-Ang^3)
      XXXX   -1853.4635   XXXY    -523.5652   XXYY    -484.3582
      XYYY    -496.4893   YYYY   -1054.6842   XXXZ     -26.0895
      XXYZ      13.2731   XYYZ      15.2339   YYYZ      35.5136
      XXZZ    -342.0963   XYZZ    -176.6145   YYZZ    -194.8101
      XZZZ      -1.8732   YZZZ      20.1568   ZZZZ    -114.3059
 -----------------------------------------------------------------
 Calculating analytic gradient of the SCF energy
 Gradient of SCF Energy
            1           2           3           4           5           6
    1  -0.0009952   0.0002125  -0.0003746  -0.0001599   0.0004077   0.0000250
    2  -0.0010899   0.0009896  -0.0003233   0.0001084  -0.0008390   0.0001593
    3  -0.0000722  -0.0002457   0.0003239  -0.0003844   0.0001259   0.0000660
            7           8           9          10          11          12
    1   0.0009855   0.0000591  -0.0000301  -0.0000211   0.0000130  -0.0000580
    2   0.0010247   0.0000054   0.0000235  -0.0000771   0.0000785  -0.0000431
    3  -0.0000398   0.0000559   0.0000188   0.0000793   0.0000205   0.0000114
           13
    1  -0.0000640
    2  -0.0000170
    3   0.0000403
 Max gradient component =       1.090E-03
 RMS gradient           =       4.170E-04
 Gradient time:  CPU 16.77 s  wall 1.47 s
 Geometry Optimization Parameters
   NAtoms,    NIC,     NZ,  NCons,   NDum,   NFix, NCnnct, MaxDiis
       13      80       0       1       0       0       0       0

 Cartesian Hessian Update
 Hessian Updated using BFGS Update


** CONSTRAINED OPTIMIZATION IN DELOCALIZED INTERNAL COORDINATES **
   Searching for a Minimum

   Optimization Cycle:   2

                       Coordinates (Angstroms)
     ATOM                X               Y               Z
      1  Se        3.5870272540    1.9899324425   -0.0116061220
      2  C         0.2370391908   -2.3335082718    0.5837197558
      3  C        -0.7487623690   -1.6459517690   -0.2252680476
      4  C        -2.2071445721   -2.0190705029    0.0106161756
      5  Se       -0.4902392949    0.4285792856    0.1168695323
      6  H        -0.6964308728    0.2988279688    1.5696875452
      7  H         2.3081811045    1.2345406464   -0.0046851744
      8  H         1.2763633814   -2.3760464301    0.2790690520
      9  H        -0.0072481708   -2.6428648645    1.5958073754
     10  H        -0.4959076116   -1.6604050195   -1.2886700493
     11  H        -2.4784603574   -1.9108723035    1.0654378430
     12  H        -2.8809984437   -1.3951514601   -0.5798422847
     13  H        -2.3654212383   -3.0674097219   -0.2696326011
   Point Group: c1    Number of degrees of freedom:    33


   Energy is  -4921.640461727

              Constraints and their Current Values
                                        Value     Constraint
   Distance(Angs):        1   2             5.501725     5.500000
 Hessian Updated using BFGS Update

   Using Lagrange Multiplier Algorithm


 29 Hessian modes will be used to form the next step
  Hessian Eigenvalues:
    -0.998941    0.019581    0.044999    0.045022    0.045830    0.046862
     0.071254    0.078577    0.079630    0.082429    0.084134    0.097546
     0.114930    0.134255    0.159994    0.162022    0.178292    0.181037
     0.191282    0.223913    0.300581    0.340605    0.342962    0.344602
     0.346072    0.352630    0.355363    0.387032    1.001200

 Minimum Search - Taking P-RFO Step
 Searching for Lamda that Maximizes Along the Constraint modes Only
 Value Taken    Lamda =   0.00000521
 Searching for Lamda that Minimizes Along All other modes
 Value Taken    Lamda =  -0.00002723
 Step Taken.  Stepsize is  0.012819

                             Maximum     Tolerance    Cnvgd?
         Gradient            0.003259       0.000300      NO
         Displacement        0.006389       0.001200      NO
         Energy change      0.000036       0.000001      NO


 New Cartesian Coordinates Obtained by Inverse Iteration

 Displacement from previous Coordinates is:  0.021054
 ----------------------------------------------------------------
             Standard Nuclear Orientation (Angstroms)
    I     Atom           X                Y                Z
 ----------------------------------------------------------------
    1      Se      3.5843992581     1.9888248249    -0.0099992849
    2      C       0.2372742860    -2.3349267248     0.5832353082
    3      C      -0.7473094229    -1.6448415569    -0.2258376999
    4      C      -2.2052156269    -2.0179826853     0.0117682562
    5      Se     -0.4920344877     0.4314761230     0.1149287511
    6      H      -0.6987477635     0.3004860283     1.5673668461
    7      H       2.3042144666     1.2307185617    -0.0045949882
    8      H       1.2764849394    -2.3792208921     0.2787044490
    9      H      -0.0078278831    -2.6446837214     1.5950200863
   10      H      -0.4946192668    -1.6592805146    -1.2893585175
   11      H      -2.4756743053    -1.9098107259     1.0668096503
   12      H      -2.8793329577    -1.3938645357    -0.5781914755
   13      H      -2.3636132363    -3.0662941811    -0.2683483811
 ----------------------------------------------------------------
 Nuclear Repulsion Energy =   479.6208724415 hartrees
 There are       48 alpha and       46 beta electrons

                       Distance Matrix (Angstroms)
             Se(  1)   C (  2)   C (  3)   C (  4)   Se(  5)   H (  6)
   C (  2)  5.500000
   C (  3)  5.658075  1.449214
   C (  4)  7.040925  2.528396  1.523542
   Se(  5)  4.365576  2.898998  2.119524  2.990900
   H (  6)  4.866613  2.964802  2.646175  3.172480  1.472910
   H (  7)  1.487826  4.163125  4.198761  5.557813  2.910684  3.514851
   H (  8)  4.948701  1.083817  2.211248  3.510554  3.324831  3.569737
   H (  9)  6.078617  1.086155  2.205003  2.779920  3.447881  3.025254
   H ( 10)  5.619949  2.121031  1.093223  2.178930  2.518589  3.470336
   H ( 11)  7.285833  2.788307  2.174486  1.094514  3.212869  2.879833
   H ( 12)  7.317463  3.456552  2.175469  1.091792  3.084068  3.497027
   H ( 13)  7.810238  2.832792  2.152852  1.096591  3.985487  4.180531
             H (  7)   H (  8)   H (  9)   H ( 10)   H ( 11)   H ( 12)
   H (  8)  3.764060
   H (  9)  4.787802  1.858122
   H ( 10)  4.223290  2.472639  3.086685
   H ( 11)  5.818777  3.862662  2.628557  3.088507
   H ( 12)  5.838374  4.356147  3.812209  2.502611  1.770641
   H ( 13)  6.350000  3.744550  3.033088  2.552506  1.769932  1.777355

 
 Applying Cartesian multipole field
    Component          Value
    ---------          -----
     (2,0,0)        1.00000E-11
     (0,2,0)        2.00000E-11
     (0,0,2)       -3.00000E-11
 Nucleus-field energy     =     0.0000000345 hartrees
 Requested basis set is 6-31G(d,p)
 There are 52 shells and 155 basis functions
 A cutoff of  1.0D-14 yielded   1158 shell pairs
 There are     10006 function pairs
 Smallest overlap matrix eigenvalue = 6.74E-04
 Guess from superposition of atomic densities
 Warning:  Energy on first SCF cycle will be non-variational
 SAD guess density has 93.936381 electrons

 -----------------------------------------------------------------------
  General SCF calculation program by
  Eric Jon Sundstrom, Paul Horn, Yuezhi Mao, Dmitri Zuev, Alec White,
  David Stuck, Shaama M.S., Shane Yost, Joonho Lee, David Small,
  Daniel Levine, Susi Lehtola, Hugh Burton, Evgeny Epifanovsky
 -----------------------------------------------------------------------
 Exchange:     0.2000 Hartree-Fock + 0.0800 Slater + 0.7200 B88
 Correlation:  0.1900 VWN1RPA + 0.8100 LYP
 Using SG-1 standard quadrature grid
 using 12 threads for integral computing
 -------------------------------------------------------
 OpenMP Integral computing Module                
 Release: version 1.0, May 2013, Q-Chem Inc. Pittsburgh 
 -------------------------------------------------------
 -------------------------------------------------------
 OpenMP BLAS3 based DFT computing Module                
 Release: version 1.0, May 2013, Q-Chem Inc. Pittsburgh 
 -------------------------------------------------------
 A unrestricted SCF calculation will be
 performed using DIIS
 SCF converges when DIIS error is below 1.0e-06
 Alpha HF Exchange    Energy = -18.84240801139403
 Beta HF Exchange     Energy = -18.84240801139403
 DFT Correlation      Energy =  -5.12571100152557
 DFT Exchange         Energy = -149.84908364558368
 One-Electron (alpha) Energy = -3897.27828180240249
 One-Electron (beta)  Energy = -3897.27828180240249
 Total Coulomb        Energy = 2580.21197676846941
 ---------------------------------------
  Cycle       Energy         DIIS error
 ---------------------------------------
    1   -4927.3833250303      1.50e-01  
 Alpha HF Exchange    Energy = -19.06288755833713
 Beta HF Exchange     Energy = -18.87263081960761
 DFT Correlation      Energy =  -5.17343681030736
 DFT Exchange         Energy = -151.02115870262190
 One-Electron (alpha) Energy = -3929.65997983223178
 One-Electron (beta)  Energy = -3884.58907378190906
 Total Coulomb        Energy = 2607.24973445804198
    2   -4921.5085605711      9.30e-03  
 Alpha HF Exchange    Energy = -18.92534772232823
 Beta HF Exchange     Energy = -18.75227229218424
 DFT Correlation      Energy =  -5.13065771235447
 DFT Exchange         Energy = -149.96988220218634
 One-Electron (alpha) Energy = -3915.35066226201843
 One-Electron (beta)  Energy = -3871.90347555441076
 Total Coulomb        Energy = 2578.87273416048629
    3   -4921.5386911091      3.39e-03  
 Alpha HF Exchange    Energy = -19.04050762400047
 Beta HF Exchange     Energy = -18.85808038603249
 DFT Correlation      Energy =  -5.16293779348513
 DFT Exchange         Energy = -150.84390150912625
 One-Electron (alpha) Energy = -3926.55748050948705
 One-Electron (beta)  Energy = -3882.16293347915325
 Total Coulomb        Energy = 2601.41957427665602
    4   -4921.5853945487      2.51e-03  
 Alpha HF Exchange    Energy = -18.99820667908941
 Beta HF Exchange     Energy = -18.81822854470191
 DFT Correlation      Energy =  -5.15013864271984
 DFT Exchange         Energy = -150.51426091653951
 One-Electron (alpha) Energy = -3922.80959197912716
 One-Electron (beta)  Energy = -3878.79206036403411
 Total Coulomb        Energy = 2593.82370285760635
    5   -4921.6379117927      4.34e-04  
 Alpha HF Exchange    Energy = -18.99567985103920
 Beta HF Exchange     Energy = -18.81624644942821
 DFT Correlation      Energy =  -5.15012197863852
 DFT Exchange         Energy = -150.49851990638689
 One-Electron (alpha) Energy = -3922.36111235756107
 One-Electron (beta)  Energy = -3878.35501529307703
 Total Coulomb        Energy = 2592.91546614457593
    6   -4921.6403572157      8.41e-05  
 Alpha HF Exchange    Energy = -18.99499790353237
 Beta HF Exchange     Energy = -18.81584922499690
 DFT Correlation      Energy =  -5.14962087544968
 DFT Exchange         Energy = -150.49331814938762
 One-Electron (alpha) Energy = -3922.28580310674442
 One-Electron (beta)  Energy = -3878.32240577349512
 Total Coulomb        Energy = 2592.80066328888961
    7   -4921.6404592688      2.67e-05  
 Alpha HF Exchange    Energy = -18.99515176734084
 Beta HF Exchange     Energy = -18.81590505555511
 DFT Correlation      Energy =  -5.14959018621414
 DFT Exchange         Energy = -150.49395634134436
 One-Electron (alpha) Energy = -3922.27900032419029
 One-Electron (beta)  Energy = -3878.32197479514298
 Total Coulomb        Energy = 2592.79423297684298
    8   -4921.6404730170      1.29e-05  
 Alpha HF Exchange    Energy = -18.99524401960651
 Beta HF Exchange     Energy = -18.81602017237485
 DFT Correlation      Energy =  -5.14958797857599
 DFT Exchange         Energy = -150.49463518229828
 One-Electron (alpha) Energy = -3922.29212516546477
 One-Electron (beta)  Energy = -3878.34210696350783
 Total Coulomb        Energy = 2592.82836967331059
    9   -4921.6404773326      4.01e-06  
 Alpha HF Exchange    Energy = -18.99525090150444
 Beta HF Exchange     Energy = -18.81601249335561
 DFT Correlation      Energy =  -5.14957781795484
 DFT Exchange         Energy = -150.49459777909419
 One-Electron (alpha) Energy = -3922.28516358591060
 One-Electron (beta)  Energy = -3878.33788696432248
 Total Coulomb        Energy = 2592.81713918037758
   10   -4921.6404778859      2.14e-06  
 Alpha HF Exchange    Energy = -18.99525565301152
 Beta HF Exchange     Energy = -18.81602246104147
 DFT Correlation      Energy =  -5.14957326317647
 DFT Exchange         Energy = -150.49464025054834
 One-Electron (alpha) Energy = -3922.28649991774046
 One-Electron (beta)  Energy = -3878.34002117649698
 Total Coulomb        Energy = 2592.82066224266327
   11   -4921.6404780034      6.62e-07  Convergence criterion met
 ---------------------------------------
 SCF time:   CPU 49.16s  wall 4.00s 
<S^2> =          2.011551885
 Alpha HF Exchange    Energy = -18.99525565301152
 Beta HF Exchange     Energy = -18.81602246104147
 DFT Correlation      Energy =  -5.14957326317647
 DFT Exchange         Energy = -150.49464025054834
 One-Electron (alpha) Energy = -3922.28649991774046
 One-Electron (beta)  Energy = -3878.34002117649698
 Total Coulomb        Energy = 2592.82066224266327
 Nuclear repulsion Energy = 479.62087247590392
 SCF   energy in the final basis set =    -4921.6404780034
 Total energy in the final basis set =    -4921.6404780034
 
 --------------------------------------------------------------
 
                    Orbital Energies (a.u.)
 --------------------------------------------------------------
 
 Alpha MOs
 -- Occupied --
*******-453.899 -58.101 -58.094 -52.161 -52.158 -52.155 -52.151
-52.151 -52.148 -10.242 -10.209 -10.196  -7.835  -7.827  -5.784
 -5.776  -5.772  -5.769  -5.765  -5.760  -2.116  -2.115  -2.106
 -2.106  -2.105  -2.101  -2.099  -2.098  -2.095  -2.094  -0.817
 -0.701  -0.695  -0.690  -0.584  -0.481  -0.439  -0.431  -0.389
 -0.383  -0.378  -0.361  -0.337  -0.286  -0.243  -0.242  -0.205
 -- Virtual --
 -0.010   0.029   0.040   0.097   0.119   0.128   0.150   0.158
  0.167   0.177   0.204   0.231   0.247   0.256   0.268   0.287
  0.301   0.323   0.393   0.440   0.450   0.494   0.509   0.518
  0.539   0.541   0.541   0.554   0.570   0.580   0.626   0.661
  0.689   0.721   0.746   0.759   0.798   0.808   0.857   0.873
  0.889   0.903   0.931   0.991   1.012   1.058   1.114   1.185
  1.333   1.408   1.427   1.482   1.519   1.641   1.719   1.771
  1.836   1.881   1.912   1.976   2.019   2.036   2.070   2.078
  2.084   2.089   2.099   2.116   2.117   2.268   2.298   2.348
  2.401   2.489   2.558   2.585   2.597   2.624   2.643   2.700
  2.746   2.824   2.865   2.918   3.179   3.271   3.379   3.406
  3.457   3.513   4.198   4.219   4.220   4.240   4.262   4.262
  4.296   4.336   4.385   4.391   4.421   4.469   4.602   5.403
  5.484  89.571  89.821
 
 Beta MOs
 -- Occupied --
*******-453.898 -58.100 -58.093 -52.157 -52.157 -52.154 -52.151
-52.150 -52.147 -10.244 -10.197 -10.196  -7.832  -7.826  -5.775
 -5.775  -5.771  -5.767  -5.764  -5.759  -2.110  -2.110  -2.105
 -2.104  -2.101  -2.100  -2.097  -2.097  -2.094  -2.093  -0.809
 -0.693  -0.673  -0.660  -0.576  -0.476  -0.436  -0.426  -0.386
 -0.378  -0.369  -0.358  -0.318  -0.235  -0.230
 -- Virtual --
 -0.163  -0.083   0.003   0.037   0.046   0.100   0.121   0.137
  0.158   0.160   0.168   0.181   0.209   0.235   0.254   0.261
  0.285   0.293   0.306   0.334   0.399   0.447   0.456   0.505
  0.523   0.546   0.550   0.560   0.583   0.586   0.587   0.608
  0.636   0.665   0.692   0.726   0.754   0.765   0.808   0.814
  0.859   0.876   0.891   0.909   0.932   1.002   1.019   1.062
  1.121   1.190   1.349   1.422   1.428   1.504   1.535   1.647
  1.724   1.772   1.840   1.885   1.931   1.994   2.027   2.037
  2.071   2.079   2.081   2.095   2.099   2.116   2.125   2.274
  2.298   2.351   2.412   2.503   2.569   2.597   2.598   2.625
  2.644   2.704   2.748   2.826   2.865   2.920   3.180   3.274
  3.383   3.408   3.457   3.518   4.212   4.232   4.233   4.253
  4.264   4.264   4.300   4.339   4.390   4.394   4.431   4.473
  4.605   5.417   5.489  89.576  89.823
 --------------------------------------------------------------
 
          Ground-State Mulliken Net Atomic Charges

     Atom                 Charge (a.u.)    Spin (a.u.)
  --------------------------------------------------------
      1 Se                   -0.117043       1.025761
      2 C                    -0.198314       0.925898
      3 C                    -0.149828      -0.113538
      4 C                    -0.307653       0.007187
      5 Se                   -0.115457       0.258899
      6 H                     0.060971      -0.006374
      7 H                     0.095394      -0.026435
      8 H                     0.120094      -0.040866
      9 H                     0.111828      -0.041097
     10 H                     0.137896       0.012070
     11 H                     0.115079      -0.000923
     12 H                     0.128933       0.000911
     13 H                     0.118100      -0.001495
  --------------------------------------------------------
  Sum of atomic charges =    -0.000000
  Sum of spin   charges =     2.000000

 -----------------------------------------------------------------
                    Cartesian Multipole Moments
 -----------------------------------------------------------------
    Charge (ESU x 10^10)
                -0.0000
    Dipole Moment (Debye)
         X      -1.7650      Y      -2.5033      Z       0.3448
       Tot       3.0823
    Quadrupole Moments (Debye-Ang)
        XX     -63.1813     XY      -1.7041     YY     -57.8716
        XZ      -1.4228     YZ       1.4743     ZZ     -56.4590
    Octopole Moments (Debye-Ang^2)
       XXX    -135.8879    XXY     -22.0961    XYY     -46.0377
       YYY     -17.7600    XXZ     -11.1904    XYZ       2.4482
       YYZ       0.5972    XZZ     -47.7255    YZZ     -10.9305
       ZZZ     -14.8687
    Hexadecapole Moments (Debye-Ang^3)
      XXXX   -1850.5952   XXXY    -522.9832   XXYY    -484.0078
      XYYY    -495.5371   YYYY   -1053.8389   XXXZ     -26.0603
      XXYZ      13.1463   XYYZ      14.9318   YYYZ      35.1172
      XXZZ    -342.0071   XYZZ    -176.4889   YYZZ    -194.8114
      XZZZ      -2.1844   YZZZ      19.9982   ZZZZ    -114.2858
 -----------------------------------------------------------------
 Calculating analytic gradient of the SCF energy
 Gradient of SCF Energy
            1           2           3           4           5           6
    1  -0.0002643   0.0002538  -0.0004934  -0.0000069   0.0002798   0.0000125
    2  -0.0006456   0.0005303  -0.0001778   0.0000478  -0.0004838   0.0000838
    3  -0.0000540  -0.0000319   0.0000706  -0.0001657   0.0000930  -0.0000083
            7           8           9          10          11          12
    1   0.0002574  -0.0000186  -0.0000138   0.0000196  -0.0000166   0.0000120
    2   0.0005768   0.0000164   0.0000147  -0.0000363   0.0000622   0.0000053
    3  -0.0000606   0.0000512   0.0000443   0.0000016   0.0000206  -0.0000093
           13
    1  -0.0000213
    2   0.0000063
    3   0.0000484
 Max gradient component =       6.456E-04
 RMS gradient           =       2.202E-04
 Gradient time:  CPU 16.65 s  wall 1.48 s
 Geometry Optimization Parameters
   NAtoms,    NIC,     NZ,  NCons,   NDum,   NFix, NCnnct, MaxDiis
       13      80       0       1       0       0       0       0

 Cartesian Hessian Update
 Hessian Updated using BFGS Update


** CONSTRAINED OPTIMIZATION IN DELOCALIZED INTERNAL COORDINATES **
   Searching for a Minimum

   Optimization Cycle:   3

                       Coordinates (Angstroms)
     ATOM                X               Y               Z
      1  Se        3.5843992581    1.9888248249   -0.0099992849
      2  C         0.2372742860   -2.3349267248    0.5832353082
      3  C        -0.7473094229   -1.6448415569   -0.2258376999
      4  C        -2.2052156269   -2.0179826853    0.0117682562
      5  Se       -0.4920344877    0.4314761230    0.1149287511
      6  H        -0.6987477635    0.3004860283    1.5673668461
      7  H         2.3042144666    1.2307185617   -0.0045949882
      8  H         1.2764849394   -2.3792208921    0.2787044490
      9  H        -0.0078278831   -2.6446837214    1.5950200863
     10  H        -0.4946192668   -1.6592805146   -1.2893585175
     11  H        -2.4756743053   -1.9098107259    1.0668096503
     12  H        -2.8793329577   -1.3938645357   -0.5781914755
     13  H        -2.3636132363   -3.0662941811   -0.2683483811
   Point Group: c1    Number of degrees of freedom:    33


   Energy is  -4921.640478003

              Constraints and their Current Values
                                        Value     Constraint
   Distance(Angs):        1   2             5.500000     5.500000
 Hessian Updated using BFGS Update

 28 Hessian modes will be used to form the next step
  Hessian Eigenvalues:
     0.017464    0.043953    0.045000    0.045469    0.045925    0.069028
     0.073491    0.078770    0.082430    0.084164    0.095374    0.102635
     0.117430    0.135108    0.160000    0.160426    0.177331    0.180957
     0.190450    0.211599    0.304458    0.340630    0.342967    0.345197
     0.346081    0.352678    0.355793    0.391821

 Minimum Search - Taking Simple RFO Step
 Searching for Lamda that Minimizes Along All modes
 Value Taken    Lamda =  -0.00002061
 Step Taken.  Stepsize is  0.021388

                             Maximum     Tolerance    Cnvgd?
         Gradient           0.000564      0.000300      NO
         Displacement       0.009590      0.001200      NO
         Energy change     -0.000016      0.000001      NO


 New Cartesian Coordinates Obtained by Inverse Iteration

 Displacement from previous Coordinates is:  0.040500
 ----------------------------------------------------------------
             Standard Nuclear Orientation (Angstroms)
    I     Atom           X                Y                Z
 ----------------------------------------------------------------
    1      Se      3.5758293861     1.9920918876    -0.0066468853
    2      C       0.2374365329    -2.3389886180     0.5823141811
    3      C      -0.7440979521    -1.6439587953    -0.2266037528
    4      C      -2.2022940013    -2.0152206557     0.0135392470
    5      Se     -0.4924593284     0.4348598252     0.1110575692
    6      H      -0.7002034311     0.3038327313     1.5632190863
    7      H       2.2990356078     1.2242611013    -0.0044942179
    8      H       1.2765643964    -2.3880604581     0.2781125720
    9      H      -0.0097382702    -2.6487535760     1.5935592948
   10      H      -0.4919150045    -1.6592093045    -1.2901710478
   11      H      -2.4708058341    -1.9063810716     1.0689744179
   12      H      -2.8767830910    -1.3904799126    -0.5754016681
   13      H      -2.3625710105    -3.0633931537    -0.2659557963
 ----------------------------------------------------------------
 Nuclear Repulsion Energy =   479.8075218902 hartrees
 There are       48 alpha and       46 beta electrons

                       Distance Matrix (Angstroms)
             Se(  1)   C (  2)   C (  3)   C (  4)   Se(  5)   H (  6)
   C (  2)  5.500000
   C (  3)  5.650754  1.449422
   C (  4)  7.031762  2.525988  1.523758
   Se(  5)  4.357729  2.906728  2.121043  2.989304
   H (  6)  4.857896  2.970833  2.645616  3.167932  1.472786
   H (  7)  1.489890  4.158279  4.187682  5.545858  2.903266  3.507185
   H (  8)  4.955143  1.083851  2.211674  3.508770  3.335601  3.578463
   H (  9)  6.079013  1.086124  2.204969  2.775811  3.455359  3.032397
   H ( 10)  5.614800  2.121380  1.093162  2.179863  2.519636  3.469691
   H ( 11)  7.274397  2.785420  2.174605  1.094481  3.211366  2.874779
   H ( 12)  7.307632  3.455190  2.175835  1.091828  3.080275  3.490257
   H ( 13)  7.803190  2.829198  2.153090  1.096573  3.984624  4.177027
             H (  7)   H (  8)   H (  9)   H ( 10)   H ( 11)   H ( 12)
   H (  8)  3.764861
   H (  9)  4.783770  1.858208
   H ( 10)  4.213878  2.473511  3.086680
   H ( 11)  5.805570  3.860086  2.623578  3.089121
   H ( 12)  5.826826  4.355910  3.808883  2.504138  1.770577
   H ( 13)  6.339000  3.741041  3.027465  2.553449  1.769867  1.777304

 
 Applying Cartesian multipole field
    Component          Value
    ---------          -----
     (2,0,0)        1.00000E-11
     (0,2,0)        2.00000E-11
     (0,0,2)       -3.00000E-11
 Nucleus-field energy     =     0.0000000344 hartrees
 Requested basis set is 6-31G(d,p)
 There are 52 shells and 155 basis functions
 A cutoff of  1.0D-14 yielded   1159 shell pairs
 There are      9998 function pairs
 Smallest overlap matrix eigenvalue = 6.74E-04
 Guess from superposition of atomic densities
 Warning:  Energy on first SCF cycle will be non-variational
 SAD guess density has 93.936381 electrons

 -----------------------------------------------------------------------
  General SCF calculation program by
  Eric Jon Sundstrom, Paul Horn, Yuezhi Mao, Dmitri Zuev, Alec White,
  David Stuck, Shaama M.S., Shane Yost, Joonho Lee, David Small,
  Daniel Levine, Susi Lehtola, Hugh Burton, Evgeny Epifanovsky
 -----------------------------------------------------------------------
 Exchange:     0.2000 Hartree-Fock + 0.0800 Slater + 0.7200 B88
 Correlation:  0.1900 VWN1RPA + 0.8100 LYP
 Using SG-1 standard quadrature grid
 using 12 threads for integral computing
 -------------------------------------------------------
 OpenMP Integral computing Module                
 Release: version 1.0, May 2013, Q-Chem Inc. Pittsburgh 
 -------------------------------------------------------
 -------------------------------------------------------
 OpenMP BLAS3 based DFT computing Module                
 Release: version 1.0, May 2013, Q-Chem Inc. Pittsburgh 
 -------------------------------------------------------
 A unrestricted SCF calculation will be
 performed using DIIS
 SCF converges when DIIS error is below 1.0e-06
 Alpha HF Exchange    Energy = -18.84219497355307
 Beta HF Exchange     Energy = -18.84219497355307
 DFT Correlation      Energy =  -5.12567391941789
 DFT Exchange         Energy = -149.84863251638737
 One-Electron (alpha) Energy = -3897.46601869247206
 One-Electron (beta)  Energy = -3897.46601869247206
 Total Coulomb        Energy = 2580.40129376183631
 ---------------------------------------
  Cycle       Energy         DIIS error
 ---------------------------------------
    1   -4927.3819180814      1.50e-01  
 Alpha HF Exchange    Energy = -19.06273947705420
 Beta HF Exchange     Energy = -18.87203515611724
 DFT Correlation      Energy =  -5.17345976376211
 DFT Exchange         Energy = -151.01985478742986
 One-Electron (alpha) Energy = -3929.85163413222517
 One-Electron (beta)  Energy = -3884.75884138191441
 Total Coulomb        Energy = 2607.42290715728268
    2   -4921.5081356166      9.30e-03  
 Alpha HF Exchange    Energy = -18.92523813334444
 Beta HF Exchange     Energy = -18.75224717443128
 DFT Correlation      Energy =  -5.13063001447350
 DFT Exchange         Energy = -149.96953354606970
 One-Electron (alpha) Energy = -3915.54892888830409
 One-Electron (beta)  Energy = -3872.11318904710834
 Total Coulomb        Energy = 2579.09331747973965
    3   -4921.5389273994      3.38e-03  
 Alpha HF Exchange    Energy = -19.04038504100168
 Beta HF Exchange     Energy = -18.85790819361226
 DFT Correlation      Energy =  -5.16288281596226
 DFT Exchange         Energy = -150.84294971124302
 One-Electron (alpha) Energy = -3926.72661114251650
 One-Electron (beta)  Energy = -3882.32736434006438
 Total Coulomb        Energy = 2601.56514466972294
    4   -4921.5854346501      2.51e-03  
 Alpha HF Exchange    Energy = -18.99811775390154
 Beta HF Exchange     Energy = -18.81816887821769
 DFT Correlation      Energy =  -5.15009352050766
 DFT Exchange         Energy = -150.51382793912586
 One-Electron (alpha) Energy = -3923.00600187662667
 One-Electron (beta)  Energy = -3878.99069004770718
 Total Coulomb        Energy = 2594.03150064503734
    5   -4921.6378774465      4.38e-04  
 Alpha HF Exchange    Energy = -18.99556365400667
 Beta HF Exchange     Energy = -18.81615582858582
 DFT Correlation      Energy =  -5.15007772142140
 DFT Exchange         Energy = -150.49787955759069
 One-Electron (alpha) Energy = -3922.54888085349558
 One-Electron (beta)  Energy = -3878.54535999969630
 Total Coulomb        Energy = 2593.10602603046618
    6   -4921.6403696597      8.41e-05  
 Alpha HF Exchange    Energy = -18.99487171529166
 Beta HF Exchange     Energy = -18.81575976298817
 DFT Correlation      Energy =  -5.14957217847167
 DFT Exchange         Energy = -150.49263058757157
 One-Electron (alpha) Energy = -3922.47162735977054
 One-Electron (beta)  Energy = -3878.51196084498315
 Total Coulomb        Energy = 2592.98842736882716
    7   -4921.6404731557      2.67e-05  
 Alpha HF Exchange    Energy = -18.99502947833507
 Beta HF Exchange     Energy = -18.81582246955730
 DFT Correlation      Energy =  -5.14954172365429
 DFT Exchange         Energy = -150.49330572194336
 One-Electron (alpha) Energy = -3922.46568709440271
 One-Electron (beta)  Energy = -3878.51261623953769
 Total Coulomb        Energy = 2592.98399362485179
    8   -4921.6404871780      1.31e-05  
 Alpha HF Exchange    Energy = -18.99512062417986
 Beta HF Exchange     Energy = -18.81593811854858
 DFT Correlation      Energy =  -5.14953962231442
 DFT Exchange         Energy = -150.49398126565745
 One-Electron (alpha) Energy = -3922.47845857568336
 One-Electron (beta)  Energy = -3878.53253402405153
 Total Coulomb        Energy = 2593.01755870078841
    9   -4921.6404916050      3.94e-06  
 Alpha HF Exchange    Energy = -18.99512691425077
 Beta HF Exchange     Energy = -18.81593068073613
 DFT Correlation      Energy =  -5.14952922680263
 DFT Exchange         Energy = -150.49394158396882
 One-Electron (alpha) Energy = -3922.47146383307245
 One-Electron (beta)  Energy = -3878.52835031928998
 Total Coulomb        Energy = 2593.00632847092584
   10   -4921.6404921626      2.18e-06  
 Alpha HF Exchange    Energy = -18.99513171227597
 Beta HF Exchange     Energy = -18.81594096966690
 DFT Correlation      Energy =  -5.14952479746782
 DFT Exchange         Energy = -150.49398559042891
 One-Electron (alpha) Energy = -3922.47286726797211
 One-Electron (beta)  Energy = -3878.53055054160859
 Total Coulomb        Energy = 2593.00998666514442
   11   -4921.6404922897      6.85e-07  Convergence criterion met
 ---------------------------------------
 SCF time:   CPU 49.08s  wall 4.00s 
<S^2> =          2.011573154
 Alpha HF Exchange    Energy = -18.99513171227597
 Beta HF Exchange     Energy = -18.81594096966690
 DFT Correlation      Energy =  -5.14952479746782
 DFT Exchange         Energy = -150.49398559042891
 One-Electron (alpha) Energy = -3922.47286726797211
 One-Electron (beta)  Energy = -3878.53055054160859
 Total Coulomb        Energy = 2593.00998666514442
 Nuclear repulsion Energy = 479.80752192459772
 SCF   energy in the final basis set =    -4921.6404922897
 Total energy in the final basis set =    -4921.6404922897
 
 --------------------------------------------------------------
 
                    Orbital Energies (a.u.)
 --------------------------------------------------------------
 
 Alpha MOs
 -- Occupied --
*******-453.899 -58.101 -58.094 -52.161 -52.158 -52.155 -52.152
-52.151 -52.148 -10.242 -10.209 -10.196  -7.835  -7.827  -5.784
 -5.776  -5.772  -5.769  -5.765  -5.760  -2.116  -2.115  -2.106
 -2.106  -2.105  -2.101  -2.099  -2.098  -2.095  -2.094  -0.817
 -0.701  -0.695  -0.690  -0.584  -0.481  -0.439  -0.431  -0.389
 -0.382  -0.378  -0.361  -0.337  -0.285  -0.243  -0.242  -0.206
 -- Virtual --
 -0.010   0.029   0.040   0.097   0.119   0.128   0.151   0.158
  0.167   0.177   0.204   0.231   0.247   0.256   0.268   0.288
  0.301   0.323   0.393   0.440   0.451   0.494   0.509   0.518
  0.540   0.541   0.541   0.554   0.569   0.580   0.626   0.661
  0.689   0.721   0.746   0.759   0.798   0.808   0.857   0.873
  0.889   0.903   0.931   0.990   1.012   1.057   1.115   1.186
  1.333   1.408   1.427   1.482   1.519   1.640   1.719   1.772
  1.835   1.881   1.911   1.976   2.019   2.036   2.071   2.078
  2.084   2.089   2.099   2.116   2.117   2.268   2.298   2.348
  2.401   2.489   2.558   2.585   2.597   2.623   2.643   2.700
  2.746   2.824   2.865   2.917   3.179   3.271   3.379   3.406
  3.457   3.512   4.198   4.219   4.220   4.240   4.262   4.262
  4.296   4.336   4.385   4.391   4.420   4.469   4.602   5.403
  5.484  89.570  89.821
 
 Beta MOs
 -- Occupied --
*******-453.898 -58.100 -58.094 -52.157 -52.156 -52.154 -52.151
-52.150 -52.148 -10.244 -10.197 -10.195  -7.832  -7.826  -5.775
 -5.775  -5.771  -5.768  -5.764  -5.759  -2.110  -2.110  -2.105
 -2.104  -2.101  -2.100  -2.097  -2.097  -2.094  -2.093  -0.809
 -0.693  -0.673  -0.660  -0.576  -0.476  -0.436  -0.426  -0.386
 -0.378  -0.369  -0.358  -0.318  -0.235  -0.229
 -- Virtual --
 -0.162  -0.084   0.002   0.037   0.045   0.100   0.121   0.137
  0.158   0.160   0.168   0.181   0.209   0.235   0.254   0.261
  0.285   0.294   0.307   0.334   0.399   0.447   0.456   0.505
  0.523   0.546   0.551   0.561   0.584   0.586   0.587   0.608
  0.635   0.665   0.692   0.726   0.754   0.765   0.808   0.814
  0.859   0.875   0.891   0.910   0.932   1.001   1.018   1.061
  1.121   1.191   1.348   1.422   1.428   1.504   1.535   1.646
  1.724   1.772   1.839   1.886   1.930   1.995   2.027   2.037
  2.071   2.078   2.081   2.095   2.099   2.115   2.125   2.274
  2.299   2.351   2.412   2.503   2.569   2.596   2.598   2.623
  2.644   2.703   2.748   2.826   2.865   2.919   3.180   3.274
  3.383   3.408   3.457   3.518   4.212   4.233   4.233   4.253
  4.264   4.264   4.299   4.338   4.391   4.394   4.431   4.473
  4.605   5.417   5.489  89.575  89.823
 --------------------------------------------------------------
 
          Ground-State Mulliken Net Atomic Charges

     Atom                 Charge (a.u.)    Spin (a.u.)
  --------------------------------------------------------
      1 Se                   -0.117417       1.025727
      2 C                    -0.197789       0.926276
      3 C                    -0.149891      -0.113855
      4 C                    -0.307757       0.007260
      5 Se                   -0.115419       0.258832
      6 H                     0.061037      -0.006393
      7 H                     0.095237      -0.026494
      8 H                     0.120030      -0.040862
      9 H                     0.112023      -0.041078
     10 H                     0.137939       0.012066
     11 H                     0.115059      -0.000934
     12 H                     0.128945       0.000960
     13 H                     0.118004      -0.001503
  --------------------------------------------------------
  Sum of atomic charges =    -0.000000
  Sum of spin   charges =     2.000000

 -----------------------------------------------------------------
                    Cartesian Multipole Moments
 -----------------------------------------------------------------
    Charge (ESU x 10^10)
                 0.0000
    Dipole Moment (Debye)
         X      -1.7664      Y      -2.5203      Z       0.3467
       Tot       3.0971
    Quadrupole Moments (Debye-Ang)
        XX     -63.1757     XY      -1.7800     YY     -57.8262
        XZ      -1.4235     YZ       1.4235     ZZ     -56.5261
    Octopole Moments (Debye-Ang^2)
       XXX    -135.2376    XXY     -22.3801    XYY     -45.8790
       YYY     -18.0070    XXZ     -11.0444    XYZ       2.3172
       YYZ       0.4817    XZZ     -47.8028    YZZ     -11.1728
       ZZZ     -14.8829
    Hexadecapole Moments (Debye-Ang^3)
      XXXX   -1841.6956   XXXY    -522.9581   XXYY    -483.3767
      XYYY    -494.5249   YYYY   -1054.5325   XXXZ     -25.9578
      XXYZ      12.7048   XYYZ      14.1562   YYYZ      34.2796
      XXZZ    -341.4856   XYZZ    -176.6398   YYZZ    -195.3286
      XZZZ      -2.8780   YZZZ      19.6762   ZZZZ    -114.2867
 -----------------------------------------------------------------
 Calculating analytic gradient of the SCF energy
 Gradient of SCF Energy
            1           2           3           4           5           6
    1   0.0002488   0.0001256  -0.0001881   0.0000778   0.0000552  -0.0000072
    2  -0.0002392  -0.0000596  -0.0000013   0.0000173  -0.0000025   0.0000051
    3  -0.0000039   0.0001197  -0.0001459   0.0001143   0.0000099  -0.0000739
            7           8           9          10          11          12
    1  -0.0002727  -0.0000298  -0.0000254   0.0000465  -0.0000304   0.0000069
    2   0.0001557   0.0000113   0.0000297  -0.0000186   0.0000513   0.0000240
    3  -0.0001127   0.0000336   0.0000314   0.0000098  -0.0000045  -0.0000201
           13
    1  -0.0000072
    2   0.0000268
    3   0.0000424
 Max gradient component =       2.727E-04
 RMS gradient           =       9.653E-05
 Gradient time:  CPU 16.68 s  wall 1.48 s
 Geometry Optimization Parameters
   NAtoms,    NIC,     NZ,  NCons,   NDum,   NFix, NCnnct, MaxDiis
       13      80       0       1       0       0       0       0

 Cartesian Hessian Update
 Hessian Updated using BFGS Update


** CONSTRAINED OPTIMIZATION IN DELOCALIZED INTERNAL COORDINATES **
   Searching for a Minimum

   Optimization Cycle:   4

                       Coordinates (Angstroms)
     ATOM                X               Y               Z
      1  Se        3.5758293861    1.9920918876   -0.0066468853
      2  C         0.2374365329   -2.3389886180    0.5823141811
      3  C        -0.7440979521   -1.6439587953   -0.2266037528
      4  C        -2.2022940013   -2.0152206557    0.0135392470
      5  Se       -0.4924593284    0.4348598252    0.1110575692
      6  H        -0.7002034311    0.3038327313    1.5632190863
      7  H         2.2990356078    1.2242611013   -0.0044942179
      8  H         1.2765643964   -2.3880604581    0.2781125720
      9  H        -0.0097382702   -2.6487535760    1.5935592948
     10  H        -0.4919150045   -1.6592093045   -1.2901710478
     11  H        -2.4708058341   -1.9063810716    1.0689744179
     12  H        -2.8767830910   -1.3904799126   -0.5754016681
     13  H        -2.3625710105   -3.0633931537   -0.2659557963
   Point Group: c1    Number of degrees of freedom:    33


   Energy is  -4921.640492290

              Constraints and their Current Values
                                        Value     Constraint
   Distance(Angs):        1   2             5.500000     5.500000
 Hessian Updated using BFGS Update

 30 Hessian modes will be used to form the next step
  Hessian Eigenvalues:
     0.016239    0.041303    0.045000    0.045019    0.045512    0.046023
     0.062298    0.072377    0.078850    0.082429    0.084163    0.088098
     0.098940    0.115941    0.135004    0.160000    0.160032    0.160718
     0.180927    0.181860    0.193030    0.236760    0.305630    0.340677
     0.342980    0.345212    0.346096    0.352682    0.355804    0.397790

 Minimum Search - Taking Simple RFO Step
 Searching for Lamda that Minimizes Along All modes
 Value Taken    Lamda =  -0.00000401
 Step Taken.  Stepsize is  0.008972

                             Maximum     Tolerance    Cnvgd?
         Gradient           0.000381      0.000300      NO
         Displacement       0.004119      0.001200      NO
         Energy change     -0.000014      0.000001      NO


 New Cartesian Coordinates Obtained by Inverse Iteration

 Displacement from previous Coordinates is:  0.015998
 ----------------------------------------------------------------
             Standard Nuclear Orientation (Angstroms)
    I     Atom           X                Y                Z
 ----------------------------------------------------------------
    1      Se      3.5713027628     1.9948320379    -0.0053496084
    2      C       0.2375235192    -2.3400070000     0.5820912801
    3      C      -0.7431338904    -1.6437983122    -0.2266524014
    4      C      -2.2016324901    -2.0143016457     0.0138917921
    5      Se     -0.4917507328     0.4352946010     0.1098946517
    6      H      -0.6995674241     0.3052633483     1.5621918536
    7      H       2.2984641105     1.2201746220    -0.0045529557
    8      H       1.2765562562    -2.3908648336     0.2778076180
    9      H      -0.0100891152    -2.6496210737     1.5932837083
[...]
   H (  8)  4.952530  1.083879  2.211640  3.508469  3.335628  3.578678
   H (  9)  6.079697  1.086128  2.204932  2.776246  3.454672  3.032236
   H ( 10)  5.615268  2.121144  1.093162  2.179536  2.519249  3.470214
   H ( 11)  7.282712  2.784600  2.174573  1.094485  3.214205  2.880123
   H ( 12)  7.314633  3.455216  2.176164  1.091798  3.081431  3.492980
   H ( 13)  7.805801  2.829340  2.153006  1.096602  3.985346  4.180596
             H (  7)   H (  8)   H (  9)   H ( 10)   H ( 11)   H ( 12)
   H (  8)  3.744565
   H (  9)  4.773270  1.858165
   H ( 10)  4.208840  2.473069  3.086611
   H ( 11)  5.813527  3.859428  2.622769  3.088891
   H ( 12)  5.836603  4.356000  3.808989  2.504697  1.770693
   H ( 13)  6.337556  3.740164  3.029124  2.552078  1.769830  1.777300

 
 Applying Cartesian multipole field
    Component          Value
    ---------          -----
     (2,0,0)        1.00000E-11
     (0,2,0)        2.00000E-11
     (0,0,2)       -3.00000E-11
 Nucleus-field energy     =     0.0000000345 hartrees
 Requested basis set is 6-31G(d,p)
 There are 52 shells and 155 basis functions
 A cutoff of  1.0D-14 yielded   1158 shell pairs
 There are      9994 function pairs
 Smallest overlap matrix eigenvalue = 6.74E-04
 Guess from superposition of atomic densities
 Warning:  Energy on first SCF cycle will be non-variational
 SAD guess density has 93.936381 electrons

 -----------------------------------------------------------------------
  General SCF calculation program by
  Eric Jon Sundstrom, Paul Horn, Yuezhi Mao, Dmitri Zuev, Alec White,
  David Stuck, Shaama M.S., Shane Yost, Joonho Lee, David Small,
  Daniel Levine, Susi Lehtola, Hugh Burton, Evgeny Epifanovsky
 -----------------------------------------------------------------------
 Exchange:     0.2000 Hartree-Fock + 0.0800 Slater + 0.7200 B88
 Correlation:  0.1900 VWN1RPA + 0.8100 LYP
 Using SG-1 standard quadrature grid
 using 12 threads for integral computing
 -------------------------------------------------------
 OpenMP Integral computing Module                
 Release: version 1.0, May 2013, Q-Chem Inc. Pittsburgh 
 -------------------------------------------------------
 -------------------------------------------------------
 OpenMP BLAS3 based DFT computing Module                
 Release: version 1.0, May 2013, Q-Chem Inc. Pittsburgh 
 -------------------------------------------------------
 A unrestricted SCF calculation will be
 performed using DIIS
 SCF converges when DIIS error is below 1.0e-06
 Alpha HF Exchange    Energy = -18.84218515789009
 Beta HF Exchange     Energy = -18.84218515789009
 DFT Correlation      Energy =  -5.12563096027496
 DFT Exchange         Energy = -149.84865214144099
 One-Electron (alpha) Energy = -3897.12445887578451
 One-Electron (beta)  Energy = -3897.12445887578451
 Total Coulomb        Energy = 2580.06071703832276
 ---------------------------------------
  Cycle       Energy         DIIS error
 ---------------------------------------
    1   -4927.3809117250      1.50e-01  
 Alpha HF Exchange    Energy = -19.06277117295087
 Beta HF Exchange     Energy = -18.87125448037150
 DFT Correlation      Energy =  -5.17354650795371
 DFT Exchange         Energy = -151.01914550868014
 One-Electron (alpha) Energy = -3929.50551198515905
 One-Electron (beta)  Energy = -3884.38195773676398
 Total Coulomb        Energy = 2607.04089060331307
    2   -4921.5073543828      9.30e-03  
 Alpha HF Exchange    Energy = -18.92522808739222
 Beta HF Exchange     Energy = -18.75234414539278
 DFT Correlation      Energy =  -5.13058142606292
 DFT Exchange         Energy = -149.96981475110101
 One-Electron (alpha) Energy = -3915.22793710549786
 One-Electron (beta)  Energy = -3871.81161256789892
 Total Coulomb        Energy = 2578.81265316166173
    3   -4921.5389225159      3.38e-03  
 Alpha HF Exchange    Energy = -19.04043852315671
 Beta HF Exchange     Energy = -18.85769221658198
 DFT Correlation      Energy =  -5.16287273324742
 DFT Exchange         Energy = -150.84252845751618
 One-Electron (alpha) Energy = -3926.34297730075014
 One-Electron (beta)  Energy = -3881.93299994588506
 Total Coulomb        Energy = 2601.12838795426160
    4   -4921.5851788171      2.51e-03  
 Alpha HF Exchange    Energy = -18.99820908545083
 Beta HF Exchange     Energy = -18.81822202366719
 DFT Correlation      Energy =  -5.15005760567830
 DFT Exchange         Energy = -150.51435383170133
 One-Electron (alpha) Energy = -3922.68165305494040
 One-Electron (beta)  Energy = -3878.66936595324978
 Total Coulomb        Energy = 2593.72816078845926
    5   -4921.6377583605      4.50e-04  
 Alpha HF Exchange    Energy = -18.99560247004380
 Beta HF Exchange     Energy = -18.81612364048337
 DFT Correlation      Energy =  -5.15004897072208
 DFT Exchange         Energy = -150.49793663346381
 One-Electron (alpha) Energy = -3922.20600632056448
 One-Electron (beta)  Energy = -3878.20492163320614
 Total Coulomb        Energy = 2592.76431400664751
    6   -4921.6403832561      8.36e-05  
 Alpha HF Exchange    Energy = -18.99489326972953
 Beta HF Exchange     Energy = -18.81573097032185
 DFT Correlation      Energy =  -5.14953683244146
 DFT Exchange         Energy = -150.49261464569946
 One-Electron (alpha) Energy = -3922.12498957311118
 One-Electron (beta)  Energy = -3878.16962590742060
 Total Coulomb        Energy = 2592.64096084681296
    7   -4921.6404879462      2.64e-05  
 Alpha HF Exchange    Energy = -18.99505823146653
 Beta HF Exchange     Energy = -18.81580625929515
 DFT Correlation      Energy =  -5.14950646362129
 DFT Exchange         Energy = -150.49335467152048
 One-Electron (alpha) Energy = -3922.12112158164473
 One-Electron (beta)  Energy = -3878.17272127910974
 Total Coulomb        Energy = 2592.64112401246848
    8   -4921.6405020684      1.33e-05  
 Alpha HF Exchange    Energy = -18.99514586408527
 Beta HF Exchange     Energy = -18.81592159479015
 DFT Correlation      Energy =  -5.14950467404660
 DFT Exchange         Energy = -150.49401471631748
 One-Electron (alpha) Energy = -3922.13292127657951
 One-Electron (beta)  Energy = -3878.19192196559015
 Total Coulomb        Energy = 2592.67298112286153
    9   -4921.6405065628      3.82e-06  
 Alpha HF Exchange    Energy = -18.99515173447049
 Beta HF Exchange     Energy = -18.81591505985429
 DFT Correlation      Energy =  -5.14949378432538
 DFT Exchange         Energy = -150.49397462516367
 One-Electron (alpha) Energy = -3922.12597206150076
 One-Electron (beta)  Energy = -3878.18793482663432
 Total Coulomb        Energy = 2592.66199255551737
   10   -4921.6405071307      2.20e-06  
 Alpha HF Exchange    Energy = -18.99515653121609
 Beta HF Exchange     Energy = -18.81592577117517
 DFT Correlation      Energy =  -5.14948960951541
 DFT Exchange         Energy = -150.49402053011593
 One-Electron (alpha) Energy = -3922.12744441795348
 One-Electron (beta)  Energy = -3878.19021789541330
 Total Coulomb        Energy = 2592.66580507278513
   11   -4921.6405072769      7.37e-07  Convergence criterion met
 ---------------------------------------
 SCF time:   CPU 48.76s  wall 4.00s 
<S^2> =          2.011563947
 Alpha HF Exchange    Energy = -18.99515653121609
 Beta HF Exchange     Energy = -18.81592577117517
 DFT Correlation      Energy =  -5.14948960951541
 DFT Exchange         Energy = -150.49402053011593
 One-Electron (alpha) Energy = -3922.12744441795348
 One-Electron (beta)  Energy = -3878.19021789541330
 Total Coulomb        Energy = 2592.66580507278513
 Nuclear repulsion Energy = 479.46594240574791
 SCF   energy in the final basis set =    -4921.6405072769
 Total energy in the final basis set =    -4921.6405072769
 
 --------------------------------------------------------------
 
                    Orbital Energies (a.u.)
 --------------------------------------------------------------
 
 Alpha MOs
 -- Occupied --
*******-453.899 -58.101 -58.094 -52.161 -52.158 -52.155 -52.151
-52.150 -52.148 -10.242 -10.209 -10.196  -7.835  -7.827  -5.784
 -5.776  -5.772  -5.769  -5.765  -5.760  -2.116  -2.115  -2.106
 -2.106  -2.105  -2.101  -2.099  -2.098  -2.095  -2.094  -0.816
 -0.701  -0.695  -0.690  -0.584  -0.481  -0.439  -0.431  -0.389
 -0.382  -0.378  -0.361  -0.337  -0.286  -0.243  -0.242  -0.206
 -- Virtual --
 -0.010   0.029   0.040   0.097   0.119   0.128   0.151   0.158
  0.167   0.177   0.204   0.231   0.247   0.256   0.267   0.288
  0.302   0.323   0.392   0.440   0.450   0.494   0.510   0.518
  0.539   0.541   0.541   0.554   0.569   0.580   0.626   0.661
  0.689   0.721   0.745   0.759   0.798   0.808   0.857   0.873
  0.889   0.903   0.931   0.990   1.012   1.055   1.115   1.186
  1.333   1.408   1.427   1.482   1.519   1.640   1.719   1.771
  1.835   1.881   1.911   1.976   2.019   2.036   2.071   2.078
  2.084   2.089   2.099   2.116   2.117   2.268   2.298   2.348
  2.401   2.489   2.558   2.585   2.597   2.623   2.643   2.700
  2.745   2.824   2.865   2.917   3.179   3.271   3.379   3.407
  3.457   3.512   4.198   4.219   4.219   4.240   4.262   4.262
  4.296   4.336   4.384   4.391   4.420   4.469   4.602   5.403
  5.484  89.571  89.821
 
 Beta MOs
 -- Occupied --
*******-453.898 -58.100 -58.093 -52.157 -52.157 -52.154 -52.151
-52.150 -52.147 -10.244 -10.197 -10.195  -7.832  -7.826  -5.775
 -5.775  -5.771  -5.767  -5.764  -5.759  -2.110  -2.110  -2.105
 -2.104  -2.101  -2.100  -2.097  -2.097  -2.094  -2.093  -0.809
 -0.693  -0.673  -0.660  -0.576  -0.476  -0.436  -0.426  -0.386
 -0.378  -0.369  -0.358  -0.318  -0.235  -0.230
 -- Virtual --
 -0.163  -0.084   0.003   0.037   0.045   0.100   0.121   0.137
  0.158   0.160   0.168   0.181   0.209   0.235   0.254   0.261
  0.285   0.294   0.306   0.334   0.398   0.447   0.456   0.505
  0.523   0.546   0.551   0.561   0.583   0.586   0.587   0.608
  0.636   0.665   0.692   0.726   0.753   0.764   0.808   0.814
  0.859   0.875   0.891   0.909   0.932   1.002   1.018   1.060
  1.121   1.191   1.349   1.423   1.429   1.504   1.535   1.646
  1.724   1.772   1.839   1.886   1.930   1.995   2.027   2.037
  2.071   2.078   2.081   2.095   2.100   2.115   2.125   2.274
  2.299   2.351   2.412   2.503   2.569   2.597   2.598   2.623
  2.644   2.703   2.748   2.826   2.865   2.919   3.180   3.274
  3.383   3.408   3.458   3.518   4.212   4.232   4.233   4.253
  4.264   4.264   4.300   4.338   4.390   4.394   4.431   4.473
  4.605   5.417   5.489  89.576  89.822
 --------------------------------------------------------------
 
          Ground-State Mulliken Net Atomic Charges

     Atom                 Charge (a.u.)    Spin (a.u.)
  --------------------------------------------------------
      1 Se                   -0.116905       1.025470
      2 C                    -0.197897       0.926416
      3 C                    -0.149896      -0.113780
      4 C                    -0.307729       0.007278
      5 Se                   -0.115384       0.258877
      6 H                     0.061015      -0.006395
      7 H                     0.095229      -0.026503
      8 H                     0.119737      -0.040880
      9 H                     0.111997      -0.041088
     10 H                     0.137911       0.012040
     11 H                     0.115026      -0.000931
     12 H                     0.128903       0.000983
     13 H                     0.117995      -0.001487
  --------------------------------------------------------
  Sum of atomic charges =    -0.000000
  Sum of spin   charges =     2.000000

 -----------------------------------------------------------------
                    Cartesian Multipole Moments
 -----------------------------------------------------------------
    Charge (ESU x 10^10)
                 0.0000
    Dipole Moment (Debye)
         X      -1.7447      Y      -2.5248      Z       0.3461
       Tot       3.0884
    Quadrupole Moments (Debye-Ang)
        XX     -63.0674     XY      -1.8423     YY     -57.7446
        XZ      -1.3656     YZ       1.2945     ZZ     -56.6824
    Octopole Moments (Debye-Ang^2)
       XXX    -134.1216    XXY     -22.8834    XYY     -45.6468
       YYY     -17.7263    XXZ     -10.6707    XYZ       1.9538
       YYZ      -0.0363    XZZ     -48.2585    YZZ     -11.6299
       ZZZ     -14.8521
    Hexadecapole Moments (Debye-Ang^3)
      XXXX   -1839.9624   XXXY    -525.2302   XXYY    -484.0400
      XYYY    -493.5518   YYYY   -1052.3127   XXXZ     -23.2837
      XXYZ      11.7636   XYYZ      12.7568   YYYZ      32.7800
      XXZZ    -343.9169   XYZZ    -178.0972   YYZZ    -196.2065
      XZZZ      -2.1310   YZZZ      19.6791   ZZZZ    -114.8344
 -----------------------------------------------------------------
 Calculating analytic gradient of the SCF energy
 Gradient of SCF Energy
            1           2           3           4           5           6
    1   0.0000098   0.0000337  -0.0000939   0.0000231   0.0000277   0.0000121
    2  -0.0000571   0.0000199  -0.0000284   0.0000194   0.0000049   0.0000336
    3  -0.0000374   0.0000436  -0.0000169   0.0000265  -0.0000176  -0.0000375
            7           8           9          10          11          12
    1   0.0000183  -0.0000123  -0.0000157   0.0000212  -0.0000102  -0.0000020
    2  -0.0000298  -0.0000032   0.0000343  -0.0000308   0.0000357  -0.0000031
    3  -0.0000781   0.0000292   0.0000355   0.0000162   0.0000084  -0.0000080
           13
    1  -0.0000118
    2   0.0000046
    3   0.0000361
 Max gradient component =       9.391E-05
 RMS gradient           =       3.169E-05
 Gradient time:  CPU 16.72 s  wall 1.48 s
 Geometry Optimization Parameters
   NAtoms,    NIC,     NZ,  NCons,   NDum,   NFix, NCnnct, MaxDiis
       13      80       0       1       0       0       0       0

 Cartesian Hessian Update
 Hessian Updated using BFGS Update


** CONSTRAINED OPTIMIZATION IN DELOCALIZED INTERNAL COORDINATES **
   Searching for a Minimum

   Optimization Cycle:  11

                       Coordinates (Angstroms)
     ATOM                X               Y               Z
      1  Se        3.5770836850    1.9959542641   -0.0092873716
      2  C         0.2374091164   -2.3337306254    0.5826609900
      3  C        -0.7459428710   -1.6408904575   -0.2257074619
      4  C        -2.2030200298   -2.0180595636    0.0127261297
      5  Se       -0.4998254102    0.4380539616    0.1137437135
      6  H        -0.7057412790    0.3062761231    1.5661596451
      7  H         2.3144268834    1.2062474645   -0.0055561530
      8  H         1.2765798772   -2.3804167288    0.2781309862
      9  H        -0.0086905414   -2.6446233209    1.5938261665
     10  H        -0.4932995361   -1.6543977331   -1.2891888636
     11  H        -2.4720941410   -1.9134979466    1.0684550914
     12  H        -2.8797545598   -1.3942586711   -0.5745782158
     13  H        -2.3591331936   -3.0660567662   -0.2698816567
   Point Group: c1    Number of degrees of freedom:    33


   Energy is  -4921.640507277

              Constraints and their Current Values
                                        Value     Constraint
   Distance(Angs):        1   2             5.500000     5.500000
 Hessian Updated using BFGS Update

 32 Hessian modes will be used to form the next step
  Hessian Eigenvalues:
     0.002383    0.023999    0.041588    0.044544    0.045028    0.045973
     0.048360    0.071065    0.078477    0.079216    0.081636    0.083961
     0.088550    0.114193    0.132743    0.139505    0.160002    0.160009
     0.160072    0.160787    0.162099    0.180907    0.186643    0.203681
     0.302865    0.340665    0.342959    0.345165    0.346081    0.352675
     0.355746    0.391565

 Minimum Search - Taking Simple RFO Step
 Searching for Lamda that Minimizes Along All modes
 Value Taken    Lamda =   0.00000000
 Step Taken.  Stepsize is  0.001404

                             Maximum     Tolerance    Cnvgd?
         Gradient           0.000039      0.000300     YES
         Displacement       0.000789      0.001200     YES
         Energy change     -0.000001      0.000001     YES


                       Distance Matrix (Angstroms)
             Se(  1)   C (  2)   C (  3)   C (  4)   Se(  5)   H (  6)
   C (  2)  5.500000
   C (  3)  5.653498  1.449299
   C (  4)  7.037215  2.525900  1.523870
   Se(  5)  4.366163  2.906233  2.120804  2.990580
   H (  6)  4.866173  2.970932  2.646481  3.171362  1.472847
   H (  7)  1.489279  4.146257  4.185752  5.550119  2.919652  3.521598
   H (  8)  4.952530  1.083879  2.211640  3.508469  3.335628  3.578678
   H (  9)  6.079697  1.086128  2.204932  2.776246  3.454672  3.032236
   H ( 10)  5.615268  2.121144  1.093162  2.179536  2.519249  3.470214
   H ( 11)  7.282712  2.784600  2.174573  1.094485  3.214205  2.880123
   H ( 12)  7.314633  3.455216  2.176164  1.091798  3.081431  3.492980
   H ( 13)  7.805801  2.829340  2.153006  1.096602  3.985346  4.180596
             H (  7)   H (  8)   H (  9)   H ( 10)   H ( 11)   H ( 12)
   H (  8)  3.744565
   H (  9)  4.773270  1.858165
   H ( 10)  4.208840  2.473069  3.086611
   H ( 11)  5.813527  3.859428  2.622769  3.088891
   H ( 12)  5.836603  4.356000  3.808989  2.504697  1.770693
   H ( 13)  6.337556  3.740164  3.029124  2.552078  1.769830  1.777300

 
 Final energy is   -4921.64050727686     


 ******************************
 **  OPTIMIZATION CONVERGED  **
 ******************************

                       Coordinates (Angstroms)
     ATOM                X               Y               Z
      1  Se        3.5770836850    1.9959542641   -0.0092873716
      2  C         0.2374091164   -2.3337306254    0.5826609900
      3  C        -0.7459428710   -1.6408904575   -0.2257074619
      4  C        -2.2030200298   -2.0180595636    0.0127261297
      5  Se       -0.4998254102    0.4380539616    0.1137437135
      6  H        -0.7057412790    0.3062761231    1.5661596451
      7  H         2.3144268834    1.2062474645   -0.0055561530
      8  H         1.2765798772   -2.3804167288    0.2781309862
      9  H        -0.0086905414   -2.6446233209    1.5938261665
     10  H        -0.4932995361   -1.6543977331   -1.2891888636
     11  H        -2.4720941410   -1.9134979466    1.0684550914
     12  H        -2.8797545598   -1.3942586711   -0.5745782158
     13  H        -2.3591331936   -3.0660567662   -0.2698816567

Z-matrix Print:
$molecule
0 3
Se
H  1 1.472847
C  1 2.120804 2 93.090160
H  3 1.093162 1 98.105938 2 -173.892276 0
C  3 1.449299 1 107.493767 2 -57.325760 0
H  5 1.083879 3 120.956982 1 -77.379942 0
H  5 1.086128 3 120.156812 1 90.476683 0
C  3 1.523870 1 109.180249 2 69.659166 0
H  8 1.091798 3 111.536024 1 53.494763 0
H  8 1.094485 3 111.244547 1 -67.381737 0
H  8 1.096602 3 109.410548 1 173.683097 0
H  1 2.919652 2 101.454873 3 -112.463751 0
Se 12 1.489279 1 163.105980 2 -85.655008 0
$end

PES scan, value:    5.5000 energy: -4921.6405072769
------- Summary of potential scan: ------ 
    5.5000     -4921.6405072769
----------------------------------------- 
Archival summary:
1\1\hpc0248\JobtypUnspecified\ProcedureUnspecified\6-31G**\e238(3)\knomura\ThuMar1409:13:112019ThuMar1409:13:112019\0\\#,JobtypUnspecified,ProcedureUnspecified,6-31G**,\\0,3\Se\H,1,1.47285\C,1,2.1208,2,93.0902\H,3,1.09316,1,98.1059,2,-173.892,0\C,3,1.4493,1,107.494,2,-57.3258,0\H,5,1.08388,3,120.957,1,-77.3799,0\H,5,1.08613,3,120.157,1,90.4767,0\C,3,1.52387,1,109.18,2,69.6592,0\H,8,1.0918,3,111.536,1,53.4948,0\H,8,1.09449,3,111.245,1,-67.3817,0\H,8,1.0966,3,109.411,1,173.683,0\H,1,2.91965,2,101.455,3,-112.464,0\Se,12,1.48928,1,163.106,2,-85.655,0\\\@

 Total job time:  68.54s(wall), 792.48s(cpu) 
 Thu Mar 14 09:13:11 2019

        *************************************************************
        *                                                           *
        *  Thank you very much for using Q-Chem.  Have a nice day.  *
        *                                                           *
        *************************************************************


