
Running Job 1 of 1 selenium/03/C-Se.xyz.data/inputs/bond_triplet_4.7.in
qchem selenium/03/C-Se.xyz.data/inputs/bond_triplet_4.7.in_12275.0 /staging/scratch/2868765/qchem12275/ 1
/usr/usc/qchem/5.1.1/exe/qcprog.exe_s selenium/03/C-Se.xyz.data/inputs/bond_triplet_4.7.in_12275.0 /staging/scratch/2868765/qchem12275/
Check license passed

                  Welcome to Q-Chem
     A Quantum Leap Into The Future Of Chemistry


 Q-Chem 5.1, Q-Chem, Inc., Pleasanton, CA (2018)

 Yihan Shao,  Zhengting Gan,  E. Epifanovsky,  A. T. B. Gilbert,  M. Wormit,  
 J. Kussmann,  A. W. Lange,  A. Behn,  Jia Deng,  Xintian Feng,  D. Ghosh,  
 M. Goldey,  P. R. Horn,  L. D. Jacobson,  I. Kaliman,  T. Kus,  A. Landau,  
 Jie Liu,  E. I. Proynov,  R. M. Richard,  R. P. Steele,  E. J. Sundstrom,  
 H. L. Woodcock III,  P. M. Zimmerman,  D. Zuev,  B. Albrecht,  E. Alguire,  
 S. A. Baeppler,  D. Barton,  Z. Benda,  Y. A. Bernard,  E. J. Berquist,  
 K. B. Bravaya,  H. Burton,  D. Casanova,  Chun-Min Chang,  Yunqing Chen,  
 A. Chien,  K. D. Closser,  M. P. Coons,  S. Coriani,  S. Dasgupta,  
 A. L. Dempwolff,  M. Diedenhofen,  Hainam Do,  R. G. Edgar,  Po-Tung Fang,  
 S. Faraji,  S. Fatehi,  Qingguo Feng,  K. D. Fenk,  J. Fosso-Tande,  
 Qinghui Ge,  A. Ghysels,  G. Gidofalvi,  J. Gomes,  J. Gonthier,  A. Gunina,  
 D. Hait,  M. W. D. Hanson-Heine,  P. H. P. Harbach,  A. W. Hauser,  
 J. E. Herr,  E. G. Hohenstein,  Z. C. Holden,  Kerwin Hui,  B. C. Huynh,  
 T.-C. Jagau,  Hyunjun Ji,  B. Kaduk,  K. Khistyaev,  Jaehoon Kim,  
 P. Klunzinger,  K. Koh,  D. Kosenkov,  L. Koulias,  T. Kowalczyk,  
 C. M. Krauter,  A. Kunitsa,  Ka Un Lao,  A. Laurent,  K. V. Lawler,  
 Joonho Lee,  D. Lefrancois,  S. Lehtola,  D. S. Levine,  Yi-Pei Li,  
 You-Sheng Lin,  Fenglai Liu,  E. Livshits,  A. Luenser,  P. Manohar,  
 E. Mansoor,  S. F. Manzer,  Shan-Ping Mao,  Yuezhi Mao,  N. Mardirossian,  
 A. V. Marenich,  T. Markovich,  L. A. Martinez-Martinez,  S. A. Maurer,  
 N. J. Mayhall,  S. C. McKenzie,  J.-M. Mewes,  A. F. Morrison,  
 J. W. Mullinax,  K. Nanda,  T. S. Nguyen-Beck,  R. Olivares-Amaya,  
 J. A. Parkhill,  T. M. Perrine,  F. Plasser,  P. Pokhilko,  S. Prager,  
 A. Prociuk,  E. Ramos,  D. R. Rehn,  F. Rob,  M. Schneider,  N. Sergueev,  
 S. M. Sharada,  S. Sharma,  D. W. Small,  T. Stauch,  T. Stein,  
 Yu-Chuan Su,  A. J. W. Thom,  A. Tkatchenko,  T. Tsuchimochi,  N. M. Tubman,  
 L. Vogt,  M. L. Vidal,  O. Vydrov,  M. A. Watson,  J. Wenzel,  
 M. de Wergifosse,  T. A. Wesolowski,  A. White,  J. Witte,  A. Yamada,  
 Jun Yang,  K. Yao,  S. Yeganeh,  S. R. Yost,  Zhi-Qiang You,  A. Zech,  
 Igor Ying Zhang,  Xing Zhang,  Yan Zhao,  Ying Zhu,  B. R. Brooks,  
 G. K. L. Chan,  C. J. Cramer,  M. S. Gordon,  W. J. Hehre,  A. Klamt,  
 M. W. Schmidt,  C. D. Sherrill,  D. G. Truhlar,  A. Aspuru-Guzik,  R. Baer,  
 A. T. Bell,  N. A. Besley,  Jeng-Da Chai,  A. E. DePrince, III,  
 R. A. DiStasio Jr.,  A. Dreuw,  B. D. Dunietz,  T. R. Furlani,  
 Chao-Ping Hsu,  Yousung Jung,  Jing Kong,  D. S. Lambrecht,  WanZhen Liang,  
 C. Ochsenfeld,  V. A. Rassolov,  L. V. Slipchenko,  J. E. Subotnik,  
 T. Van Voorhis,  J. M. Herbert,  A. I. Krylov,  P. M. W. Gill,  M. Head-Gordon

 Contributors to earlier versions of Q-Chem not listed above: 
 R. D. Adamson,  B. Austin,  J. Baker,  G. J. O. Beran,  K. Brandhorst,  
 S. T. Brown,  E. F. C. Byrd,  A. K. Chakraborty,  C.-L. Cheng,  
 Siu Hung Chien,  D. M. Chipman,  D. L. Crittenden,  H. Dachsel,  
 R. J. Doerksen,  A. D. Dutoi,  L. Fusti-Molnar,  W. A. Goddard III,  
 A. Golubeva-Zadorozhnaya,  S. R. Gwaltney,  G. Hawkins,  A. Heyden,  
 S. Hirata,  G. Kedziora,  F. J. Keil,  C. Kelley,  Jihan Kim,  R. A. King,  
 R. Z. Khaliullin,  P. P. Korambath,  W. Kurlancheek,  A. M. Lee,  M. S. Lee,  
 S. V. Levchenko,  Ching Yeh Lin,  D. Liotard,  R. C. Lochan,  I. Lotan,  
 P. E. Maslen,  N. Nair,  D. P. O'Neill,  D. Neuhauser,  E. Neuscamman,  
 C. M. Oana,  R. Olson,  B. Peters,  R. Peverati,  P. A. Pieniazek,  
 Y. M. Rhee,  J. Ritchie,  M. A. Rohrdanz,  E. Rosta,  N. J. Russ,  
 H. F. Schaefer III,  N. E. Schultz,  N. Shenvi,  A. C. Simmonett,  A. Sodt,  
 D. Stuck,  K. S. Thanthiriwatte,  V. Vanovschi,  Tao Wang,  A. Warshel,  
 C. F. Williams,  Q. Wu,  X. Xu,  W. Zhang

 Please cite Q-Chem as follows:
 Y. Shao et al., Mol. Phys. 113, 184-215 (2015)
 DOI: 10.1080/00268976.2014.952696

 Q-Chem 5.1.1 for Intel X86 EM64T Linux

 Parts of Q-Chem use Armadillo 8.300.2 (Tropical Shenanigans).
 http://arma.sourceforge.net/

 Q-Chem begins on Thu Mar 14 09:22:17 2019  

Host: 
0

     Scratch files written to /staging/scratch/2868765/qchem12275//
 Aug318 |scratch|qcdevops|jenkins|workspace|build_RNUM 6013   
Processing $rem in /usr/usc/qchem/5.1.1/config/preferences.
 MEM_TOTAL  2000 
Input Ideriv = 2
Curr. Ideriv = -1
Max.  Ideriv = 2

Checking the input file for inconsistencies... 	...done.

--------------------------------------------------------------
User input:
--------------------------------------------------------------

$comment
potential surface scanner
$end

$rem
JOBTYPE  PES_SCAN
UNRESTRICTED TRUE
SYM_IGNORE  TRUE
GEOM_OPT_MAX_CYCLES 400
SCF_MAX_CYCLES 400
METHOD   B3LYP
BASIS   6-31G**
PDB_PRINT 2
SCF_CONVERGENCE 6
THRESH 14
SCF_PRINT 1
$end
$molecule
0 3
Se 3.501862 1.490810 0.123093
C 0.338302 -2.098747 0.506455
C -0.752116 -1.527271 -0.260170
C -2.145902 -2.061611 0.050247
Se -0.720824 0.565081 0.053221
H -0.915752 0.430610 1.507008
H 2.231680 0.717475 0.123582
H 1.359825 -2.049057 0.146783
H 0.177998 -2.414559 1.533087
H -0.549232 -1.528263 -1.334313
H -2.372199 -1.979384 1.117916
H -2.916126 -1.521682 -0.504380
H -2.199517 -3.122808 -0.221029
$end
$scan
stre 1 2 4.700000 4.701000 0.100000
$end
--------------------------------------------------------------
 ----------------------------------------------------------------
             Standard Nuclear Orientation (Angstroms)
    I     Atom           X                Y                Z
 ----------------------------------------------------------------
    1      Se      3.5018620000     1.4908100000     0.1230930000
    2      C       0.3383020000    -2.0987470000     0.5064550000
    3      C      -0.7521160000    -1.5272710000    -0.2601700000
    4      C      -2.1459020000    -2.0616110000     0.0502470000
    5      Se     -0.7208240000     0.5650810000     0.0532210000
    6      H      -0.9157520000     0.4306100000     1.5070080000
    7      H       2.2316800000     0.7174750000     0.1235820000
    8      H       1.3598250000    -2.0490570000     0.1467830000
    9      H       0.1779980000    -2.4145590000     1.5330870000
   10      H      -0.5492320000    -1.5282630000    -1.3343130000
   11      H      -2.3721990000    -1.9793840000     1.1179160000
   12      H      -2.9161260000    -1.5216820000    -0.5043800000
   13      H      -2.1995170000    -3.1228080000    -0.2210290000
 ----------------------------------------------------------------
 Nuclear Repulsion Energy =   488.4101269392 hartrees
 There are       48 alpha and       46 beta electrons
 Requested basis set is 6-31G(d,p)
 There are 52 shells and 155 basis functions

 Total QAlloc Memory Limit   2000 MB
 Mega-Array Size       188 MB
 MEM_STATIC part       192 MB
A total of 1 constraints
  
            1
    1   1.0100000
    2   1.0100000
    3   2.0100000
    4   4.7000000
    5   4.7010000
    6   0.1000000
    7   0.0000000
    8   0.0000000
    9   0.0000000
   10   0.0000000

                       Distance Matrix (Angstroms)
             Se(  1)   C (  2)   C (  3)   C (  4)   Se(  5)   H (  6)
   C (  2)  4.800000
   C (  3)  5.229917  1.450279
   C (  4)  6.672499  2.526019  1.524637
   Se(  5)  4.323533  2.902266  2.115923  2.988372
   H (  6)  4.749164  2.995230  2.642535  3.137927  1.472948
   H (  7)  1.487081  3.415052  3.753557  5.185742  2.957271  3.449998
   H (  8)  4.137577  1.084132  2.213180  3.507078  3.342390  3.630043
   H (  9)  5.318652  1.086005  2.206391  2.779190  3.446177  3.048271
   H ( 10)  5.258345  2.121696  1.093136  2.179638  2.517297  3.470537
   H ( 11)  6.894673  2.781177  2.174442  1.094481  3.214797  2.842657
   H ( 12)  7.117542  3.456312  2.177753  1.091961  3.079748  3.443635
   H ( 13)  7.342317  2.831688  2.154586  1.096633  3.982747  4.154629
             H (  7)   H (  8)   H (  9)   H ( 10)   H ( 11)   H ( 12)
   H (  8)  2.900753
   H (  9)  4.001744  1.857995
   H ( 10)  3.860346  2.471714  3.088101
   H ( 11)  5.427472  3.856936  2.620162  3.088713
   H ( 12)  5.648723  4.357281  3.810788  2.508190  1.771212
   H ( 13)  5.873843  3.735926  3.038275  2.550572  1.769184  1.776913

 
 A cutoff of  1.0D-14 yielded   1175 shell pairs
 There are     10107 function pairs
 
 -------------------------------------------------------
 OpenMP Integral Computing Module                       
 Release: version 1.0, May 2013, Q-Chem Inc. Pittsburgh 
 -------------------------------------------------------
 Integral Job Info:
 Integral job number is                      11
 Integral operator is                         1
 short-range coefficients                     0
 long-range coefficients              100000000
 Omega coefficients                           0
 if combine SR and LR in K                    0
 Integral screening is                        0
 Integral computing path is                   2
 max size of driver memory is            800000
 size of driver memory is                593474
 size of scratch memory is             15267112
 max col of scratch BK array               1296
 max len of scratch array in speh3          155
 max len of scratch index in speh4           18
 max int batch size is                      520
 min int batch size is                       52
 fixed nKL is                                52
 max L of basis functions is                  2
 order of int derivative is                   0
 number of shells is                         52
 number of basis is                         155
 number of cartesian basis is               155
 number of contracted shell pairs          1175
 number of primitive shell pairs           4643
 maxK2 (contraction) of shell pair           36
 max number of K2 of shell pair               1
 max number of CS2 of shell pair             87
 max number of PS2 of shell pair            462
 mem total for path MDJ                  528444
 -------------------------------------------------------
 Smallest overlap matrix eigenvalue = 6.74E-04

 Scale SEOQF with 1.000000e-01/1.000000e-01/1.000000e+00

 Standard Electronic Orientation quadrupole field applied
 Nucleus-field energy     =     0.0000000193 hartrees
 Guess from superposition of atomic densities
 Warning:  Energy on first SCF cycle will be non-variational
 SAD guess density has 93.936381 electrons

 -----------------------------------------------------------------------
  General SCF calculation program by
  Eric Jon Sundstrom, Paul Horn, Yuezhi Mao, Dmitri Zuev, Alec White,
  David Stuck, Shaama M.S., Shane Yost, Joonho Lee, David Small,
  Daniel Levine, Susi Lehtola, Hugh Burton, Evgeny Epifanovsky
 -----------------------------------------------------------------------
 Exchange:     0.2000 Hartree-Fock + 0.0800 Slater + 0.7200 B88
 Correlation:  0.1900 VWN1RPA + 0.8100 LYP
 Using SG-1 standard quadrature grid
 using 12 threads for integral computing
 -------------------------------------------------------
 OpenMP Integral computing Module                
 Release: version 1.0, May 2013, Q-Chem Inc. Pittsburgh 
 -------------------------------------------------------
 -------------------------------------------------------
 OpenMP BLAS3 based DFT computing Module                
 Release: version 1.0, May 2013, Q-Chem Inc. Pittsburgh 
 -------------------------------------------------------
 A unrestricted SCF calculation will be
 performed using DIIS
 SCF converges when DIIS error is below 1.0e-06
 Alpha HF Exchange    Energy = -18.84241442987879
 Beta HF Exchange     Energy = -18.84241442987879
 DFT Correlation      Energy =  -5.12616779645984
 DFT Exchange         Energy = -149.84871266455229
 One-Electron (alpha) Energy = -3906.06327935119771
 One-Electron (beta)  Energy = -3906.06327935119771
 Total Coulomb        Energy = 2588.97573828609893
 ---------------------------------------
  Cycle       Energy         DIIS error
 ---------------------------------------
    1   -4927.4004027786      1.50e-01  
 Alpha HF Exchange    Energy = -19.06297447660431
 Beta HF Exchange     Energy = -18.86543774173536
 DFT Correlation      Energy =  -5.17450814587908
 DFT Exchange         Energy = -151.01243549858185
 One-Electron (alpha) Energy = -3938.68412251290238
 One-Electron (beta)  Energy = -3892.63540729253191
 Total Coulomb        Energy = 2615.52820525444486
    2   -4921.4965534553      9.30e-03  
 Alpha HF Exchange    Energy = -18.92511779812016
 Beta HF Exchange     Energy = -18.75383493919217
 DFT Correlation      Energy =  -5.13085501456815
 DFT Exchange         Energy = -149.97413303987045
 One-Electron (alpha) Energy = -3924.71819154127525
 One-Electron (beta)  Energy = -3880.83520436105937
 Total Coulomb        Energy = 2588.39917418804316
    3   -4921.5280355476      3.46e-03  
 Alpha HF Exchange    Energy = -19.03996591556029
 Beta HF Exchange     Energy = -18.85261602855422
 DFT Correlation      Energy =  -5.16357534991332
 DFT Exchange         Energy = -150.82867330353133
 One-Electron (alpha) Energy = -3935.11159825611912
 One-Electron (beta)  Energy = -3889.79437933417103
 Total Coulomb        Energy = 2608.80656458479643
    4   -4921.5741166446      2.63e-03  
 Alpha HF Exchange    Energy = -18.99992906459175
 Beta HF Exchange     Energy = -18.81946430111881
 DFT Correlation      Energy =  -5.15069634439350
 DFT Exchange         Energy = -150.52619104719707
 One-Electron (alpha) Energy = -3932.24247412907698
 One-Electron (beta)  Energy = -3887.54967536384447
 Total Coulomb        Energy = 2603.24287770741466
    5   -4921.6354255843      6.22e-04  
 Alpha HF Exchange    Energy = -18.99591126115359
 Beta HF Exchange     Energy = -18.81547932576736
 DFT Correlation      Energy =  -5.15051517451394
 DFT Exchange         Energy = -150.49765909784389
 One-Electron (alpha) Energy = -3931.47425014739565
 One-Electron (beta)  Energy = -3886.77877754100246
 Total Coulomb        Energy = 2601.66229045190494
    6   -4921.6401751373      8.77e-05  
 Alpha HF Exchange    Energy = -18.99505332629015
 Beta HF Exchange     Energy = -18.81515976853147
 DFT Correlation      Energy =  -5.14988570638053
 DFT Exchange         Energy = -150.49152045814944
 One-Electron (alpha) Energy = -3931.35598486475055
 One-Electron (beta)  Energy = -3886.72352833223249
 Total Coulomb        Energy = 2601.48068544828357
    7   -4921.6403200496      2.84e-05  
 Alpha HF Exchange    Energy = -18.99538350931975
 Beta HF Exchange     Energy = -18.81552092592758
 DFT Correlation      Energy =  -5.14989570228214
 DFT Exchange         Energy = -150.49385265189483
 One-Electron (alpha) Energy = -3931.38402009744459
 One-Electron (beta)  Energy = -3886.76602933019876
 Total Coulomb        Energy = 2601.55423175106353
    8   -4921.6403435075      1.61e-05  
 Alpha HF Exchange    Energy = -18.99541643899767
 Beta HF Exchange     Energy = -18.81559761139442
 DFT Correlation      Energy =  -5.14988937944309
 DFT Exchange         Energy = -150.49412305706261
 One-Electron (alpha) Energy = -3931.38214780312819
 One-Electron (beta)  Energy = -3886.77273770560396
 Total Coulomb        Energy = 2601.55943548802907
    9   -4921.6403495491      3.50e-06  
 Alpha HF Exchange    Energy = -18.99542204392164
 Beta HF Exchange     Energy = -18.81562564625158
 DFT Correlation      Energy =  -5.14987231550245
 DFT Exchange         Energy = -150.49417256143761
 One-Electron (alpha) Energy = -3931.37728863983193
 One-Electron (beta)  Energy = -3886.77359225277269
 Total Coulomb        Energy = 2601.55549593977503
   10   -4921.6403505615      1.48e-06  
 Alpha HF Exchange    Energy = -18.99542007429816
 Beta HF Exchange     Energy = -18.81562703232570
 DFT Correlation      Energy =  -5.14986941214740
 DFT Exchange         Energy = -150.49416104039744
 One-Electron (alpha) Energy = -3931.37711008299266
 One-Electron (beta)  Energy = -3886.77442847016300
 Total Coulomb        Energy = 2601.55613828462629
   11   -4921.6403508692      9.93e-07  Convergence criterion met
 ---------------------------------------
 SCF time:   CPU 50.39s  wall 4.00s 
<S^2> =          2.011359971
 Alpha HF Exchange    Energy = -18.99542007429816
 Beta HF Exchange     Energy = -18.81562703232570
 DFT Correlation      Energy =  -5.14986941214740
 DFT Exchange         Energy = -150.49416104039744
 One-Electron (alpha) Energy = -3931.37711008299266
 One-Electron (beta)  Energy = -3886.77442847016300
 Total Coulomb        Energy = 2601.55613828462629
 Nuclear repulsion Energy = 488.41012695846257
 SCF   energy in the final basis set =    -4921.6403508692
 Total energy in the final basis set =    -4921.6403508692
 
 --------------------------------------------------------------
 
                    Orbital Energies (a.u.)
 --------------------------------------------------------------
 
 Alpha MOs
 -- Occupied --
*******-453.899 -58.102 -58.095 -52.161 -52.158 -52.155 -52.152
-52.151 -52.149 -10.243 -10.210 -10.196  -7.835  -7.828  -5.784
 -5.777  -5.773  -5.770  -5.765  -5.760  -2.116  -2.115  -2.107
 -2.106  -2.106  -2.102  -2.100  -2.098  -2.096  -2.095  -0.817
 -0.702  -0.695  -0.691  -0.585  -0.482  -0.439  -0.431  -0.390
 -0.383  -0.379  -0.361  -0.338  -0.286  -0.243  -0.243  -0.207
 -- Virtual --
 -0.011   0.029   0.038   0.097   0.118   0.125   0.150   0.158
  0.166   0.178   0.207   0.227   0.249   0.258   0.273   0.287
  0.302   0.323   0.402   0.441   0.446   0.495   0.514   0.517
  0.539   0.541   0.541   0.553   0.568   0.579   0.632   0.661
  0.690   0.710   0.741   0.759   0.794   0.809   0.857   0.874
  0.890   0.902   0.930   1.003   1.014   1.045   1.128   1.185
  1.335   1.422   1.426   1.485   1.523   1.639   1.719   1.769
  1.835   1.881   1.906   1.975   2.020   2.037   2.073   2.079
  2.083   2.087   2.106   2.114   2.117   2.269   2.298   2.347
  2.401   2.487   2.556   2.585   2.597   2.626   2.643   2.699
  2.746   2.824   2.864   2.916   3.179   3.269   3.379   3.406
  3.457   3.512   4.198   4.219   4.219   4.240   4.261   4.261
  4.297   4.336   4.381   4.392   4.419   4.474   4.601   5.404
  5.487  89.572  89.830
 
 Beta MOs
 -- Occupied --
*******-453.899 -58.101 -58.094 -52.157 -52.157 -52.154 -52.152
-52.151 -52.148 -10.244 -10.198 -10.196  -7.832  -7.827  -5.775
 -5.775  -5.772  -5.768  -5.764  -5.760  -2.111  -2.110  -2.106
 -2.105  -2.101  -2.101  -2.098  -2.097  -2.095  -2.094  -0.809
 -0.694  -0.674  -0.661  -0.577  -0.477  -0.436  -0.426  -0.387
 -0.379  -0.369  -0.358  -0.319  -0.235  -0.230
 -- Virtual --
 -0.163  -0.084   0.001   0.035   0.046   0.099   0.120   0.133
  0.156   0.161   0.167   0.183   0.212   0.233   0.255   0.262
  0.289   0.297   0.306   0.333   0.409   0.447   0.452   0.506
  0.522   0.545   0.554   0.559   0.583   0.586   0.587   0.606
  0.645   0.664   0.692   0.715   0.749   0.763   0.805   0.814
  0.859   0.876   0.891   0.908   0.931   1.012   1.022   1.049
  1.135   1.190   1.351   1.427   1.441   1.503   1.539   1.644
  1.723   1.769   1.839   1.886   1.925   1.994   2.027   2.038
  2.074   2.079   2.080   2.095   2.106   2.115   2.125   2.274
  2.298   2.350   2.412   2.501   2.567   2.597   2.598   2.627
  2.644   2.702   2.748   2.825   2.864   2.918   3.179   3.272
  3.383   3.408   3.457   3.518   4.213   4.232   4.233   4.253
  4.263   4.264   4.301   4.339   4.386   4.395   4.430   4.478
  4.605   5.418   5.492  89.577  89.832
 --------------------------------------------------------------
 
          Ground-State Mulliken Net Atomic Charges

     Atom                 Charge (a.u.)    Spin (a.u.)
  --------------------------------------------------------
      1 Se                   -0.116006       1.019999
      2 C                    -0.200756       0.930062
      3 C                    -0.151864      -0.112120
      4 C                    -0.308574       0.007511
      5 Se                   -0.105646       0.259758
      6 H                     0.060864      -0.006395
      7 H                     0.090823      -0.026853
      8 H                     0.117548      -0.041239
      9 H                     0.113078      -0.041257
     10 H                     0.138396       0.011610
     11 H                     0.114519      -0.000920
     12 H                     0.129129       0.001091
     13 H                     0.118489      -0.001246
  --------------------------------------------------------
  Sum of atomic charges =     0.000000
  Sum of spin   charges =     2.000000

 -----------------------------------------------------------------
                    Cartesian Multipole Moments
 -----------------------------------------------------------------
    Charge (ESU x 10^10)
                -0.0000
    Dipole Moment (Debye)
         X      -1.6501      Y      -2.4214      Z       0.3415
       Tot       2.9500
    Quadrupole Moments (Debye-Ang)
        XX     -62.9843     XY      -1.3293     YY     -57.0543
        XZ      -0.9935     YZ       0.3438     ZZ     -57.2372
    Octopole Moments (Debye-Ang^2)
       XXX    -116.5285    XXY     -15.6748    XYY     -38.3513
       YYY       1.7964    XXZ      -7.3586    XYZ      -1.1278
       YYZ      -5.1902    XZZ     -45.5980    YZZ      -5.7384
       ZZZ     -19.0802
    Hexadecapole Moments (Debye-Ang^3)
      XXXX   -1787.6080   XXXY    -395.1704   XXYY    -429.7404
      XYYY    -359.1351   YYYY    -812.2509   XXXZ     -26.6004
      XXYZ       2.0798   XYYZ      -7.7129   YYYZ       5.2067
      XXZZ    -342.5509   XYZZ    -136.7866   YYZZ    -155.8334
      XZZZ     -30.2043   YZZZ       1.6775   ZZZZ    -113.9057
 -----------------------------------------------------------------
 Calculating analytic gradient of the SCF energy
 Gradient of SCF Energy
            1           2           3           4           5           6
    1  -0.0000842   0.0000914   0.0000542  -0.0000327   0.0000297   0.0000085
    2  -0.0002428   0.0001815   0.0000367   0.0000175   0.0000090   0.0000424
    3  -0.0000084   0.0000139  -0.0000048   0.0000171  -0.0000344  -0.0000479
            7           8           9          10          11          12
    1   0.0000012   0.0000273  -0.0000358  -0.0000026  -0.0000207  -0.0000038
    2  -0.0001014  -0.0000269   0.0000085  -0.0000463   0.0000619   0.0000325
    3  -0.0000592   0.0000571   0.0000301   0.0000114   0.0000035  -0.0000094
           13
    1  -0.0000325
    2   0.0000274
    3   0.0000309
 Max gradient component =       2.428E-04
 RMS gradient           =       6.226E-05
 Gradient time:  CPU 17.28 s  wall 1.52 s
 Geometry Optimization Parameters
   NAtoms,    NIC,     NZ,  NCons,   NDum,   NFix, NCnnct, MaxDiis
       13      90       0       1       0       0       0       0


** CONSTRAINED OPTIMIZATION IN DELOCALIZED INTERNAL COORDINATES **
   Searching for a Minimum

   Optimization Cycle:   1

                       Coordinates (Angstroms)
     ATOM                X               Y               Z
      1  Se        3.5018620000    1.4908100000    0.1230930000
      2  C         0.3383020000   -2.0987470000    0.5064550000
      3  C        -0.7521160000   -1.5272710000   -0.2601700000
      4  C        -2.1459020000   -2.0616110000    0.0502470000
      5  Se       -0.7208240000    0.5650810000    0.0532210000
      6  H        -0.9157520000    0.4306100000    1.5070080000
      7  H         2.2316800000    0.7174750000    0.1235820000
      8  H         1.3598250000   -2.0490570000    0.1467830000
      9  H         0.1779980000   -2.4145590000    1.5330870000
     10  H        -0.5492320000   -1.5282630000   -1.3343130000
     11  H        -2.3721990000   -1.9793840000    1.1179160000
     12  H        -2.9161260000   -1.5216820000   -0.5043800000
     13  H        -2.1995170000   -3.1228080000   -0.2210290000
   Point Group: c1    Number of degrees of freedom:    33


   Energy is  -4921.640350869

              Constraints and their Current Values
                                        Value     Constraint
   Distance(Angs):        1   2             4.800000     4.700000

 Attempting to Generate Delocalized Internal Coordinates

   Using Lagrange Multiplier Algorithm


 34 Hessian modes will be used to form the next step
  Hessian Eigenvalues:
    -0.997986    0.020344    0.039908    0.045000    0.045244    0.045419
     0.046030    0.068778    0.070580    0.077004    0.082389    0.083964
     0.084114    0.090329    0.099731    0.116755    0.129815    0.157527
     0.160000    0.160000    0.160000    0.163843    0.167102    0.181097
     0.183055    0.299243    0.329556    0.340572    0.342999    0.344527
     0.345870    0.352784    0.365478    1.002018

 Minimum Search - Taking P-RFO Step
 Searching for Lamda that Maximizes Along the Constraint modes Only
 Value Taken    Lamda =   0.01766068
 Searching for Lamda that Minimizes Along All other modes
 Value Taken    Lamda =  -0.01743445
 Step Taken.  Stepsize is  0.185715

                             Maximum     Tolerance    Cnvgd?
         Gradient            0.188972       0.000300      NO
         Displacement        0.185713       0.001200      NO
         Energy change     *********       0.000001      NO


 New Cartesian Coordinates Obtained by Inverse Iteration

 Displacement from previous Coordinates is:  0.193237
 ----------------------------------------------------------------
             Standard Nuclear Orientation (Angstroms)
    I     Atom           X                Y                Z
 ----------------------------------------------------------------
    1      Se      3.4641127185     1.4260805287     0.1353328455
    2      C       0.3577808237    -2.0847028387     0.4977085704
    3      C      -0.7435547200    -1.5179026334    -0.2638848245
    4      C      -2.1345236997    -2.0551049474     0.0539979058
    5      Se     -0.7430068183     0.5721190487     0.0484487371
    6      H      -0.9347914797     0.4349100721     1.5023978657
    7      H       2.2025165718     0.7015587202     0.1279813758
    8      H       1.3657929775    -2.0492302592     0.1434198513
    9      H       0.1989528593    -2.3984286151     1.5252134666
   10      H      -0.5437783228    -1.5222194063    -1.3386091456
   11      H      -2.3565734533    -1.9702878953     1.1223578926
   12      H      -2.9085304332    -1.5189380919    -0.4990068081
   13      H      -2.1863980239    -3.1172596823    -0.2138577325
 ----------------------------------------------------------------
 Nuclear Repulsion Energy =   491.1773045319 hartrees
 There are       48 alpha and       46 beta electrons

                       Distance Matrix (Angstroms)
             Se(  1)   C (  2)   C (  3)   C (  4)   Se(  5)   H (  6)
   C (  2)  4.701725
   C (  3)  5.150813  1.454038
   C (  4)  6.593178  2.531667  1.524608
   Se(  5)  4.293792  2.910716  2.113231  2.972988
   H (  6)  4.711862  3.004762  2.640039  3.120480  1.472948
   H (  7)  1.454858  3.361994  3.709300  5.139512  2.949439  3.435524
   H (  8)  4.059655  1.069050  2.213042  3.501464  3.365639  3.648351
   H (  9)  5.217270  1.086009  2.205566  2.779831  3.448518  3.051836
   H ( 10)  5.189236  2.121617  1.093143  2.180319  2.519896  3.471969
   H ( 11)  6.811015  2.787651  2.174431  1.094483  3.196985  2.819729
   H ( 12)  7.048837  3.461549  2.177706  1.091959  3.059693  3.423272
   H ( 13)  7.258936  2.836432  2.154586  1.096636  3.970352  4.138836
             H (  7)   H (  8)   H (  9)   H ( 10)   H ( 11)   H ( 12)
   H (  8)  2.875271
   H (  9)  3.946701  1.841958
   H ( 10)  3.825992  2.473987  3.085591
   H ( 11)  5.377067  3.849748  2.622272  3.089231
   H ( 12)  5.607720  4.354740  3.811486  2.509381  1.771213
   H ( 13)  5.827761  3.726445  3.038254  2.550964  1.769174  1.776912

 
 Applying Cartesian multipole field
    Component          Value
    ---------          -----
     (2,0,0)        1.00000E-11
     (0,2,0)        2.00000E-11
     (0,0,2)       -3.00000E-10
 Nucleus-field energy     =     0.0000000184 hartrees
 Requested basis set is 6-31G(d,p)
 There are 52 shells and 155 basis functions
 A cutoff of  1.0D-14 yielded   1179 shell pairs
 There are     10177 function pairs
 Smallest overlap matrix eigenvalue = 6.74E-04
 Guess from superposition of atomic densities
 Warning:  Energy on first SCF cycle will be non-variational
 SAD guess density has 93.936381 electrons

 -----------------------------------------------------------------------
  General SCF calculation program by
  Eric Jon Sundstrom, Paul Horn, Yuezhi Mao, Dmitri Zuev, Alec White,
  David Stuck, Shaama M.S., Shane Yost, Joonho Lee, David Small,
  Daniel Levine, Susi Lehtola, Hugh Burton, Evgeny Epifanovsky
 -----------------------------------------------------------------------
 Exchange:     0.2000 Hartree-Fock + 0.0800 Slater + 0.7200 B88
 Correlation:  0.1900 VWN1RPA + 0.8100 LYP
 Using SG-1 standard quadrature grid
 using 12 threads for integral computing
 -------------------------------------------------------
 OpenMP Integral computing Module                
 Release: version 1.0, May 2013, Q-Chem Inc. Pittsburgh 
 -------------------------------------------------------
 -------------------------------------------------------
 OpenMP BLAS3 based DFT computing Module                
 Release: version 1.0, May 2013, Q-Chem Inc. Pittsburgh 
 -------------------------------------------------------
 A unrestricted SCF calculation will be
 performed using DIIS
 SCF converges when DIIS error is below 1.0e-06
 Alpha HF Exchange    Energy = -18.84450291130952
 Beta HF Exchange     Energy = -18.84450291130952
 DFT Correlation      Energy =  -5.12681200668318
 DFT Exchange         Energy = -149.85369101004790
 One-Electron (alpha) Energy = -3908.80657339032496
 One-Electron (beta)  Energy = -3908.80657339032496
 Total Coulomb        Energy = 2591.67981808439754
 ---------------------------------------
  Cycle       Energy         DIIS error
 ---------------------------------------
    1   -4927.4255329853      1.50e-01  
 Alpha HF Exchange    Energy = -19.06454430777107
 Beta HF Exchange     Energy = -18.86536496285715
 DFT Correlation      Energy =  -5.17531284621605
 DFT Exchange         Energy = -151.02108232523432
 One-Electron (alpha) Energy = -3941.47583318404759
 One-Electron (beta)  Energy = -3895.22014620298887
 Total Coulomb        Energy = 2618.15630353394135
    2   -4921.4886757449      9.31e-03  
 Alpha HF Exchange    Energy = -18.92632053017061
 Beta HF Exchange     Energy = -18.75614607422361
 DFT Correlation      Energy =  -5.13161077074683
 DFT Exchange         Energy = -149.98605928933824
 One-Electron (alpha) Energy = -3927.63979476500663
 One-Electron (beta)  Energy = -3883.75266670054270
 Total Coulomb        Energy = 2591.49616372820719
    3   -4921.5191298515      3.53e-03  
 Alpha HF Exchange    Energy = -19.04036459306444
 Beta HF Exchange     Energy = -18.84884846270450
 DFT Correlation      Energy =  -5.16464875102175
 DFT Exchange         Energy = -150.82516659388111
 One-Electron (alpha) Energy = -3937.65411330528786
 One-Electron (beta)  Energy = -3892.02334336730746
 Total Coulomb        Energy = 2610.82045825363593
    4   -4921.5587222693      2.77e-03  
 Alpha HF Exchange    Energy = -19.00269810318450
 Beta HF Exchange     Energy = -18.82268870560242
 DFT Correlation      Energy =  -5.15177518277724
 DFT Exchange         Energy = -150.54804334158615
 One-Electron (alpha) Energy = -3935.29229446979298
 One-Electron (beta)  Energy = -3890.53015485600417
 Total Coulomb        Energy = 2606.53802956949585
    5   -4921.6323205391      7.68e-04  
 Alpha HF Exchange    Energy = -18.99723963561565
 Beta HF Exchange     Energy = -18.81673962156894
 DFT Correlation      Energy =  -5.15121817947653
 DFT Exchange         Energy = -150.50652550871214
 One-Electron (alpha) Energy = -3934.28718110910359
 One-Electron (beta)  Energy = -3889.49520032745613
 Total Coulomb        Energy = 2604.43730627168406
    6   -4921.6394935599      8.76e-05  
 Alpha HF Exchange    Energy = -18.99627946275707
 Beta HF Exchange     Energy = -18.81635970953429
 DFT Correlation      Energy =  -5.15048086144736
 DFT Exchange         Energy = -150.49939227340440
 One-Electron (alpha) Energy = -3934.14021676140783
 One-Electron (beta)  Energy = -3889.41230593273485
 Total Coulomb        Energy = 2604.19806672434879
    7   -4921.6396637266      5.03e-05  
 Alpha HF Exchange    Energy = -18.99677205739894
 Beta HF Exchange     Energy = -18.81696032360709
 DFT Correlation      Energy =  -5.15060417938879
 DFT Exchange         Energy = -150.50338758870498
 One-Electron (alpha) Energy = -3934.18704808315624
 One-Electron (beta)  Energy = -3889.47767008902019
 Total Coulomb        Energy = 2604.31542106268853
    8   -4921.6397167083      1.98e-05  
 Alpha HF Exchange    Energy = -18.99684331107749
 Beta HF Exchange     Energy = -18.81707819596910
 DFT Correlation      Energy =  -5.15058839880126
 DFT Exchange         Energy = -150.50386874256057
 One-Electron (alpha) Energy = -3934.19038293946915
 One-Electron (beta)  Energy = -3889.49234823449933
 Total Coulomb        Energy = 2604.33407890138642
    9   -4921.6397263707      6.29e-06  
 Alpha HF Exchange    Energy = -18.99684094273122
 Beta HF Exchange     Energy = -18.81713036798771
 DFT Correlation      Energy =  -5.15057062790849
 DFT Exchange         Energy = -150.50396041126362
 One-Electron (alpha) Energy = -3934.18583642654266
 One-Electron (beta)  Energy = -3889.49516179962120
 Total Coulomb        Energy = 2604.33246779359160
   10   -4921.6397282321      2.79e-06  
 Alpha HF Exchange    Energy = -18.99683158678806
 Beta HF Exchange     Energy = -18.81712246778400
 DFT Correlation      Energy =  -5.15056223637703
 DFT Exchange         Energy = -150.50386781349891
 One-Electron (alpha) Energy = -3934.18174237429048
 One-Electron (beta)  Energy = -3889.49335182711684
 Total Coulomb        Energy = 2604.32644509224519
   11   -4921.6397286633      1.48e-06  
 Alpha HF Exchange    Energy = -18.99683174681868
 Beta HF Exchange     Energy = -18.81712988803322
 DFT Correlation      Energy =  -5.15056137102700
 DFT Exchange         Energy = -150.50388866146980
 One-Electron (alpha) Energy = -3934.18220959945256
 One-Electron (beta)  Energy = -3889.49493994440945
 Total Coulomb        Energy = 2604.32852763737174
   12   -4921.6397290235      1.02e-06  
 Alpha HF Exchange    Energy = -18.99683309726109
 Beta HF Exchange     Energy = -18.81712964084513
 DFT Correlation      Energy =  -5.15056142191187
 DFT Exchange         Energy = -150.50389314703145
 One-Electron (alpha) Energy = -3934.18217831057245
 One-Electron (beta)  Energy = -3889.49495891098422
 Total Coulomb        Energy = 2604.32852062575148
   13   -4921.6397293525      9.83e-07  Convergence criterion met
 ---------------------------------------
 SCF time:   CPU 58.93s  wall 5.00s 
<S^2> =          2.011095402
 Alpha HF Exchange    Energy = -18.99683309726109
 Beta HF Exchange     Energy = -18.81712964084513
 DFT Correlation      Energy =  -5.15056142191187
 DFT Exchange         Energy = -150.50389314703145
 One-Electron (alpha) Energy = -3934.18217831057245
 One-Electron (beta)  Energy = -3889.49495891098422
 Total Coulomb        Energy = 2604.32852062575148
 Nuclear repulsion Energy = 491.17730455031693
 SCF   energy in the final basis set =    -4921.6397293525
 Total energy in the final basis set =    -4921.6397293525
 
 --------------------------------------------------------------
 
                    Orbital Energies (a.u.)
 --------------------------------------------------------------
 
 Alpha MOs
 -- Occupied --
*******-453.899 -58.101 -58.094 -52.161 -52.157 -52.155 -52.152
-52.151 -52.149 -10.243 -10.209 -10.196  -7.835  -7.828  -5.783
 -5.776  -5.773  -5.770  -5.765  -5.760  -2.116  -2.115  -2.107
 -2.106  -2.106  -2.101  -2.099  -2.098  -2.096  -2.094  -0.817
 -0.702  -0.699  -0.692  -0.586  -0.484  -0.439  -0.431  -0.390
 -0.384  -0.381  -0.361  -0.337  -0.286  -0.243  -0.243  -0.207
 -- Virtual --
 -0.011   0.034   0.041   0.097   0.118   0.125   0.148   0.158
  0.166   0.178   0.208   0.228   0.248   0.258   0.275   0.288
  0.302   0.324   0.407   0.441   0.445   0.495   0.512   0.517
  0.538   0.541   0.541   0.552   0.567   0.579   0.632   0.662
  0.691   0.707   0.744   0.761   0.794   0.813   0.858   0.875
  0.890   0.908   0.930   1.003   1.014   1.056   1.131   1.186
  1.335   1.422   1.426   1.485   1.526   1.637   1.718   1.771
  1.837   1.876   1.911   1.976   2.024   2.038   2.075   2.083
  2.089   2.091   2.107   2.115   2.116   2.269   2.300   2.347
  2.404   2.497   2.557   2.584   2.597   2.642   2.654   2.700
  2.750   2.831   2.865   2.923   3.180   3.278   3.383   3.411
  3.457   3.526   4.197   4.219   4.220   4.241   4.262   4.262
  4.298   4.336   4.375   4.393   4.420   4.474   4.602   5.406
  5.488  89.580  89.833
 
 Beta MOs
 -- Occupied --
*******-453.899 -58.100 -58.094 -52.157 -52.156 -52.154 -52.151
-52.150 -52.148 -10.244 -10.197 -10.196  -7.832  -7.827  -5.775
 -5.775  -5.772  -5.768  -5.764  -5.760  -2.110  -2.110  -2.106
 -2.105  -2.101  -2.100  -2.097  -2.097  -2.095  -2.093  -0.809
 -0.693  -0.675  -0.665  -0.577  -0.479  -0.436  -0.426  -0.387
 -0.380  -0.371  -0.359  -0.319  -0.235  -0.230
 -- Virtual --
 -0.163  -0.084   0.001   0.039   0.051   0.100   0.120   0.133
  0.155   0.159   0.167   0.184   0.213   0.233   0.254   0.261
  0.291   0.298   0.306   0.333   0.415   0.447   0.452   0.505
  0.521   0.544   0.553   0.559   0.583   0.586   0.587   0.605
  0.645   0.665   0.693   0.712   0.751   0.766   0.805   0.818
  0.860   0.877   0.892   0.914   0.932   1.013   1.022   1.061
  1.137   1.191   1.351   1.425   1.443   1.503   1.541   1.642
  1.723   1.771   1.840   1.882   1.929   1.997   2.028   2.040
  2.075   2.084   2.088   2.097   2.108   2.115   2.123   2.274
  2.300   2.349   2.415   2.511   2.568   2.595   2.599   2.644
  2.655   2.703   2.752   2.833   2.865   2.925   3.180   3.280
  3.387   3.412   3.458   3.532   4.212   4.232   4.233   4.254
  4.263   4.265   4.301   4.339   4.380   4.396   4.431   4.478
  4.605   5.421   5.493  89.585  89.835
 --------------------------------------------------------------
 
          Ground-State Mulliken Net Atomic Charges

     Atom                 Charge (a.u.)    Spin (a.u.)
  --------------------------------------------------------
      1 Se                   -0.117758       1.018332
      2 C                    -0.200838       0.934480
      3 C                    -0.153328      -0.111537
      4 C                    -0.308038       0.007780
      5 Se                   -0.105638       0.255197
      6 H                     0.060808      -0.006290
      7 H                     0.093443      -0.025648
      8 H                     0.118794      -0.041082
      9 H                     0.112574      -0.041470
     10 H                     0.138077       0.011210
     11 H                     0.114469      -0.000932
     12 H                     0.129661       0.001110
     13 H                     0.117774      -0.001152
  --------------------------------------------------------
  Sum of atomic charges =    -0.000000
  Sum of spin   charges =     2.000000

 -----------------------------------------------------------------
                    Cartesian Multipole Moments
 -----------------------------------------------------------------
    Charge (ESU x 10^10)
                 0.0000
    Dipole Moment (Debye)
         X      -1.6396      Y      -2.4086      Z       0.3330
       Tot       2.9326
    Quadrupole Moments (Debye-Ang)
        XX     -63.0556     XY      -1.3496     YY     -56.9479
        XZ      -1.0169     YZ       0.3687     ZZ     -57.2205
    Octopole Moments (Debye-Ang^2)
       XXX    -113.9669    XXY     -14.5606    XYY     -36.9974
       YYY       4.4385    XXZ      -7.3808    XYZ      -1.1355
       YYZ      -5.3002    XZZ     -44.5435    YZZ      -4.6154
       ZZZ     -19.5068
    Hexadecapole Moments (Debye-Ang^3)
      XXXX   -1761.7841   XXXY    -376.5732   XXYY    -420.2348
      XYYY    -341.5551   YYYY    -788.0618   XXXZ     -28.5288
      XXYZ       2.0606   XYYZ      -8.2322   YYYZ       4.7019
      XXZZ    -337.0374   XYZZ    -130.0274   YYZZ    -151.4334
      XZZZ     -32.5602   YZZZ       0.9834   ZZZZ    -113.9691
 -----------------------------------------------------------------
 Calculating analytic gradient of the SCF energy
 Gradient of SCF Energy
            1           2           3           4           5           6
    1  -0.0103788   0.0123403  -0.0015181  -0.0004003  -0.0007594   0.0000286
    2  -0.0063408   0.0004142  -0.0000476   0.0011695  -0.0001283   0.0000586
    3   0.0000093  -0.0042996  -0.0003604   0.0000529   0.0000637  -0.0000255
            7           8           9          10          11          12
    1   0.0100740  -0.0097272   0.0001118   0.0003058  -0.0000475  -0.0001385
    2   0.0059700  -0.0010559   0.0000447  -0.0003280   0.0000697   0.0000241
    3  -0.0000798   0.0046976  -0.0001597   0.0001351   0.0000060  -0.0000033
           13
    1   0.0001093
    2   0.0001498
    3  -0.0000364
 Max gradient component =       1.234E-02
 RMS gradient           =       3.852E-03
 Gradient time:  CPU 17.36 s  wall 1.53 s
 Geometry Optimization Parameters
   NAtoms,    NIC,     NZ,  NCons,   NDum,   NFix, NCnnct, MaxDiis
       13      90       0       1       0       0       0       0

 Cartesian Hessian Update
 Hessian Updated using BFGS Update


** CONSTRAINED OPTIMIZATION IN DELOCALIZED INTERNAL COORDINATES **
   Searching for a Minimum

   Optimization Cycle:   2

                       Coordinates (Angstroms)
     ATOM                X               Y               Z
      1  Se        3.4641127185    1.4260805287    0.1353328455
      2  C         0.3577808237   -2.0847028387    0.4977085704
      3  C        -0.7435547200   -1.5179026334   -0.2638848245
      4  C        -2.1345236997   -2.0551049474    0.0539979058
      5  Se       -0.7430068183    0.5721190487    0.0484487371
      6  H        -0.9347914797    0.4349100721    1.5023978657
      7  H         2.2025165718    0.7015587202    0.1279813758
      8  H         1.3657929775   -2.0492302592    0.1434198513
      9  H         0.1989528593   -2.3984286151    1.5252134666
     10  H        -0.5437783228   -1.5222194063   -1.3386091456
     11  H        -2.3565734533   -1.9702878953    1.1223578926
     12  H        -2.9085304332   -1.5189380919   -0.4990068081
     13  H        -2.1863980239   -3.1172596823   -0.2138577325
   Point Group: c1    Number of degrees of freedom:    33


   Energy is  -4921.639729353

              Constraints and their Current Values
                                        Value     Constraint
   Distance(Angs):        1   2             4.701725     4.700000
 Hessian Updated using BFGS Update

   Using Lagrange Multiplier Algorithm


 33 Hessian modes will be used to form the next step
  Hessian Eigenvalues:
    -0.985080    0.020344    0.042361    0.045000    0.045245    0.045716
     0.046034    0.069904    0.073810    0.077064    0.082390    0.084114
     0.086541    0.090892    0.101365    0.116761    0.135218    0.157538
     0.160000    0.160010    0.165972    0.181096    0.181296    0.208399
     0.299245    0.340570    0.342999    0.344526    0.345867    0.352761
     0.364769    0.408897    1.020537

 Minimum Search - Taking P-RFO Step
 Searching for Lamda that Maximizes Along the Constraint modes Only
 Value Taken    Lamda =   0.00003350
 Searching for Lamda that Minimizes Along All other modes
 Value Taken    Lamda =  -0.00057676
 Step Taken.  Stepsize is  0.056122

                             Maximum     Tolerance    Cnvgd?
         Gradient            0.006264       0.000300      NO
         Displacement        0.031619       0.001200      NO
         Energy change      0.000622       0.000001      NO


 New Cartesian Coordinates Obtained by Inverse Iteration

 Displacement from previous Coordinates is:  0.050476
 ----------------------------------------------------------------
             Standard Nuclear Orientation (Angstroms)
    I     Atom           X                Y                Z
 ----------------------------------------------------------------
    1      Se      3.4751968214     1.4188870557     0.1361740646
    2      C       0.3552046766    -2.0774333443     0.4986624980
    3      C      -0.7456226590    -1.5145953454    -0.2635397416
    4      C      -2.1341429048    -2.0585060139     0.0539209952
    5      Se     -0.7447843407     0.5744211819     0.0489600850
    6      H      -0.9366316071     0.4366793882     1.5028206743
    7      H       2.1967745526     0.6913321935     0.1285492318
    8      H       1.3693693442    -2.0394308897     0.1389569183
    9      H       0.1975440706    -2.3918147149     1.5263290756
   10      H      -0.5462156528    -1.5178244831    -1.3383976841
   11      H      -2.3566189402    -1.9750947292     1.1222945745
   12      H      -2.9100508260    -1.5251565799    -0.4990039778
   13      H      -2.1820235349    -3.1208697191    -0.2142267138
 ----------------------------------------------------------------
 Nuclear Repulsion Energy =   490.7000816597 hartrees
 There are       48 alpha and       46 beta electrons

                       Distance Matrix (Angstroms)
             Se(  1)   C (  2)   C (  3)   C (  4)   Se(  5)   H (  6)
   C (  2)  4.700001
   C (  3)  5.155619  1.452432
   C (  4)  6.600282  2.528835  1.524667
   Se(  5)  4.304529  2.905949  2.112261  2.977020
   H (  6)  4.721937  2.999656  2.638937  3.123987  1.472918
   H (  7)  1.470972  3.345807  3.698317  5.130694  2.944957  3.430992
   H (  8)  4.049010  1.076737  2.215998  3.504596  3.363030  3.648135
   H (  9)  5.215073  1.086182  2.205155  2.777741  3.445164  3.047505
   H ( 10)  5.193303  2.121441  1.093203  2.180000  2.518270  3.470595
   H ( 11)  6.819210  2.784489  2.174375  1.094475  3.201576  2.824503
   H ( 12)  7.059903  3.458647  2.177224  1.091889  3.065432  3.427898
   H ( 13)  7.261977  2.834519  2.155411  1.096728  3.973676  4.141909
             H (  7)   H (  8)   H (  9)   H ( 10)   H ( 11)   H ( 12)
   H (  8)  2.853380
   H (  9)  3.931476  1.849905
   H ( 10)  3.815272  2.474695  3.086049
   H ( 11)  5.369428  3.854099  2.619284  3.088958
   H ( 12)  5.602349  4.357168  3.809228  2.508456  1.771254
   H ( 13)  5.815862  3.729161  3.037005  2.551349  1.769060  1.776914

 
 Applying Cartesian multipole field
    Component          Value
    ---------          -----
     (2,0,0)        1.00000E-11
     (0,2,0)        2.00000E-11
     (0,0,2)       -3.00000E-10
 Nucleus-field energy     =     0.0000000184 hartrees
 Requested basis set is 6-31G(d,p)
 There are 52 shells and 155 basis functions
 A cutoff of  1.0D-14 yielded   1179 shell pairs
 There are     10177 function pairs
 Smallest overlap matrix eigenvalue = 6.74E-04
 Guess from superposition of atomic densities
 Warning:  Energy on first SCF cycle will be non-variational
 SAD guess density has 93.936381 electrons

 -----------------------------------------------------------------------
  General SCF calculation program by
  Eric Jon Sundstrom, Paul Horn, Yuezhi Mao, Dmitri Zuev, Alec White,
  David Stuck, Shaama M.S., Shane Yost, Joonho Lee, David Small,
  Daniel Levine, Susi Lehtola, Hugh Burton, Evgeny Epifanovsky
 -----------------------------------------------------------------------
 Exchange:     0.2000 Hartree-Fock + 0.0800 Slater + 0.7200 B88
 Correlation:  0.1900 VWN1RPA + 0.8100 LYP
 Using SG-1 standard quadrature grid
 using 12 threads for integral computing
 -------------------------------------------------------
 OpenMP Integral computing Module                
 Release: version 1.0, May 2013, Q-Chem Inc. Pittsburgh 
 -------------------------------------------------------
 -------------------------------------------------------
 OpenMP BLAS3 based DFT computing Module                
 Release: version 1.0, May 2013, Q-Chem Inc. Pittsburgh 
 -------------------------------------------------------
 A unrestricted SCF calculation will be
 performed using DIIS
 SCF converges when DIIS error is below 1.0e-06
 Alpha HF Exchange    Energy = -18.84358085953346
 Beta HF Exchange     Energy = -18.84358085953346
 DFT Correlation      Energy =  -5.12661039002230
 DFT Exchange         Energy = -149.85134923155618
 One-Electron (alpha) Energy = -3908.34112116951655
 One-Electron (beta)  Energy = -3908.34112116951655
 Total Coulomb        Energy = 2591.23144596350767
 ---------------------------------------
  Cycle       Energy         DIIS error
 ---------------------------------------
    1   -4927.4158360380      1.50e-01  
 Alpha HF Exchange    Energy = -19.06377255639474
 Beta HF Exchange     Energy = -18.86541039250029
 DFT Correlation      Energy =  -5.17498722528950
 DFT Exchange         Energy = -151.01673674439041
 One-Electron (alpha) Energy = -3940.99816337441462
 One-Electron (beta)  Energy = -3894.81218669221425
 Total Coulomb        Energy = 2617.73807565127981
    2   -4921.4930996558      9.31e-03  
 Alpha HF Exchange    Energy = -18.92579118092436
 Beta HF Exchange     Energy = -18.75509591012944
 DFT Correlation      Energy =  -5.13132921482894
 DFT Exchange         Energy = -149.98057843587100
 One-Electron (alpha) Energy = -3927.11155732007046
 One-Electron (beta)  Energy = -3883.18351478869317
 Total Coulomb        Energy = 2590.86368265593046
    3   -4921.5241025164      3.49e-03  
 Alpha HF Exchange    Energy = -19.04021719758084
 Beta HF Exchange     Energy = -18.85122468131739
 DFT Correlation      Energy =  -5.16412365964881
 DFT Exchange         Energy = -150.82753006741797
 One-Electron (alpha) Energy = -3937.30842918820326
 One-Electron (beta)  Energy = -3891.81561480588198
 Total Coulomb        Energy = 2610.73845791796839
    4   -4921.5686000039      2.68e-03  
 Alpha HF Exchange    Energy = -19.00122891521879
 Beta HF Exchange     Energy = -18.82093472565037
 DFT Correlation      Energy =  -5.15127262231986
 DFT Exchange         Energy = -150.53609017274036
 One-Electron (alpha) Energy = -3934.67231264942666
 One-Electron (beta)  Energy = -3889.89491462355272
 Total Coulomb        Energy = 2605.74233090674716
    5   -4921.6343411240      6.79e-04  
 Alpha HF Exchange    Energy = -18.99662424010484
 Beta HF Exchange     Energy = -18.81617034997616
 DFT Correlation      Energy =  -5.15095690456846
 DFT Exchange         Energy = -150.50237054853525
 One-Electron (alpha) Energy = -3933.80703280785747
 One-Electron (beta)  Energy = -3889.01858840549312
 Total Coulomb        Energy = 2603.95172645133698
    6   -4921.6399351270      8.71e-05  
 Alpha HF Exchange    Energy = -18.99571601280163
 Beta HF Exchange     Energy = -18.81583810073945
 DFT Correlation      Energy =  -5.15028209364818
 DFT Exchange         Energy = -150.49581842349667
 One-Electron (alpha) Energy = -3933.67572658067820
 One-Electron (beta)  Energy = -3888.95254855538815
 Total Coulomb        Energy = 2603.74575748647840
    7   -4921.6400906021      3.48e-05  
 Alpha HF Exchange    Energy = -18.99611974367000
 Beta HF Exchange     Energy = -18.81631330878542
 DFT Correlation      Energy =  -5.15033428191588
 DFT Exchange         Energy = -150.49889648145563
 One-Electron (alpha) Energy = -3933.71446298329056
 One-Electron (beta)  Energy = -3889.00766947044485
 Total Coulomb        Energy = 2603.84359206917634
    8   -4921.6401225222      1.75e-05  
 Alpha HF Exchange    Energy = -18.99616121595504
 Beta HF Exchange     Energy = -18.81639393266617
 DFT Correlation      Energy =  -5.15032312063596
 DFT Exchange         Energy = -150.49917953484396
 One-Electron (alpha) Energy = -3933.71257888510399
 One-Electron (beta)  Energy = -3889.01502283947184
 Total Coulomb        Energy = 2603.84944794200055
    9   -4921.6401299085      4.30e-06  
 Alpha HF Exchange    Energy = -18.99616026849131
 Beta HF Exchange     Energy = -18.81643021087397
 DFT Correlation      Energy =  -5.15030548837506
 DFT Exchange         Energy = -150.49922969391218
 One-Electron (alpha) Energy = -3933.70785410462440
 One-Electron (beta)  Energy = -3889.01660084509740
 Total Coulomb        Energy = 2603.84636778161212
   10   -4921.6401311516      2.04e-06  
 Alpha HF Exchange    Energy = -18.99615615178417
 Beta HF Exchange     Energy = -18.81642630686842
 DFT Correlation      Energy =  -5.15030055078851
 DFT Exchange         Energy = -150.49918353824648
 One-Electron (alpha) Energy = -3933.70595256559091
 One-Electron (beta)  Energy = -3889.01616046139543
 Total Coulomb        Energy = 2603.84396639411125
   11   -4921.6401315024      1.26e-06  
 Alpha HF Exchange    Energy = -18.99615718275556
 Beta HF Exchange     Energy = -18.81643064991597
 DFT Correlation      Energy =  -5.15030071018239
 DFT Exchange         Energy = -150.49920237327331
 One-Electron (alpha) Energy = -3933.70661185058134
 One-Electron (beta)  Energy = -3889.01723028928245
 Total Coulomb        Energy = 2603.84571957501248
   12   -4921.6401318028      1.02e-06  
 Alpha HF Exchange    Energy = -18.99615744105193
 Beta HF Exchange     Energy = -18.81642923448370
 DFT Correlation      Energy =  -5.15030060078100
 DFT Exchange         Energy = -150.49919843173512
 One-Electron (alpha) Energy = -3933.70638476457634
 One-Electron (beta)  Energy = -3889.01702229728016
 Total Coulomb        Energy = 2603.84527895882729
   13   -4921.6401321329      9.81e-07  Convergence criterion met
 ---------------------------------------
 SCF time:   CPU 59.01s  wall 5.00s 
<S^2> =          2.011129717
 Alpha HF Exchange    Energy = -18.99615744105193
 Beta HF Exchange     Energy = -18.81642923448370
 DFT Correlation      Energy =  -5.15030060078100
 DFT Exchange         Energy = -150.49919843173512
 One-Electron (alpha) Energy = -3933.70638476457634
 One-Electron (beta)  Energy = -3889.01702229728016
 Total Coulomb        Energy = 2603.84527895882729
 Nuclear repulsion Energy = 490.70008167814893
 SCF   energy in the final basis set =    -4921.6401321329
 Total energy in the final basis set =    -4921.6401321329
 
 --------------------------------------------------------------
 
                    Orbital Energies (a.u.)
 --------------------------------------------------------------
 
 Alpha MOs
 -- Occupied --
*******-453.899 -58.101 -58.095 -52.161 -52.158 -52.155 -52.152
-52.151 -52.149 -10.243 -10.210 -10.196  -7.835  -7.828  -5.784
 -5.776  -5.773  -5.770  -5.765  -5.760  -2.116  -2.115  -2.107
 -2.106  -2.106  -2.101  -2.100  -2.099  -2.096  -2.095  -0.817
 -0.702  -0.697  -0.692  -0.585  -0.483  -0.439  -0.431  -0.390
 -0.384  -0.380  -0.361  -0.338  -0.286  -0.243  -0.243  -0.207
 -- Virtual --
 -0.011   0.032   0.040   0.097   0.118   0.125   0.149   0.158
  0.165   0.178   0.208   0.227   0.249   0.258   0.275   0.287
  0.302   0.324   0.406   0.441   0.445   0.495   0.513   0.517
  0.538   0.541   0.541   0.552   0.567   0.579   0.632   0.661
  0.691   0.707   0.743   0.761   0.794   0.812   0.857   0.874
  0.890   0.905   0.930   1.004   1.014   1.051   1.130   1.185
  1.336   1.422   1.427   1.486   1.525   1.637   1.718   1.770
  1.836   1.878   1.908   1.975   2.022   2.037   2.074   2.080
  2.087   2.089   2.106   2.115   2.116   2.269   2.299   2.347
  2.402   2.493   2.556   2.584   2.597   2.638   2.645   2.700
  2.748   2.827   2.864   2.920   3.179   3.272   3.381   3.409
  3.457   3.519   4.197   4.219   4.220   4.241   4.262   4.262
  4.298   4.336   4.378   4.393   4.420   4.474   4.602   5.405
  5.488  89.575  89.833
 
 Beta MOs
 -- Occupied --
*******-453.899 -58.100 -58.094 -52.157 -52.157 -52.154 -52.152
-52.151 -52.148 -10.244 -10.198 -10.196  -7.832  -7.827  -5.775
 -5.775  -5.772  -5.768  -5.764  -5.760  -2.110  -2.110  -2.106
 -2.105  -2.101  -2.100  -2.098  -2.098  -2.095  -2.094  -0.809
 -0.693  -0.674  -0.663  -0.577  -0.478  -0.437  -0.426  -0.387
 -0.380  -0.371  -0.359  -0.319  -0.235  -0.230
 -- Virtual --
 -0.163  -0.084   0.001   0.037   0.049   0.099   0.120   0.133
  0.155   0.160   0.167   0.184   0.213   0.233   0.254   0.261
  0.290   0.298   0.306   0.333   0.414   0.447   0.452   0.505
  0.522   0.545   0.554   0.558   0.583   0.586   0.587   0.606
  0.645   0.665   0.693   0.712   0.750   0.765   0.805   0.817
  0.859   0.876   0.892   0.912   0.932   1.013   1.022   1.056
  1.136   1.190   1.352   1.426   1.443   1.503   1.541   1.643
  1.723   1.771   1.840   1.884   1.927   1.996   2.027   2.039
  2.075   2.081   2.084   2.096   2.107   2.115   2.124   2.275
  2.299   2.350   2.413   2.507   2.567   2.595   2.598   2.640
  2.646   2.703   2.750   2.829   2.864   2.922   3.180   3.275
  3.385   3.410   3.458   3.524   4.212   4.232   4.233   4.254
  4.263   4.264   4.301   4.339   4.383   4.396   4.430   4.478
  4.605   5.419   5.492  89.580  89.834
 --------------------------------------------------------------
 
          Ground-State Mulliken Net Atomic Charges

     Atom                 Charge (a.u.)    Spin (a.u.)
  --------------------------------------------------------
      1 Se                   -0.117104       1.019247
      2 C                    -0.201278       0.933926
      3 C                    -0.152886      -0.111406
      4 C                    -0.308219       0.007776
      5 Se                   -0.104578       0.255494
      6 H                     0.060848      -0.006282
      7 H                     0.091994      -0.026258
      8 H                     0.118342      -0.041335
      9 H                     0.112813      -0.041499
     10 H                     0.138164       0.011274
     11 H                     0.114440      -0.000932
     12 H                     0.129451       0.001168
     13 H                     0.118013      -0.001173
  --------------------------------------------------------
  Sum of atomic charges =     0.000000
  Sum of spin   charges =     2.000000

 -----------------------------------------------------------------
                    Cartesian Multipole Moments
 -----------------------------------------------------------------
    Charge (ESU x 10^10)
                 0.0000
    Dipole Moment (Debye)
         X      -1.6466      Y      -2.3992      Z       0.3322
       Tot       2.9287
    Quadrupole Moments (Debye-Ang)
        XX     -63.0703     XY      -1.2863     YY     -56.9384
        XZ      -1.0231     YZ       0.3696     ZZ     -57.2340
    Octopole Moments (Debye-Ang^2)
       XXX    -114.3651    XXY     -14.3582    XYY     -37.1196
       YYY       4.6365    XXZ      -7.4258    XYZ      -1.1147
       YYZ      -5.3169    XZZ     -44.7763    YZZ      -4.5477
       ZZZ     -19.5963
    Hexadecapole Moments (Debye-Ang^3)
      XXXX   -1770.0156   XXXY    -375.5137   XXYY    -420.8192
      XYYY    -340.6806   YYYY    -785.0305   XXXZ     -28.7524
      XXYZ       2.1041   XYYZ      -8.3059   YYYZ       4.6628
      XXZZ    -338.7840   XYZZ    -129.8643   YYZZ    -150.9174
      XZZZ     -32.8077   YZZZ       0.8881   ZZZZ    -114.0417
 -----------------------------------------------------------------
 Calculating analytic gradient of the SCF energy
 Gradient of SCF Energy
            1           2           3           4           5           6
    1  -0.0049773   0.0062086  -0.0008645  -0.0002208  -0.0005075   0.0000210
    2  -0.0032880   0.0007144   0.0000909   0.0007664  -0.0002609   0.0000201
    3   0.0000638  -0.0025073   0.0000349   0.0000395   0.0000176  -0.0000362
            7           8           9          10          11          12
    1   0.0047362  -0.0044980  -0.0000756   0.0002172  -0.0000304  -0.0000037
    2   0.0028746  -0.0007544  -0.0000222  -0.0002342   0.0000396   0.0000193
    3  -0.0001385   0.0024704  -0.0000038   0.0000631   0.0000001  -0.0000103
           13
    1  -0.0000050
    2   0.0000342
    3   0.0000067
 Max gradient component =       6.209E-03
 RMS gradient           =       1.897E-03
 Gradient time:  CPU 17.34 s  wall 1.53 s
 Geometry Optimization Parameters
   NAtoms,    NIC,     NZ,  NCons,   NDum,   NFix, NCnnct, MaxDiis
       13      90       0       1       0       0       0       0

 Cartesian Hessian Update
 Hessian Updated using BFGS Update


** CONSTRAINED OPTIMIZATION IN DELOCALIZED INTERNAL COORDINATES **
   Searching for a Minimum

   Optimization Cycle:   3

                       Coordinates (Angstroms)
     ATOM                X               Y               Z
      1  Se        3.4751968214    1.4188870557    0.1361740646
      2  C         0.3552046766   -2.0774333443    0.4986624980
      3  C        -0.7456226590   -1.5145953454   -0.2635397416
      4  C        -2.1341429048   -2.0585060139    0.0539209952
      5  Se       -0.7447843407    0.5744211819    0.0489600850
      6  H        -0.9366316071    0.4366793882    1.5028206743
      7  H         2.1967745526    0.6913321935    0.1285492318
      8  H         1.3693693442   -2.0394308897    0.1389569183
      9  H         0.1975440706   -2.3918147149    1.5263290756
     10  H        -0.5462156528   -1.5178244831   -1.3383976841
     11  H        -2.3566189402   -1.9750947292    1.1222945745
     12  H        -2.9100508260   -1.5251565799   -0.4990039778
     13  H        -2.1820235349   -3.1208697191   -0.2142267138
   Point Group: c1    Number of degrees of freedom:    33


   Energy is  -4921.640132133

              Constraints and their Current Values
                                        Value     Constraint
   Distance(Angs):        1   2             4.700001     4.700000
 Hessian Updated using BFGS Update

   Using Lagrange Multiplier Algorithm


 34 Hessian modes will be used to form the next step
  Hessian Eigenvalues:
    -0.977429    0.020333    0.039614    0.044999    0.045230    0.045456
     0.046021    0.067048    0.070132    0.076989    0.082388    0.084059
     0.084114    0.090343    0.099277    0.116567    0.132117    0.157132
     0.159972    0.160000    0.160002    0.166067    0.169206    0.181097
     0.187479    0.299232    0.332319    0.340675    0.343000    0.344536
     0.345945    0.352954    0.365717    1.028852

 Minimum Search - Taking P-RFO Step
 Searching for Lamda that Maximizes Along the Constraint modes Only
 Value Taken    Lamda =   0.00000010
 Searching for Lamda that Minimizes Along All other modes
 Value Taken    Lamda =  -0.00025154
 Step Taken.  Stepsize is  0.055015

                             Maximum     Tolerance    Cnvgd?
         Gradient            0.002847       0.000300      NO
         Displacement        0.030434       0.001200      NO
         Energy change     -0.000403       0.000001      NO


 New Cartesian Coordinates Obtained by Inverse Iteration

 Displacement from previous Coordinates is:  0.046995
 ----------------------------------------------------------------
             Standard Nuclear Orientation (Angstroms)
    I     Atom           X                Y                Z
 ----------------------------------------------------------------
    1      Se      3.4830130300     1.4135154108     0.1361743191
    2      C       0.3516135594    -2.0723538386     0.5009431411
    3      C      -0.7475266086    -1.5120446839    -0.2627530751
    4      C      -2.1341203366    -2.0622515973     0.0532321591
    5      Se     -0.7425617067     0.5780808248     0.0496856923
    6      H      -0.9349618229     0.4417328038     1.5035555082
    7      H       2.1904257128     0.6817310368     0.1296906389
    8      H       1.3704212682    -2.0300655307     0.1337891400
    9      H       0.1972186127    -2.3873214974     1.5288458944
   10      H      -0.5484884804    -1.5138077020    -1.3376881497
   11      H      -2.3575677884    -1.9805511578     1.1215411440
   12      H      -2.9120412556    -1.5315785685    -0.4996142091
   13      H      -2.1774251839    -3.1244915000    -0.2159022031
 ----------------------------------------------------------------
 Nuclear Repulsion Energy =   490.3523447632 hartrees
 There are       48 alpha and       46 beta electrons

                       Distance Matrix (Angstroms)
             Se(  1)   C (  2)   C (  3)   C (  4)   Se(  5)   H (  6)
   C (  2)  4.700000
   C (  3)  5.159022  1.450961
   C (  4)  6.606060  2.525751  1.524866
   Se(  5)  4.308238  2.902698  2.113355  2.984594
   H (  6)  4.725737  2.996855  2.640497  3.132309  1.472870
   H (  7)  1.485373  3.332273  3.687578  5.122205  2.935909  3.422448
   H (  8)  4.039963  1.083771  2.216144  3.505615  3.357707  3.647031
   H (  9)  5.213669  1.086106  2.206463  2.778173  3.444519  3.047297
   H ( 10)  5.195623  2.121962  1.093208  2.179376  2.517631  3.470759
   H ( 11)  6.826640  2.780869  2.174397  1.094481  3.209940  2.834996
   H ( 12)  7.069266  3.456153  2.177523  1.091977  3.075554  3.437367
   H ( 13)  7.263472  2.831413  2.155641  1.096660  3.979750  4.149483
             H (  7)   H (  8)   H (  9)   H ( 10)   H ( 11)   H ( 12)
   H (  8)  2.833066
   H (  9)  3.917856  1.857477
   H ( 10)  3.804634  2.472647  3.088061
   H ( 11)  5.362440  3.856943  2.618834  3.088434
   H ( 12)  5.597315  4.357657  3.809783  2.507801  1.771204
   H ( 13)  5.803868  3.729245  3.037515  2.550714  1.769126  1.776943

 
 Applying Cartesian multipole field
    Component          Value
    ---------          -----
     (2,0,0)        1.00000E-11
     (0,2,0)        2.00000E-11
     (0,0,2)       -3.00000E-10
 Nucleus-field energy     =     0.0000000185 hartrees
 Requested basis set is 6-31G(d,p)
 There are 52 shells and 155 basis functions
 A cutoff of  1.0D-14 yielded   1179 shell pairs
 There are     10177 function pairs
 Smallest overlap matrix eigenvalue = 6.74E-04
 Guess from superposition of atomic densities
 Warning:  Energy on first SCF cycle will be non-variational
 SAD guess density has 93.936381 electrons

 -----------------------------------------------------------------------
  General SCF calculation program by
  Eric Jon Sundstrom, Paul Horn, Yuezhi Mao, Dmitri Zuev, Alec White,
  David Stuck, Shaama M.S., Shane Yost, Joonho Lee, David Small,
  Daniel Levine, Susi Lehtola, Hugh Burton, Evgeny Epifanovsky
 -----------------------------------------------------------------------
 Exchange:     0.2000 Hartree-Fock + 0.0800 Slater + 0.7200 B88
 Correlation:  0.1900 VWN1RPA + 0.8100 LYP
 Using SG-1 standard quadrature grid
 using 12 threads for integral computing
 -------------------------------------------------------
 OpenMP Integral computing Module                
 Release: version 1.0, May 2013, Q-Chem Inc. Pittsburgh 
 -------------------------------------------------------
 -------------------------------------------------------
 OpenMP BLAS3 based DFT computing Module                
 Release: version 1.0, May 2013, Q-Chem Inc. Pittsburgh 
 -------------------------------------------------------
 A unrestricted SCF calculation will be
 performed using DIIS
 SCF converges when DIIS error is below 1.0e-06
 Alpha HF Exchange    Energy = -18.84263938463678
 Beta HF Exchange     Energy = -18.84263938463678
 DFT Correlation      Energy =  -5.12639618087713
 DFT Exchange         Energy = -149.84907148902568
 One-Electron (alpha) Energy = -3908.00352211548943
 One-Electron (beta)  Energy = -3908.00352211548943
 Total Coulomb        Energy = 2590.90890292003587
 ---------------------------------------
  Cycle       Energy         DIIS error
 ---------------------------------------
    1   -4927.4065429685      1.50e-01  
 Alpha HF Exchange    Energy = -19.06304224039160
 Beta HF Exchange     Energy = -18.86543557281838
 DFT Correlation      Energy =  -5.17465843329268
 DFT Exchange         Energy = -151.01266367925427
 One-Electron (alpha) Energy = -3940.65916249968313
 One-Electron (beta)  Energy = -3894.51658797244818
 Total Coulomb        Energy = 2617.44305255817835
    2   -4921.4961530581      9.30e-03  
 Alpha HF Exchange    Energy = -18.92524113220029
 Beta HF Exchange     Energy = -18.75410677247170
 DFT Correlation      Energy =  -5.13105834294801
 DFT Exchange         Energy = -149.97539057964406
 One-Electron (alpha) Energy = -3926.72631294865187
 One-Electron (beta)  Energy = -3882.75355194257327
 Total Coulomb        Energy = 2590.38602146913627
    3   -4921.5272954677      3.47e-03  
 Alpha HF Exchange    Energy = -19.03995337932140
 Beta HF Exchange     Energy = -18.85233363370628
 DFT Correlation      Energy =  -5.16376226879121
 DFT Exchange         Energy = -150.82802911531235
 One-Electron (alpha) Energy = -3937.07030637040043
 One-Electron (beta)  Energy = -3891.64101768044429
 Total Coulomb        Energy = 2610.67016220516734
    4   -4921.5728954612      2.64e-03  
 Alpha HF Exchange    Energy = -19.00013973529088
 Beta HF Exchange     Energy = -18.81973175335700
 DFT Correlation      Energy =  -5.15089326467875
 DFT Exchange         Energy = -150.52782468488940
 One-Electron (alpha) Energy = -3934.24984895306216
 One-Electron (beta)  Energy = -3889.45787016559916
 Total Coulomb        Energy = 2605.21879070921887
    5   -4921.6351730660      6.34e-04  
 Alpha HF Exchange    Energy = -18.99600277434250
 Beta HF Exchange     Energy = -18.81559016731645
 DFT Correlation      Energy =  -5.15068984279992
 DFT Exchange         Energy = -150.49825262161340
 One-Electron (alpha) Energy = -3933.46489659009558
 One-Electron (beta)  Energy = -3888.66915127296761
 Total Coulomb        Energy = 2603.60215119469876
    6   -4921.6400872928      8.72e-05  
 Alpha HF Exchange    Energy = -18.99513250416586
 Beta HF Exchange     Energy = -18.81526439257932
 DFT Correlation      Energy =  -5.15005323401338
 DFT Exchange         Energy = -150.49201607298221
 One-Electron (alpha) Energy = -3933.34328547602217
 One-Electron (beta)  Energy = -3888.61041294797587
 Total Coulomb        Energy = 2603.41358607204847
    7   -4921.6402337741      2.93e-05  
 Alpha HF Exchange    Energy = -18.99547606046881
 Beta HF Exchange     Energy = -18.81564642332716
 DFT Correlation      Energy =  -5.15007040921005
 DFT Exchange         Energy = -150.49448316979272
 One-Electron (alpha) Energy = -3933.37386292233077
 One-Electron (beta)  Energy = -3888.65551153188972
 Total Coulomb        Energy = 2603.49244699878636
    8   -4921.6402587366      1.63e-05  
 Alpha HF Exchange    Energy = -18.99550980287880
 Beta HF Exchange     Energy = -18.81572211457836
 DFT Correlation      Energy =  -5.15006326674048
 DFT Exchange         Energy = -150.49474758720186
 One-Electron (alpha) Energy = -3933.37176617033901
 One-Electron (beta)  Energy = -3888.66190227829293
 Total Coulomb        Energy = 2603.49710135999658
    9   -4921.6402650784      3.63e-06  
 Alpha HF Exchange    Energy = -18.99551412002926
 Beta HF Exchange     Energy = -18.81575191205382
 DFT Correlation      Energy =  -5.15004616745569
 DFT Exchange         Energy = -150.49479807378083
 One-Electron (alpha) Energy = -3933.36701609262172
 One-Electron (beta)  Energy = -3888.66291687172361
 Total Coulomb        Energy = 2603.49343227348800
   10   -4921.6402661826      1.58e-06  
 Alpha HF Exchange    Energy = -18.99551171189166
 Beta HF Exchange     Energy = -18.81575169191792
 DFT Correlation      Energy =  -5.15004293970302
 DFT Exchange         Energy = -150.49477784515275
 One-Electron (alpha) Energy = -3933.36648237701183
 One-Electron (beta)  Energy = -3888.66343465208092
 Total Coulomb        Energy = 2603.49338990710157
   11   -4921.6402665290      1.08e-06  
 Alpha HF Exchange    Energy = -18.99551240017759
 Beta HF Exchange     Energy = -18.81575298679618
 DFT Correlation      Energy =  -5.15004304853473
 DFT Exchange         Energy = -150.49478527672713
 One-Electron (alpha) Energy = -3933.36677298999712
 One-Electron (beta)  Energy = -3888.66389193527311
 Total Coulomb        Energy = 2603.49414698511646
   12   -4921.6402668708      1.02e-06  
 Alpha HF Exchange    Energy = -18.99551224970342
 Beta HF Exchange     Energy = -18.81575146686063
 DFT Correlation      Energy =  -5.15004294456673
 DFT Exchange         Energy = -150.49477952784554
 One-Electron (alpha) Energy = -3933.36650107708738
 One-Electron (beta)  Energy = -3888.66361486073811
 Total Coulomb        Energy = 2603.49359020424572
   13   -4921.6402671409      9.92e-07  Convergence criterion met
 ---------------------------------------
 SCF time:   CPU 58.75s  wall 5.00s 
<S^2> =          2.011224795
 Alpha HF Exchange    Energy = -18.99551224970342
 Beta HF Exchange     Energy = -18.81575146686063
 DFT Correlation      Energy =  -5.15004294456673
 DFT Exchange         Energy = -150.49477952784554
 One-Electron (alpha) Energy = -3933.36650107708738
 One-Electron (beta)  Energy = -3888.66361486073811
 Total Coulomb        Energy = 2603.49359020424572
 Nuclear repulsion Energy = 490.35234478161681
 SCF   energy in the final basis set =    -4921.6402671409
 Total energy in the final basis set =    -4921.6402671409
 
 --------------------------------------------------------------
 
                    Orbital Energies (a.u.)
 --------------------------------------------------------------
 
 Alpha MOs
 -- Occupied --
*******-453.900 -58.102 -58.095 -52.161 -52.158 -52.155 -52.152
-52.152 -52.149 -10.243 -10.210 -10.196  -7.835  -7.828  -5.784
 -5.776  -5.773  -5.770  -5.765  -5.761  -2.116  -2.115  -2.107
 -2.106  -2.106  -2.101  -2.100  -2.099  -2.096  -2.095  -0.817
 -0.702  -0.695  -0.691  -0.585  -0.482  -0.439  -0.431  -0.390
 -0.384  -0.379  -0.361  -0.338  -0.286  -0.244  -0.243  -0.207
 -- Virtual --
 -0.011   0.029   0.039   0.096   0.118   0.124   0.149   0.158
  0.165   0.178   0.208   0.227   0.249   0.258   0.275   0.287
  0.302   0.323   0.405   0.441   0.445   0.495   0.513   0.518
  0.539   0.541   0.541   0.552   0.568   0.579   0.633   0.661
  0.690   0.707   0.743   0.760   0.793   0.810   0.857   0.874
  0.890   0.903   0.930   1.005   1.013   1.048   1.129   1.185
  1.336   1.423   1.427   1.485   1.525   1.638   1.718   1.769
  1.836   1.880   1.906   1.974   2.020   2.037   2.074   2.079
  2.084   2.088   2.106   2.115   2.117   2.269   2.298   2.347
  2.401   2.488   2.555   2.584   2.597   2.629   2.643   2.699
  2.745   2.824   2.864   2.917   3.179   3.268   3.379   3.407
  3.457   3.513   4.198   4.219   4.220   4.240   4.261   4.262
  4.298   4.336   4.381   4.393   4.419   4.474   4.601   5.404
  5.487  89.572  89.832
 
 Beta MOs
 -- Occupied --
*******-453.899 -58.100 -58.094 -52.157 -52.157 -52.154 -52.152
-52.151 -52.148 -10.244 -10.198 -10.196  -7.832  -7.827  -5.775
 -5.775  -5.772  -5.768  -5.764  -5.760  -2.110  -2.110  -2.106
 -2.105  -2.101  -2.100  -2.098  -2.098  -2.095  -2.094  -0.810
 -0.694  -0.674  -0.661  -0.577  -0.478  -0.437  -0.426  -0.387
 -0.379  -0.370  -0.358  -0.319  -0.235  -0.230
 -- Virtual --
 -0.163  -0.084   0.001   0.035   0.047   0.099   0.120   0.132
  0.156   0.160   0.167   0.183   0.213   0.233   0.255   0.261
  0.290   0.298   0.306   0.333   0.413   0.447   0.452   0.505
  0.522   0.545   0.554   0.559   0.583   0.585   0.587   0.606
  0.645   0.665   0.692   0.712   0.750   0.765   0.804   0.815
  0.859   0.876   0.892   0.909   0.931   1.013   1.023   1.052
  1.135   1.190   1.352   1.426   1.443   1.503   1.540   1.643
  1.723   1.769   1.840   1.885   1.925   1.994   2.026   2.038
  2.074   2.079   2.081   2.096   2.106   2.115   2.124   2.275
  2.299   2.350   2.412   2.503   2.567   2.595   2.598   2.630
  2.644   2.702   2.747   2.825   2.864   2.919   3.179   3.270
  3.383   3.408   3.457   3.519   4.213   4.232   4.233   4.254
  4.263   4.264   4.301   4.339   4.387   4.396   4.430   4.478
  4.605   5.418   5.492  89.577  89.834
 --------------------------------------------------------------
 
          Ground-State Mulliken Net Atomic Charges

     Atom                 Charge (a.u.)    Spin (a.u.)
  --------------------------------------------------------
      1 Se                   -0.116761       1.019965
      2 C                    -0.201493       0.932636
      3 C                    -0.152325      -0.111585
      4 C                    -0.308479       0.007747
      5 Se                   -0.103997       0.256945
      6 H                     0.060966      -0.006304
      7 H                     0.090660      -0.026820
      8 H                     0.117802      -0.041527
      9 H                     0.113285      -0.041468
     10 H                     0.138343       0.011320
     11 H                     0.114460      -0.000935
     12 H                     0.129141       0.001235
     13 H                     0.118399      -0.001210
  --------------------------------------------------------
  Sum of atomic charges =     0.000000
  Sum of spin   charges =     2.000000

 -----------------------------------------------------------------
                    Cartesian Multipole Moments
 -----------------------------------------------------------------
    Charge (ESU x 10^10)
                 0.0000
    Dipole Moment (Debye)
         X      -1.6599      Y      -2.3977      Z       0.3341
       Tot       2.9353
    Quadrupole Moments (Debye-Ang)
        XX     -63.1011     XY      -1.2339     YY     -56.9271
        XZ      -1.0210     YZ       0.3596     ZZ     -57.2386
    Octopole Moments (Debye-Ang^2)
       XXX    -114.8716    XXY     -14.2465    XYY     -37.2923
       YYY       4.6484    XXZ      -7.4468    XYZ      -1.1353
       YYZ      -5.3445    XZZ     -44.9965    YZZ      -4.5474
       ZZZ     -19.6421
    Hexadecapole Moments (Debye-Ang^3)
      XXXX   -1775.3088   XXXY    -374.8313   XXYY    -421.2616
      XYYY    -340.0702   YYYY    -783.1723   XXXZ     -28.7130
      XXYZ       2.0633   XYYZ      -8.4196   YYYZ       4.5839
      XXZZ    -339.9609   XYZZ    -129.8013   YYZZ    -150.5740
      XZZZ     -32.8731   YZZZ       0.8282   ZZZZ    -114.0958
 -----------------------------------------------------------------
 Calculating analytic gradient of the SCF energy
 Gradient of SCF Energy
            1           2           3           4           5           6
    1  -0.0005101   0.0005623  -0.0000255   0.0000007  -0.0001298   0.0000149
    2  -0.0007842   0.0006378   0.0003311   0.0000142  -0.0001223   0.0000400
    3   0.0000928  -0.0002369   0.0000304  -0.0000046   0.0000370  -0.0000646
            7           8           9          10          11          12
    1   0.0003003  -0.0000634  -0.0000836   0.0000019  -0.0000152   0.0000280
    2   0.0003293  -0.0003286  -0.0000801  -0.0001392   0.0000545   0.0000429
    3  -0.0001708   0.0002627   0.0000698  -0.0000367   0.0000015  -0.0000281
           13
    1  -0.0000804
    2   0.0000046
    3   0.0000475
 Max gradient component =       7.842E-04
 RMS gradient           =       2.416E-04
 Gradient time:  CPU 17.36 s  wall 1.52 s
 Geometry Optimization Parameters
   NAtoms,    NIC,     NZ,  NCons,   NDum,   NFix, NCnnct, MaxDiis
       13      90       0       1       0       0       0       0

 Cartesian Hessian Update
 Hessian Updated using BFGS Update


** CONSTRAINED OPTIMIZATION IN DELOCALIZED INTERNAL COORDINATES **
   Searching for a Minimum

   Optimization Cycle:   4

                       Coordinates (Angstroms)
     ATOM                X               Y               Z
      1  Se        3.4830130300    1.4135154108    0.1361743191
      2  C         0.3516135594   -2.0723538386    0.5009431411
      3  C        -0.7475266086   -1.5120446839   -0.2627530751
      4  C        -2.1341203366   -2.0622515973    0.0532321591
      5  Se       -0.7425617067    0.5780808248    0.0496856923
[...]
 DFT Correlation      Energy =  -5.15056383558705
 DFT Exchange         Energy = -150.49735538166283
 One-Electron (alpha) Energy = -3932.27833855793324
 One-Electron (beta)  Energy = -3887.48214126246467
 Total Coulomb        Energy = 2602.41129231826517
    6   -4921.6401504581      8.74e-05  
 Alpha HF Exchange    Energy = -18.99505438691824
 Beta HF Exchange     Energy = -18.81505833206524
 DFT Correlation      Energy =  -5.14992766620661
 DFT Exchange         Energy = -150.49113944529589
 One-Electron (alpha) Energy = -3932.15824807331410
 One-Electron (beta)  Energy = -3887.42469820712131
 Total Coulomb        Energy = 2602.22557343618746
    7   -4921.6402958256      2.93e-05  
 Alpha HF Exchange    Energy = -18.99539639333954
 Beta HF Exchange     Energy = -18.81543928612071
 DFT Correlation      Energy =  -5.14994402240036
 DFT Exchange         Energy = -150.49359252882448
 One-Electron (alpha) Energy = -3932.18807353594002
 One-Electron (beta)  Energy = -3887.46910887033073
 Total Coulomb        Energy = 2602.30297740360629
    8   -4921.6403203842      1.62e-05  
 Alpha HF Exchange    Energy = -18.99543059161364
 Beta HF Exchange     Energy = -18.81551642372536
 DFT Correlation      Energy =  -5.14993682897486
 DFT Exchange         Energy = -150.49386281440331
 One-Electron (alpha) Energy = -3932.18626818703888
 One-Electron (beta)  Energy = -3887.47579286038444
 Total Coulomb        Energy = 2602.30822416373394
    9   -4921.6403266933      3.68e-06  
 Alpha HF Exchange    Energy = -18.99543529242217
 Beta HF Exchange     Energy = -18.81554574971068
 DFT Correlation      Energy =  -5.14991973600743
 DFT Exchange         Energy = -150.49391241919551
 One-Electron (alpha) Energy = -3932.18146058312868
 One-Electron (beta)  Energy = -3887.47671819960260
 Total Coulomb        Energy = 2602.30440716554949
   10   -4921.6403279654      1.72e-06  
 Alpha HF Exchange    Energy = -18.99543287523597
 Beta HF Exchange     Energy = -18.81554606457343
 DFT Correlation      Energy =  -5.14991652451738
 DFT Exchange         Energy = -150.49389432613935
 One-Electron (alpha) Energy = -3932.18098064138212
 One-Electron (beta)  Energy = -3887.47732623716456
 Total Coulomb        Energy = 2602.30451135405337
   11   -4921.6403284658      1.29e-06  
 Alpha HF Exchange    Energy = -18.99543363098426
 Beta HF Exchange     Energy = -18.81554696904826
 DFT Correlation      Energy =  -5.14991657443081
 DFT Exchange         Energy = -150.49390031944338
 One-Electron (alpha) Energy = -3932.18122579861165
 One-Electron (beta)  Energy = -3887.47774476140467
 Total Coulomb        Energy = 2602.30518221442708
   12   -4921.6403289904      1.24e-06  
 Alpha HF Exchange    Energy = -18.99543343294165
 Beta HF Exchange     Energy = -18.81554543870416
 DFT Correlation      Energy =  -5.14991650127233
 DFT Exchange         Energy = -150.49389450827510
 One-Electron (alpha) Energy = -3932.18094264327783
 One-Electron (beta)  Energy = -3887.47746791633062
 Total Coulomb        Energy = 2602.30461416594335
   13   -4921.6403294257      1.21e-06  
 Alpha HF Exchange    Energy = -18.99543416367487
 Beta HF Exchange     Energy = -18.81554605516455
 DFT Correlation      Energy =  -5.14991674390954
 DFT Exchange         Energy = -150.49390043062616
 One-Electron (alpha) Energy = -3932.18107628879125
 One-Electron (beta)  Energy = -3887.47758291236551
 Total Coulomb        Energy = 2602.30486923449189
   14   -4921.6403305109      1.19e-06  
 Alpha HF Exchange    Energy = -18.99543476345577
 Beta HF Exchange     Energy = -18.81554576183566
 DFT Correlation      Energy =  -5.14991664449373
 DFT Exchange         Energy = -150.49389996393475
 One-Electron (alpha) Energy = -3932.18111732256739
 One-Electron (beta)  Energy = -3887.47763715844576
 Total Coulomb        Energy = 2602.30496084696551
   15   -4921.6403339186      1.12e-06  
 Alpha HF Exchange    Energy = -18.99543272265091
 Beta HF Exchange     Energy = -18.81555505972188
 DFT Correlation      Energy =  -5.14991584307865
 DFT Exchange         Energy = -150.49391698143069
 One-Electron (alpha) Energy = -3932.18088739707036
 One-Electron (beta)  Energy = -3887.47878835157644
 Total Coulomb        Energy = 2602.30589556135737
   16   -4921.6403439450      1.63e-06  
 Alpha HF Exchange    Energy = -18.99543285725982
 Beta HF Exchange     Energy = -18.81556191869569
 DFT Correlation      Energy =  -5.14991543861202
 DFT Exchange         Energy = -150.49393846611960
 One-Electron (alpha) Energy = -3932.18087569650470
 One-Electron (beta)  Energy = -3887.47960265044139
 Total Coulomb        Energy = 2602.30672433370319
   17   -4921.6403458448      2.52e-06  
 Alpha HF Exchange    Energy = -18.99542842206381
 Beta HF Exchange     Energy = -18.81565356777291
 DFT Correlation      Energy =  -5.14990972070679
 DFT Exchange         Energy = -150.49420339238770
 One-Electron (alpha) Energy = -3932.17987716570951
 One-Electron (beta)  Energy = -3887.49017291244809
 Total Coulomb        Energy = 2602.31663690056075
   18   -4921.6403514314      1.39e-05  
 Alpha HF Exchange    Energy = -18.99543010327929
 Beta HF Exchange     Energy = -18.81560962444905
 DFT Correlation      Energy =  -5.14991284796868
 DFT Exchange         Energy = -150.49407069521573
 One-Electron (alpha) Energy = -3932.18032150784848
 One-Electron (beta)  Energy = -3887.48508814405113
 Total Coulomb        Energy = 2602.31182251296423
   19   -4921.6403535607      7.81e-06  
 Alpha HF Exchange    Energy = -18.99542977315746
 Beta HF Exchange     Energy = -18.81560782101765
 DFT Correlation      Energy =  -5.14991339162437
 DFT Exchange         Energy = -150.49406111556877
 One-Electron (alpha) Energy = -3932.18029013995601
 One-Electron (beta)  Energy = -3887.48489099740618
 Total Coulomb        Energy = 2602.31158219180088
   20   -4921.6403541978      7.16e-06  
 Alpha HF Exchange    Energy = -18.99542879536615
 Beta HF Exchange     Energy = -18.81558506090298
 DFT Correlation      Energy =  -5.14991454519619
 DFT Exchange         Energy = -150.49397855283249
 One-Electron (alpha) Energy = -3932.18030378323419
 One-Electron (beta)  Energy = -3887.48236629853454
 Total Coulomb        Energy = 2602.30896504337306
   21   -4921.6403551436      3.72e-06  
 Alpha HF Exchange    Energy = -18.99543038746556
 Beta HF Exchange     Energy = -18.81557318745411
 DFT Correlation      Energy =  -5.14991592655977
 DFT Exchange         Energy = -150.49394306352133
 One-Electron (alpha) Energy = -3932.18047373649006
 One-Electron (beta)  Energy = -3887.48104214033765
 Total Coulomb        Energy = 2602.30776608984615
   22   -4921.6403555029      1.46e-06  
 Alpha HF Exchange    Energy = -18.99543023946717
 Beta HF Exchange     Energy = -18.81556837773726
 DFT Correlation      Energy =  -5.14991627326333
 DFT Exchange         Energy = -150.49392610090388
 One-Electron (alpha) Energy = -3932.18044896713855
 One-Electron (beta)  Energy = -3887.48050627140901
 Total Coulomb        Energy = 2602.30718384242300
   23   -4921.6403555384      7.50e-07  Convergence criterion met
 ---------------------------------------
 SCF time:   CPU 103.94s  wall 9.00s 
<S^2> =          2.011331328
 Alpha HF Exchange    Energy = -18.99543023946717
 Beta HF Exchange     Energy = -18.81556837773726
 DFT Correlation      Energy =  -5.14991627326333
 DFT Exchange         Energy = -150.49392610090388
 One-Electron (alpha) Energy = -3932.18044896713855
 One-Electron (beta)  Energy = -3887.48050627140901
 Total Coulomb        Energy = 2602.30718384242300
 Nuclear repulsion Energy = 489.16825684913118
 SCF   energy in the final basis set =    -4921.6403555384
 Total energy in the final basis set =    -4921.6403555384
 
 --------------------------------------------------------------
 
                    Orbital Energies (a.u.)
 --------------------------------------------------------------
 
 Alpha MOs
 -- Occupied --
*******-453.899 -58.102 -58.095 -52.162 -52.159 -52.155 -52.152
-52.151 -52.149 -10.242 -10.210 -10.196  -7.836  -7.828  -5.784
 -5.777  -5.773  -5.770  -5.766  -5.760  -2.117  -2.116  -2.107
 -2.107  -2.106  -2.102  -2.100  -2.098  -2.096  -2.094  -0.817
 -0.702  -0.696  -0.691  -0.585  -0.482  -0.439  -0.431  -0.390
 -0.383  -0.379  -0.361  -0.337  -0.286  -0.244  -0.242  -0.206
 -- Virtual --
 -0.011   0.027   0.040   0.097   0.118   0.124   0.150   0.158
  0.165   0.178   0.208   0.228   0.249   0.258   0.272   0.287
  0.302   0.324   0.402   0.441   0.445   0.495   0.513   0.517
  0.538   0.541   0.541   0.553   0.568   0.580   0.636   0.661
  0.688   0.708   0.743   0.761   0.794   0.809   0.857   0.874
  0.890   0.903   0.930   1.005   1.014   1.046   1.121   1.185
  1.337   1.425   1.428   1.485   1.523   1.639   1.718   1.769
  1.836   1.881   1.906   1.975   2.021   2.037   2.074   2.078
  2.082   2.087   2.106   2.115   2.119   2.269   2.298   2.348
  2.401   2.487   2.556   2.585   2.597   2.628   2.644   2.699
  2.746   2.823   2.864   2.916   3.178   3.270   3.379   3.406
  3.456   3.512   4.198   4.218   4.219   4.240   4.261   4.262
  4.297   4.336   4.379   4.394   4.419   4.474   4.602   5.403
  5.488  89.572  89.831
 
 Beta MOs
 -- Occupied --
*******-453.899 -58.101 -58.094 -52.158 -52.157 -52.155 -52.151
-52.150 -52.148 -10.244 -10.198 -10.196  -7.833  -7.827  -5.776
 -5.775  -5.772  -5.768  -5.764  -5.760  -2.111  -2.110  -2.105
 -2.105  -2.101  -2.101  -2.098  -2.097  -2.095  -2.094  -0.809
 -0.693  -0.674  -0.661  -0.576  -0.477  -0.436  -0.426  -0.387
 -0.379  -0.370  -0.359  -0.319  -0.235  -0.230
 -- Virtual --
 -0.163  -0.084   0.001   0.033   0.048   0.099   0.120   0.133
  0.156   0.160   0.167   0.184   0.214   0.233   0.255   0.262
  0.288   0.297   0.306   0.333   0.409   0.447   0.453   0.504
  0.522   0.545   0.554   0.559   0.583   0.586   0.587   0.606
  0.648   0.665   0.691   0.713   0.750   0.766   0.805   0.814
  0.859   0.876   0.892   0.909   0.931   1.015   1.022   1.050
  1.127   1.190   1.353   1.427   1.445   1.502   1.539   1.645
  1.723   1.769   1.840   1.886   1.925   1.994   2.027   2.038
  2.075   2.078   2.080   2.094   2.106   2.116   2.126   2.274
  2.299   2.350   2.412   2.501   2.567   2.597   2.598   2.629
  2.645   2.702   2.748   2.825   2.864   2.918   3.179   3.272
  3.383   3.408   3.457   3.518   4.213   4.232   4.232   4.253
  4.263   4.263   4.300   4.339   4.384   4.397   4.429   4.478
  4.605   5.418   5.492  89.577  89.833
 --------------------------------------------------------------
 
          Ground-State Mulliken Net Atomic Charges

     Atom                 Charge (a.u.)    Spin (a.u.)
  --------------------------------------------------------
      1 Se                   -0.115332       1.020014
      2 C                    -0.203228       0.929708
      3 C                    -0.151358      -0.111784
      4 C                    -0.309299       0.007558
      5 Se                   -0.104145       0.260051
      6 H                     0.060336      -0.006415
      7 H                     0.090271      -0.027006
      8 H                     0.119371      -0.041210
      9 H                     0.112718      -0.041259
     10 H                     0.138511       0.011422
     11 H                     0.114232      -0.000925
     12 H                     0.129230       0.001070
     13 H                     0.118692      -0.001224
  --------------------------------------------------------
  Sum of atomic charges =    -0.000000
  Sum of spin   charges =     2.000000

 -----------------------------------------------------------------
                    Cartesian Multipole Moments
 -----------------------------------------------------------------
    Charge (ESU x 10^10)
                 0.0000
    Dipole Moment (Debye)
         X      -1.6350      Y      -2.3819      Z       0.3629
       Tot       2.9118
    Quadrupole Moments (Debye-Ang)
        XX     -63.0963     XY      -0.9875     YY     -57.3294
        XZ      -0.4658     YZ      -0.6086     ZZ     -56.8116
    Octopole Moments (Debye-Ang^2)
       XXX    -116.1329    XXY     -12.9620    XYY     -38.1910
       YYY       3.0567    XXZ      -3.6824    XYZ      -4.3775
       YYZ      -9.1052    XZZ     -42.7397    YZZ      -4.6244
       ZZZ     -21.6304
    Hexadecapole Moments (Debye-Ang^3)
      XXXX   -1791.9725   XXXY    -372.9259   XXYY    -424.1316
      XYYY    -348.8322   YYYY    -795.6527   XXXZ     -33.4401
      XXYZ      -8.6189   XYYZ     -27.0598   YYYZ     -12.5831
      XXZZ    -333.7579   XYZZ    -130.7212   YYZZ    -153.3116
      XZZZ     -60.2314   YZZZ     -10.5478   ZZZZ    -116.6854
 -----------------------------------------------------------------
 Calculating analytic gradient of the SCF energy
 Gradient of SCF Energy
            1           2           3           4           5           6
    1  -0.0000777   0.0000700   0.0001119  -0.0000409  -0.0000123   0.0000489
    2  -0.0003163   0.0001126  -0.0000765   0.0000486   0.0000366   0.0000544
    3   0.0000734   0.0000312  -0.0000117   0.0000473  -0.0000700  -0.0000542
            7           8           9          10          11          12
    1   0.0000227   0.0000061  -0.0000265  -0.0000254  -0.0000263  -0.0000062
    2  -0.0000902   0.0000284   0.0000647  -0.0000247   0.0000795   0.0000444
    3  -0.0001533   0.0000467   0.0000594   0.0000163  -0.0000010  -0.0000170
           13
    1  -0.0000444
    2   0.0000385
    3   0.0000328
 Max gradient component =       3.163E-04
 RMS gradient           =       7.652E-05
 Gradient time:  CPU 17.31 s  wall 1.52 s
 Geometry Optimization Parameters
   NAtoms,    NIC,     NZ,  NCons,   NDum,   NFix, NCnnct, MaxDiis
       13      90       0       1       0       0       0       0

 Cartesian Hessian Update
 Hessian Updated using BFGS Update


** CONSTRAINED OPTIMIZATION IN DELOCALIZED INTERNAL COORDINATES **
   Searching for a Minimum

   Optimization Cycle:  21

                       Coordinates (Angstroms)
     ATOM                X               Y               Z
      1  Se        3.4905786572    1.4322407586    0.2628181020
      2  C         0.3610125407   -2.0698474214    0.4394467646
      3  C        -0.7674291624   -1.5316574976   -0.2958986788
      4  C        -2.1418264386   -2.0656403915    0.0924343722
      5  Se       -0.7411580626    0.5689722215   -0.0471225962
      6  H        -0.9200553526    0.4746534721    1.4125480150
      7  H         2.2157008387    0.6678903508    0.2620710980
      8  H         1.3642891450   -2.0250803488    0.0309919650
      9  H         0.2502150326   -2.3509544881    1.4825844006
     10  H        -0.6122948342   -1.5652548276   -1.3773908675
     11  H        -2.3240130677   -1.9457414703    1.1651260807
     12  H        -2.9398225774   -1.5525998695   -0.4484581152
     13  H        -2.1971977187   -3.1363864881   -0.1376505405
   Point Group: c1    Number of degrees of freedom:    33


   Energy is  -4921.640355538

              Constraints and their Current Values
                                        Value     Constraint
   Distance(Angs):        1   2             4.700000     4.700000
 Hessian Updated using BFGS Update

 32 Hessian modes will be used to form the next step
  Hessian Eigenvalues:
     0.000890    0.002478    0.009770    0.015064    0.043860    0.044939
     0.048886    0.066655    0.069586    0.078212    0.082288    0.083892
     0.088102    0.093649    0.102641    0.112186    0.152865    0.158587
     0.159928    0.160109    0.161287    0.181119    0.181605    0.194898
     0.300145    0.338399    0.340739    0.343041    0.345533    0.346097
     0.352792    0.373157

 Minimum Search - Taking Simple RFO Step
 Searching for Lamda that Minimizes Along All modes
 Value Taken    Lamda =  -0.00000120
 Step Taken.  Stepsize is  0.014017

                             Maximum     Tolerance    Cnvgd?
         Gradient           0.000065      0.000300     YES
         Displacement       0.009086      0.001200      NO
         Energy change     -0.000001      0.000001     YES


                       Distance Matrix (Angstroms)
             Se(  1)   C (  2)   C (  3)   C (  4)   Se(  5)   H (  6)
   C (  2)  4.700000
   C (  3)  5.217997  1.450435
   C (  4)  6.632359  2.526784  1.524765
   Se(  5)  4.329999  2.900845  2.115473  2.987061
   H (  6)  4.657526  3.010406  2.639577  3.112638  1.473614
   H (  7)  1.486454  3.311577  3.748120  5.146748  2.974626  3.345729
   H (  8)  4.065454  1.084160  2.212362  3.506888  3.341874  3.657266
   H (  9)  5.128387  1.086017  2.206774  2.781328  3.442208  3.059166
   H ( 10)  5.339367  2.121990  1.093079  2.179504  2.518163  3.469827
   H ( 11)  6.784866  2.784129  2.174629  1.094639  3.209168  2.809026
   H ( 12)  7.124974  3.457084  2.177844  1.092050  3.081601  3.413585
   H ( 13)  7.306403  2.831075  2.155095  1.096587  3.982202  4.132048
             H (  7)   H (  8)   H (  9)   H ( 10)   H ( 11)   H ( 12)
   H (  8)  2.833794
   H (  9)  3.803447  1.858622
   H ( 10)  3.958830  2.470196  3.088803
   H ( 11)  5.315598  3.859550  2.625191  3.088550
   H ( 12)  5.658167  4.356431  3.813481  2.506085  1.771281
   H ( 13)  5.840032  3.734653  3.038403  2.552906  1.769448  1.776647

 
 Final energy is   -4921.64035553836     


 ******************************
 **  OPTIMIZATION CONVERGED  **
 ******************************

                       Coordinates (Angstroms)
     ATOM                X               Y               Z
      1  Se        3.4905786572    1.4322407586    0.2628181020
      2  C         0.3610125407   -2.0698474214    0.4394467646
      3  C        -0.7674291624   -1.5316574976   -0.2958986788
      4  C        -2.1418264386   -2.0656403915    0.0924343722
      5  Se       -0.7411580626    0.5689722215   -0.0471225962
      6  H        -0.9200553526    0.4746534721    1.4125480150
      7  H         2.2157008387    0.6678903508    0.2620710980
      8  H         1.3642891450   -2.0250803488    0.0309919650
      9  H         0.2502150326   -2.3509544881    1.4825844006
     10  H        -0.6122948342   -1.5652548276   -1.3773908675
     11  H        -2.3240130677   -1.9457414703    1.1651260807
     12  H        -2.9398225774   -1.5525998695   -0.4484581152
     13  H        -2.1971977187   -3.1363864881   -0.1376505405

Z-matrix Print:
$molecule
0 3
Se
H  1 1.473614
C  1 2.115473 2 92.947565
H  3 1.093079 1 98.343655 2 -178.666462 0
C  3 1.450435 1 107.407679 2 -62.034604 0
H  5 1.084160 3 120.906154 1 -78.598019 0
H  5 1.086017 3 120.240883 1 89.629231 0
C  3 1.524765 1 109.207664 2 64.834271 0
H  8 1.092050 3 111.592268 1 53.665862 0
H  8 1.094639 3 111.176386 1 -67.231685 0
H  8 1.096587 3 109.513643 1 173.863683 0
H  6 2.833794 5 106.651689 3 74.135952 0
Se 12 1.486454 6 138.278003 5 160.448220 0
$end

PES scan, value:    4.7000 energy: -4921.6403555384
------- Summary of potential scan: ------ 
    4.7000     -4921.6403555384
----------------------------------------- 
Archival summary:
1\1\hpc0248\JobtypUnspecified\ProcedureUnspecified\6-31G**\e238(3)\knomura\ThuMar1409:25:392019ThuMar1409:25:392019\0\\#,JobtypUnspecified,ProcedureUnspecified,6-31G**,\\0,3\Se\H,1,1.47361\C,1,2.11547,2,92.9476\H,3,1.09308,1,98.3437,2,-178.666,0\C,3,1.45044,1,107.408,2,-62.0346,0\H,5,1.08416,3,120.906,1,-78.598,0\H,5,1.08602,3,120.241,1,89.6292,0\C,3,1.52476,1,109.208,2,64.8343,0\H,8,1.09205,3,111.592,1,53.6659,0\H,8,1.09464,3,111.176,1,-67.2317,0\H,8,1.09659,3,109.514,1,173.864,0\H,6,2.83379,5,106.652,3,74.136,0\Se,12,1.48645,6,138.278,5,160.448,0\\\@

 Total job time:  202.51s(wall), 2325.04s(cpu) 
 Thu Mar 14 09:25:39 2019

        *************************************************************
        *                                                           *
        *  Thank you very much for using Q-Chem.  Have a nice day.  *
        *                                                           *
        *************************************************************


