
Running Job 1 of 1 thiol/01/S-H.xyz.data/inputs/bond_singlet_3.7.in
qchem thiol/01/S-H.xyz.data/inputs/bond_singlet_3.7.in_15108.0 /staging/scratch/2868767/qchem15108/ 1
/usr/usc/qchem/5.1.1/exe/qcprog.exe_s thiol/01/S-H.xyz.data/inputs/bond_singlet_3.7.in_15108.0 /staging/scratch/2868767/qchem15108/
Check license passed

                  Welcome to Q-Chem
     A Quantum Leap Into The Future Of Chemistry


 Q-Chem 5.1, Q-Chem, Inc., Pleasanton, CA (2018)

 Yihan Shao,  Zhengting Gan,  E. Epifanovsky,  A. T. B. Gilbert,  M. Wormit,  
 J. Kussmann,  A. W. Lange,  A. Behn,  Jia Deng,  Xintian Feng,  D. Ghosh,  
 M. Goldey,  P. R. Horn,  L. D. Jacobson,  I. Kaliman,  T. Kus,  A. Landau,  
 Jie Liu,  E. I. Proynov,  R. M. Richard,  R. P. Steele,  E. J. Sundstrom,  
 H. L. Woodcock III,  P. M. Zimmerman,  D. Zuev,  B. Albrecht,  E. Alguire,  
 S. A. Baeppler,  D. Barton,  Z. Benda,  Y. A. Bernard,  E. J. Berquist,  
 K. B. Bravaya,  H. Burton,  D. Casanova,  Chun-Min Chang,  Yunqing Chen,  
 A. Chien,  K. D. Closser,  M. P. Coons,  S. Coriani,  S. Dasgupta,  
 A. L. Dempwolff,  M. Diedenhofen,  Hainam Do,  R. G. Edgar,  Po-Tung Fang,  
 S. Faraji,  S. Fatehi,  Qingguo Feng,  K. D. Fenk,  J. Fosso-Tande,  
 Qinghui Ge,  A. Ghysels,  G. Gidofalvi,  J. Gomes,  J. Gonthier,  A. Gunina,  
 D. Hait,  M. W. D. Hanson-Heine,  P. H. P. Harbach,  A. W. Hauser,  
 J. E. Herr,  E. G. Hohenstein,  Z. C. Holden,  Kerwin Hui,  B. C. Huynh,  
 T.-C. Jagau,  Hyunjun Ji,  B. Kaduk,  K. Khistyaev,  Jaehoon Kim,  
 P. Klunzinger,  K. Koh,  D. Kosenkov,  L. Koulias,  T. Kowalczyk,  
 C. M. Krauter,  A. Kunitsa,  Ka Un Lao,  A. Laurent,  K. V. Lawler,  
 Joonho Lee,  D. Lefrancois,  S. Lehtola,  D. S. Levine,  Yi-Pei Li,  
 You-Sheng Lin,  Fenglai Liu,  E. Livshits,  A. Luenser,  P. Manohar,  
 E. Mansoor,  S. F. Manzer,  Shan-Ping Mao,  Yuezhi Mao,  N. Mardirossian,  
 A. V. Marenich,  T. Markovich,  L. A. Martinez-Martinez,  S. A. Maurer,  
 N. J. Mayhall,  S. C. McKenzie,  J.-M. Mewes,  A. F. Morrison,  
 J. W. Mullinax,  K. Nanda,  T. S. Nguyen-Beck,  R. Olivares-Amaya,  
 J. A. Parkhill,  T. M. Perrine,  F. Plasser,  P. Pokhilko,  S. Prager,  
 A. Prociuk,  E. Ramos,  D. R. Rehn,  F. Rob,  M. Schneider,  N. Sergueev,  
 S. M. Sharada,  S. Sharma,  D. W. Small,  T. Stauch,  T. Stein,  
 Yu-Chuan Su,  A. J. W. Thom,  A. Tkatchenko,  T. Tsuchimochi,  N. M. Tubman,  
 L. Vogt,  M. L. Vidal,  O. Vydrov,  M. A. Watson,  J. Wenzel,  
 M. de Wergifosse,  T. A. Wesolowski,  A. White,  J. Witte,  A. Yamada,  
 Jun Yang,  K. Yao,  S. Yeganeh,  S. R. Yost,  Zhi-Qiang You,  A. Zech,  
 Igor Ying Zhang,  Xing Zhang,  Yan Zhao,  Ying Zhu,  B. R. Brooks,  
 G. K. L. Chan,  C. J. Cramer,  M. S. Gordon,  W. J. Hehre,  A. Klamt,  
 M. W. Schmidt,  C. D. Sherrill,  D. G. Truhlar,  A. Aspuru-Guzik,  R. Baer,  
 A. T. Bell,  N. A. Besley,  Jeng-Da Chai,  A. E. DePrince, III,  
 R. A. DiStasio Jr.,  A. Dreuw,  B. D. Dunietz,  T. R. Furlani,  
 Chao-Ping Hsu,  Yousung Jung,  Jing Kong,  D. S. Lambrecht,  WanZhen Liang,  
 C. Ochsenfeld,  V. A. Rassolov,  L. V. Slipchenko,  J. E. Subotnik,  
 T. Van Voorhis,  J. M. Herbert,  A. I. Krylov,  P. M. W. Gill,  M. Head-Gordon

 Contributors to earlier versions of Q-Chem not listed above: 
 R. D. Adamson,  B. Austin,  J. Baker,  G. J. O. Beran,  K. Brandhorst,  
 S. T. Brown,  E. F. C. Byrd,  A. K. Chakraborty,  C.-L. Cheng,  
 Siu Hung Chien,  D. M. Chipman,  D. L. Crittenden,  H. Dachsel,  
 R. J. Doerksen,  A. D. Dutoi,  L. Fusti-Molnar,  W. A. Goddard III,  
 A. Golubeva-Zadorozhnaya,  S. R. Gwaltney,  G. Hawkins,  A. Heyden,  
 S. Hirata,  G. Kedziora,  F. J. Keil,  C. Kelley,  Jihan Kim,  R. A. King,  
 R. Z. Khaliullin,  P. P. Korambath,  W. Kurlancheek,  A. M. Lee,  M. S. Lee,  
 S. V. Levchenko,  Ching Yeh Lin,  D. Liotard,  R. C. Lochan,  I. Lotan,  
 P. E. Maslen,  N. Nair,  D. P. O'Neill,  D. Neuhauser,  E. Neuscamman,  
 C. M. Oana,  R. Olson,  B. Peters,  R. Peverati,  P. A. Pieniazek,  
 Y. M. Rhee,  J. Ritchie,  M. A. Rohrdanz,  E. Rosta,  N. J. Russ,  
 H. F. Schaefer III,  N. E. Schultz,  N. Shenvi,  A. C. Simmonett,  A. Sodt,  
 D. Stuck,  K. S. Thanthiriwatte,  V. Vanovschi,  Tao Wang,  A. Warshel,  
 C. F. Williams,  Q. Wu,  X. Xu,  W. Zhang

 Please cite Q-Chem as follows:
 Y. Shao et al., Mol. Phys. 113, 184-215 (2015)
 DOI: 10.1080/00268976.2014.952696

 Q-Chem 5.1.1 for Intel X86 EM64T Linux

 Parts of Q-Chem use Armadillo 8.300.2 (Tropical Shenanigans).
 http://arma.sourceforge.net/

 Q-Chem begins on Wed Mar 13 16:35:50 2019  

Host: 
0

     Scratch files written to /staging/scratch/2868767/qchem15108//
 Aug318 |scratch|qcdevops|jenkins|workspace|build_RNUM 6013   
Processing $rem in /usr/usc/qchem/5.1.1/config/preferences.
 MEM_TOTAL  2000 
Input Ideriv = 2
Curr. Ideriv = -1
Max.  Ideriv = 2

Checking the input file for inconsistencies... 	...done.

--------------------------------------------------------------
User input:
--------------------------------------------------------------

$comment
potential surface scanner
$end

$rem
JOBTYPE  PES_SCAN
UNRESTRICTED TRUE
SYM_IGNORE  TRUE
GEOM_OPT_MAX_CYCLES 400
SCF_MAX_CYCLES 400
METHOD   B3LYP
BASIS   6-31G**
PDB_PRINT 2
SCF_CONVERGENCE 6
THRESH 14
SCF_PRINT 1
$end
$molecule
0 1
S 1.657900 -0.000200 0.107500
C -0.098900 0.000100 -0.384900
C -0.779700 -1.258900 0.138700
C -0.779300 1.259100 0.138700
H -0.135800 0.000100 -1.479400
H -1.829100 -1.282800 -0.175600
H -0.301500 -2.163300 -0.253500
H -0.763000 -1.307700 1.233500
H -1.828700 1.283400 -0.175500
H -0.300800 2.163400 -0.253400
H -0.762600 1.307800 1.233400
H 1.451400 -0.000200 1.432900
$end
$scan
stre 1 12 3.700000 3.701000 0.100000
$end
--------------------------------------------------------------
 ----------------------------------------------------------------
             Standard Nuclear Orientation (Angstroms)
    I     Atom           X                Y                Z
 ----------------------------------------------------------------
    1      S       1.6579000000    -0.0002000000     0.1075000000
    2      C      -0.0989000000     0.0001000000    -0.3849000000
    3      C      -0.7797000000    -1.2589000000     0.1387000000
    4      C      -0.7793000000     1.2591000000     0.1387000000
    5      H      -0.1358000000     0.0001000000    -1.4794000000
    6      H      -1.8291000000    -1.2828000000    -0.1756000000
    7      H      -0.3015000000    -2.1633000000    -0.2535000000
    8      H      -0.7630000000    -1.3077000000     1.2335000000
    9      H      -1.8287000000     1.2834000000    -0.1755000000
   10      H      -0.3008000000     2.1634000000    -0.2534000000
   11      H      -0.7626000000     1.3078000000     1.2334000000
   12      H       1.4514000000    -0.0002000000     1.4329000000
 ----------------------------------------------------------------
 Nuclear Repulsion Energy =   170.8093029501 hartrees
 There are       21 alpha and       21 beta electrons
 Requested basis set is 6-31G(d,p)
 There are 41 shells and 104 basis functions

 Total QAlloc Memory Limit   2000 MB
 Mega-Array Size       188 MB
 MEM_STATIC part       192 MB
A total of 1 constraints
  
            1
    1   1.0100000
    2   1.0100000
    3  12.0100000
    4   3.7000000
    5   3.7010000
    6   0.1000000
    7   0.0000000
    8   0.0000000
    9   0.0000000
   10   0.0000000

                       Distance Matrix (Angstroms)
             S (  1)   C (  2)   C (  3)   C (  4)   H (  5)   H (  6)
   C (  2)  1.824501
   C (  3)  2.743573  1.524049
   C (  4)  2.743493  1.523871  2.518000
   H (  5)  2.394914  1.095122  2.148938  2.148818
   H (  6)  3.726175  2.164077  1.095717  2.768053  2.492587
   H (  7)  2.940845  2.176835  1.095644  3.477777  2.492105  1.764911
   H (  8)  2.972909  2.184168  1.096014  2.790576  3.076288  1.767131
   H (  9)  3.726137  2.164004  2.768106  1.095697  2.492574  2.566200
   H ( 10)  2.940735  2.176677  3.477819  1.095656  2.492021  3.770683
   H ( 11)  2.972766  2.183912  2.790450  1.095910  3.076076  3.135907
   H ( 12)  1.341390  2.389106  2.870032  2.869985  3.316730  3.872211
             H (  7)   H (  8)   H (  9)   H ( 10)   H ( 11)
   H (  8)  1.776570
   H (  9)  3.770698  3.136048
   H ( 10)  4.326700  3.804344  1.764921
   H ( 11)  3.804211  2.615500  1.766965  1.776481
   H ( 12)  3.255089  2.579319  3.872162  3.254993  2.579236
 
 A cutoff of  1.0D-14 yielded    848 shell pairs
 There are      5541 function pairs
 
 -------------------------------------------------------
 OpenMP Integral Computing Module                       
 Release: version 1.0, May 2013, Q-Chem Inc. Pittsburgh 
 -------------------------------------------------------
 Integral Job Info:
 Integral job number is                      11
 Integral operator is                         1
 short-range coefficients                     0
 long-range coefficients              100000000
 Omega coefficients                           0
 if combine SR and LR in K                    0
 Integral screening is                        0
 Integral computing path is                   2
 max size of driver memory is            800000
 size of driver memory is                593474
 size of scratch memory is             15267112
 max col of scratch BK array               1296
 max len of scratch array in speh3          155
 max len of scratch index in speh4           18
 max int batch size is                      520
 min int batch size is                       52
 fixed nKL is                                52
 max L of basis functions is                  2
 order of int derivative is                   0
 number of shells is                         41
 number of basis is                         104
 number of cartesian basis is               104
 number of contracted shell pairs           848
 number of primitive shell pairs           3123
 maxK2 (contraction) of shell pair           36
 max number of K2 of shell pair               1
 max number of CS2 of shell pair             78
 max number of PS2 of shell pair            282
 mem total for path MDJ                  514716
 -------------------------------------------------------
 Smallest overlap matrix eigenvalue = 5.73E-03

 Scale SEOQF with 1.000000e-01/1.000000e-01/1.000000e+00

 Standard Electronic Orientation quadrupole field applied
 Nucleus-field energy     =    -0.0000000047 hartrees
 Guess from superposition of atomic densities
 Warning:  Energy on first SCF cycle will be non-variational
 SAD guess density has 42.000000 electrons

 -----------------------------------------------------------------------
  General SCF calculation program by
  Eric Jon Sundstrom, Paul Horn, Yuezhi Mao, Dmitri Zuev, Alec White,
  David Stuck, Shaama M.S., Shane Yost, Joonho Lee, David Small,
  Daniel Levine, Susi Lehtola, Hugh Burton, Evgeny Epifanovsky
 -----------------------------------------------------------------------
 Exchange:     0.2000 Hartree-Fock + 0.0800 Slater + 0.7200 B88
 Correlation:  0.1900 VWN1RPA + 0.8100 LYP
 Using SG-1 standard quadrature grid
 using 12 threads for integral computing
 -------------------------------------------------------
 OpenMP Integral computing Module                
 Release: version 1.0, May 2013, Q-Chem Inc. Pittsburgh 
 -------------------------------------------------------
 -------------------------------------------------------
 OpenMP BLAS3 based DFT computing Module                
 Release: version 1.0, May 2013, Q-Chem Inc. Pittsburgh 
 -------------------------------------------------------
 A unrestricted SCF calculation will be
 performed using DIIS
 SCF converges when DIIS error is below 1.0e-06
 Alpha HF Exchange    Energy =  -4.36256288038906
 Beta HF Exchange     Energy =  -4.36256288038906
 DFT Correlation      Energy =  -1.87727576053363
 DFT Exchange         Energy = -34.02448041597553
 One-Electron (alpha) Energy = -522.06303460741196
 One-Electron (beta)  Energy = -522.06303460741196
 Total Coulomb        Energy = 400.13317172936860
 ---------------------------------------
  Cycle       Energy         DIIS error
 ---------------------------------------
    1    -517.8104764773      3.11e-02  
 Alpha HF Exchange    Energy =  -4.37040604736837
 Beta HF Exchange     Energy =  -4.37040604736837
 DFT Correlation      Energy =  -1.90622577906378
 DFT Exchange         Energy = -34.65986890116552
 One-Electron (alpha) Energy = -525.88057416874858
 One-Electron (beta)  Energy = -525.88057416874847
 Total Coulomb        Energy = 409.00695089444707
    2    -517.2518012726      3.85e-03  
 Alpha HF Exchange    Energy =  -4.31216257789589
 Beta HF Exchange     Energy =  -4.31216257789589
 DFT Correlation      Energy =  -1.87775893100012
 DFT Exchange         Energy = -34.16970583181845
 One-Electron (alpha) Energy = -521.87071881886379
 One-Electron (beta)  Energy = -521.87071881886345
 Total Coulomb        Energy = 400.37341760383106
    3    -517.2305070071      4.32e-03  
 Alpha HF Exchange    Energy =  -4.34027287453946
 Beta HF Exchange     Energy =  -4.34027287453946
 DFT Correlation      Energy =  -1.89255735739094
 DFT Exchange         Energy = -34.40629697261902
 One-Electron (alpha) Energy = -523.97932510190594
 One-Electron (beta)  Energy = -523.97932510190583
 Total Coulomb        Energy = 404.79024865425458
    4    -517.3384986832      4.59e-04  
 Alpha HF Exchange    Energy =  -4.34081932987042
 Beta HF Exchange     Energy =  -4.34081932987041
 DFT Correlation      Energy =  -1.89242721296698
 DFT Exchange         Energy = -34.40980630362820
 One-Electron (alpha) Energy = -523.97372836056059
 One-Electron (beta)  Energy = -523.97372836056013
 Total Coulomb        Energy = 404.78241271152029
    5    -517.3396132405      1.61e-04  
 Alpha HF Exchange    Energy =  -4.34082187537091
 Beta HF Exchange     Energy =  -4.34082187537090
 DFT Correlation      Energy =  -1.89246490102009
 DFT Exchange         Energy = -34.41001766054386
 One-Electron (alpha) Energy = -523.98048616268215
 One-Electron (beta)  Energy = -523.98048616268193
 Total Coulomb        Energy = 404.79604902751521
    6    -517.3397466647      3.33e-05  
 Alpha HF Exchange    Energy =  -4.34071587312394
 Beta HF Exchange     Energy =  -4.34071587312395
 DFT Correlation      Energy =  -1.89242779725157
 DFT Exchange         Energy = -34.40913494452883
 One-Electron (alpha) Energy = -523.96998542201118
 One-Electron (beta)  Energy = -523.96998542201152
 Total Coulomb        Energy = 404.77391009019505
    7    -517.3397522964      7.89e-06  
 Alpha HF Exchange    Energy =  -4.34075452032436
 Beta HF Exchange     Energy =  -4.34075452032435
 DFT Correlation      Energy =  -1.89244339043316
 DFT Exchange         Energy = -34.40944151462648
 One-Electron (alpha) Energy = -523.97442011352803
 One-Electron (beta)  Energy = -523.97442011352791
 Total Coulomb        Energy = 404.78317852753383
    8    -517.3397526998      1.21e-06  
 Alpha HF Exchange    Energy =  -4.34075121995443
 Beta HF Exchange     Energy =  -4.34075121995442
 DFT Correlation      Energy =  -1.89244205157328
 DFT Exchange         Energy = -34.40941421206508
 One-Electron (alpha) Energy = -523.97395840099466
 One-Electron (beta)  Energy = -523.97395840099432
 Total Coulomb        Energy = 404.78221985125248
    9    -517.3397527088      2.29e-07  Convergence criterion met
 ---------------------------------------
 SCF time:   CPU 22.70s  wall 2.00s 
<S^2> =         -0.000000000
 Alpha HF Exchange    Energy =  -4.34075121995443
 Beta HF Exchange     Energy =  -4.34075121995442
 DFT Correlation      Energy =  -1.89244205157328
 DFT Exchange         Energy = -34.40941421206508
 One-Electron (alpha) Energy = -523.97395840099466
 One-Electron (beta)  Energy = -523.97395840099432
 Total Coulomb        Energy = 404.78221985125248
 Nuclear repulsion Energy = 170.80930294543529
 SCF   energy in the final basis set =     -517.3397527088
 Total energy in the final basis set =     -517.3397527088
 
 --------------------------------------------------------------
 
                    Orbital Energies (a.u.)
 --------------------------------------------------------------
 
 Alpha MOs
 -- Occupied --
-88.866 -10.226 -10.183 -10.183  -7.929  -5.894  -5.890  -5.884
 -0.822  -0.704  -0.692  -0.581  -0.464  -0.446  -0.418  -0.392
 -0.389  -0.351  -0.351  -0.310  -0.231
 -- Virtual --
  0.032   0.077   0.096   0.132   0.147   0.152   0.172   0.184
  0.187   0.211   0.233   0.342   0.364   0.398   0.408   0.498
  0.499   0.534   0.553   0.589   0.663   0.690   0.729   0.741
  0.743   0.802   0.836   0.854   0.859   0.878   0.889   0.915
  0.953   0.957   0.973   0.995   1.132   1.175   1.327   1.369
  1.386   1.548   1.554   1.731   1.778   1.836   1.853   1.899
  2.041   2.041   2.049   2.072   2.082   2.109   2.111   2.114
  2.150   2.270   2.311   2.341   2.383   2.526   2.563   2.621
  2.659   2.713   2.731   2.759   2.860   2.868   2.894   2.907
  3.163   3.214   3.320   3.414   3.449   3.468   3.499   4.005
  4.294   4.484   4.605
 
 Beta MOs
 -- Occupied --
-88.866 -10.226 -10.183 -10.183  -7.929  -5.894  -5.890  -5.884
 -0.822  -0.704  -0.692  -0.581  -0.464  -0.446  -0.418  -0.392
 -0.389  -0.351  -0.351  -0.310  -0.231
 -- Virtual --
  0.032   0.077   0.096   0.132   0.147   0.152   0.172   0.184
  0.187   0.211   0.233   0.342   0.364   0.398   0.408   0.498
  0.499   0.534   0.553   0.589   0.663   0.690   0.729   0.741
  0.743   0.802   0.836   0.854   0.859   0.878   0.889   0.915
  0.953   0.957   0.973   0.995   1.132   1.175   1.327   1.369
  1.386   1.548   1.554   1.731   1.778   1.836   1.853   1.899
  2.041   2.041   2.049   2.072   2.082   2.109   2.111   2.114
  2.150   2.270   2.311   2.341   2.383   2.526   2.563   2.621
  2.659   2.713   2.731   2.759   2.860   2.868   2.894   2.907
  3.163   3.214   3.320   3.414   3.449   3.468   3.499   4.005
  4.294   4.484   4.605
 --------------------------------------------------------------
 
          Ground-State Mulliken Net Atomic Charges

     Atom                 Charge (a.u.)    Spin (a.u.)
  --------------------------------------------------------
      1 S                    -0.045334      -0.000000
      2 C                    -0.214172       0.000000
      3 C                    -0.296151      -0.000000
      4 C                    -0.296136       0.000000
      5 H                     0.137980       0.000000
      6 H                     0.103247       0.000000
      7 H                     0.121355       0.000000
      8 H                     0.105324      -0.000000
      9 H                     0.103250       0.000000
     10 H                     0.121350      -0.000000
     11 H                     0.105337      -0.000000
     12 H                     0.053951       0.000000
  --------------------------------------------------------
  Sum of atomic charges =    -0.000000
  Sum of spin   charges =    -0.000000

 -----------------------------------------------------------------
                    Cartesian Multipole Moments
 -----------------------------------------------------------------
    Charge (ESU x 10^10)
                -0.0000
    Dipole Moment (Debye)
         X      -1.7854      Y       0.0003      Z       0.3815
       Tot       1.8257
    Quadrupole Moments (Debye-Ang)
        XX     -37.6112     XY       0.0001     YY     -35.3198
        XZ       1.5328     YZ      -0.0003     ZZ     -31.3965
    Octopole Moments (Debye-Ang^2)
       XXX     -36.1047    XXY       0.0009    XYY     -12.4288
       YYY       0.0028    XXZ       0.3469    XYZ      -0.0008
       YYZ      -2.9481    XZZ      -6.7621    YZZ       0.0001
       ZZZ      -4.8484
    Hexadecapole Moments (Debye-Ang^3)
      XXXX    -346.9880   XXXY       0.0005   XXYY     -99.7247
      XYYY       0.0079   YYYY    -210.1980   XXXZ       2.2018
      XXYZ      -0.0006   XYYZ      -2.5865   YYYZ       0.0023
      XXZZ     -64.8746   XYZZ       0.0011   YYZZ     -48.4748
      XZZZ      -4.2353   YZZZ       0.0007   ZZZZ     -69.6266
 -----------------------------------------------------------------
 Calculating analytic gradient of the SCF energy
 Gradient of SCF Energy
            1           2           3           4           5           6
    1  -0.0175214   0.0098289   0.0054051   0.0054178  -0.0058961   0.0016010
    2   0.0000011   0.0000725   0.0077232  -0.0077977   0.0000035  -0.0003253
    3   0.0089980  -0.0121171   0.0046875   0.0047042  -0.0000969  -0.0003228
            7           8           9          10          11          12
    1  -0.0002836  -0.0010391   0.0016113  -0.0002747  -0.0010427   0.0021934
    2  -0.0012630  -0.0009024   0.0003284   0.0012651   0.0008947  -0.0000003
    3  -0.0017383   0.0005885  -0.0003068  -0.0017395   0.0005186  -0.0031753
 Max gradient component =       1.752E-02
 RMS gradient           =       5.065E-03
 Gradient time:  CPU 10.73 s  wall 1.55 s
 Geometry Optimization Parameters
   NAtoms,    NIC,     NZ,  NCons,   NDum,   NFix, NCnnct, MaxDiis
       12      75       0       1       0       0       0       0


** CONSTRAINED OPTIMIZATION IN DELOCALIZED INTERNAL COORDINATES **
   Searching for a Minimum

   Optimization Cycle:   1

                       Coordinates (Angstroms)
     ATOM                X               Y               Z
      1  S         1.6579000000   -0.0002000000    0.1075000000
      2  C        -0.0989000000    0.0001000000   -0.3849000000
      3  C        -0.7797000000   -1.2589000000    0.1387000000
      4  C        -0.7793000000    1.2591000000    0.1387000000
      5  H        -0.1358000000    0.0001000000   -1.4794000000
      6  H        -1.8291000000   -1.2828000000   -0.1756000000
      7  H        -0.3015000000   -2.1633000000   -0.2535000000
      8  H        -0.7630000000   -1.3077000000    1.2335000000
      9  H        -1.8287000000    1.2834000000   -0.1755000000
     10  H        -0.3008000000    2.1634000000   -0.2534000000
     11  H        -0.7626000000    1.3078000000    1.2334000000
     12  H         1.4514000000   -0.0002000000    1.4329000000
   Point Group: c1    Number of degrees of freedom:    30


   Energy is   -517.339752709

              Constraints and their Current Values
                                        Value     Constraint
   Distance(Angs):        1  12             1.341390     3.700000

 Attempting to Generate Delocalized Internal Coordinates
**WARNING** Constraint Gradient Reduced for constraint   1

   Using Lagrange Multiplier Algorithm


 31 Hessian modes will be used to form the next step
  Hessian Eigenvalues:
    -0.877060    0.045000    0.045000    0.045000    0.075600    0.078747
     0.081899    0.081901    0.083424    0.083430    0.094905    0.160000
     0.160000    0.160000    0.160000    0.160000    0.160000    0.160000
     0.178603    0.203813    0.242779    0.299799    0.299968    0.341268
     0.341385    0.341602    0.341625    0.341671    0.341685    0.342274
     1.140173

 Minimum Search - Taking P-RFO Step
 Searching for Lamda that Maximizes Along the Constraint modes Only
 Value Taken    Lamda =   0.05353167


 ********************************************
 ** ERROR IN DETERMINING Lamda IN CONFormD **
 ********************************************


 ** Scaling Hessian by  2.379185 **


 31 Hessian modes will be used to form the next step
  Hessian Eigenvalues:
    -0.734842    0.107063    0.107063    0.107063    0.179867    0.187354
     0.194854    0.194857    0.198481    0.198496    0.225797    0.380670
     0.380670    0.380670    0.380670    0.380670    0.380670    0.380670
     0.424929    0.484909    0.577616    0.713276    0.713679    0.811939
     0.812218    0.812735    0.812788    0.812898    0.812931    0.814333
     1.360837

 Minimum Search - Taking P-RFO Step
 Searching for Lamda that Maximizes Along the Constraint modes Only
 Value Taken    Lamda =   0.07124202
 Searching for Lamda that Minimizes Along All other modes
 Value Taken    Lamda =  -0.02471352
 Step Taken.  Stepsize is  0.288205

                             Maximum     Tolerance    Cnvgd?
         Gradient            0.300000       0.000300      NO
         Displacement        0.281026       0.001200      NO
         Energy change     *********       0.000001      NO


 New Cartesian Coordinates Obtained by Inverse Iteration

 Displacement from previous Coordinates is:  0.226933
 ----------------------------------------------------------------
             Standard Nuclear Orientation (Angstroms)
    I     Atom           X                Y                Z
 ----------------------------------------------------------------
    1      S       1.6778147968    -0.0002236160     0.0568399910
    2      C      -0.1025548884     0.0000797405    -0.3920184121
    3      C      -0.7843102408    -1.2629414957     0.1326347852
    4      C      -0.7839193105     1.2631629856     0.1326513794
    5      H      -0.1437707171     0.0000707551    -1.4861700892
    6      H      -1.8379390248    -1.2839480162    -0.1707041730
    7      H      -0.3100971222    -2.1666715508    -0.2632254877
    8      H      -0.7550330387    -1.3110411292     1.2268030293
    9      H      -1.8375479504     1.2845483586    -0.1706223156
   10      H      -0.3094202696     2.1667931836    -0.2631190526
   11      H      -0.7546512273     1.3111880834     1.2267633082
   12      H       1.4713289931    -0.0002172989     1.5325670371
 ----------------------------------------------------------------
 Nuclear Repulsion Energy =   169.3268415327 hartrees
 There are       21 alpha and       21 beta electrons

                       Distance Matrix (Angstroms)
             S (  1)   C (  2)   C (  3)   C (  4)   H (  5)   H (  6)
   C (  2)  1.836080
   C (  3)  2.768079  1.528160
   C (  4)  2.768037  1.528043  2.526105
   H (  5)  2.387269  1.094928  2.150818  2.150762
   H (  6)  3.749700  2.170084  1.096626  2.773221  2.499872
   H (  7)  2.957657  2.180475  1.094674  3.484966  2.493598  1.766936
   H (  8)  3.000967  2.182968  1.095616  2.797236  3.074553  1.768176
   H (  9)  3.749687  2.170041  2.773261  1.096616  2.499886  2.568496
   H ( 10)  2.957607  2.180380  3.485000  1.094683  2.493588  3.775252
   H ( 11)  3.000902  2.182817  2.797166  1.095556  3.074445  3.140248
   H ( 12)  1.490103  2.486190  2.939760  2.939734  3.423641  3.937049
             H (  7)   H (  8)   H (  9)   H ( 10)   H ( 11)
   H (  8)  1.774896
   H (  9)  3.775262  3.140338
   H ( 10)  4.333465  3.809694  1.766942
   H ( 11)  3.809620  2.622229  1.768067  1.774835
   H ( 12)  3.330446  2.601622  3.937022  3.330389  2.601593
 
 Applying Cartesian multipole field
    Component          Value
    ---------          -----
     (2,0,0)        1.00000E-11
     (0,2,0)        2.00000E-11
     (0,0,2)       -3.00000E-10
 Nucleus-field energy     =    -0.0000000048 hartrees
 Requested basis set is 6-31G(d,p)
 There are 41 shells and 104 basis functions
 A cutoff of  1.0D-14 yielded    846 shell pairs
 There are      5535 function pairs
 Smallest overlap matrix eigenvalue = 5.83E-03
 Guess from superposition of atomic densities
 Warning:  Energy on first SCF cycle will be non-variational
 SAD guess density has 42.000000 electrons

 -----------------------------------------------------------------------
  General SCF calculation program by
  Eric Jon Sundstrom, Paul Horn, Yuezhi Mao, Dmitri Zuev, Alec White,
  David Stuck, Shaama M.S., Shane Yost, Joonho Lee, David Small,
  Daniel Levine, Susi Lehtola, Hugh Burton, Evgeny Epifanovsky
 -----------------------------------------------------------------------
 Exchange:     0.2000 Hartree-Fock + 0.0800 Slater + 0.7200 B88
 Correlation:  0.1900 VWN1RPA + 0.8100 LYP
 Using SG-1 standard quadrature grid
 using 12 threads for integral computing
 -------------------------------------------------------
 OpenMP Integral computing Module                
 Release: version 1.0, May 2013, Q-Chem Inc. Pittsburgh 
 -------------------------------------------------------
 -------------------------------------------------------
 OpenMP BLAS3 based DFT computing Module                
 Release: version 1.0, May 2013, Q-Chem Inc. Pittsburgh 
 -------------------------------------------------------
 A unrestricted SCF calculation will be
 performed using DIIS
 SCF converges when DIIS error is below 1.0e-06
 Alpha HF Exchange    Energy =  -4.35340204536995
 Beta HF Exchange     Energy =  -4.35340204536995
 DFT Correlation      Energy =  -1.87489244871868
 DFT Exchange         Energy = -34.00390101938845
 One-Electron (alpha) Energy = -520.63687906571886
 One-Electron (beta)  Energy = -520.63687906571886
 Total Coulomb        Energy = 398.80756647543501
 ---------------------------------------
  Cycle       Energy         DIIS error
 ---------------------------------------
    1    -517.7249476870      3.03e-02  
 Alpha HF Exchange    Energy =  -4.36445707032701
 Beta HF Exchange     Energy =  -4.36445707032702
 DFT Correlation      Energy =  -1.90362420580654
 DFT Exchange         Energy = -34.61908578535749
 One-Electron (alpha) Energy = -524.39730108067147
 One-Electron (beta)  Energy = -524.39730108067192
 Total Coulomb        Energy = 407.47574956052517
    2    -517.2436352048      3.87e-03  
 Alpha HF Exchange    Energy =  -4.30626596262274
 Beta HF Exchange     Energy =  -4.30626596262273
 DFT Correlation      Energy =  -1.87477524670264
 DFT Exchange         Energy = -34.12983197631933
 One-Electron (alpha) Energy = -520.33047968069820
 One-Electron (beta)  Energy = -520.33047968069775
 Total Coulomb        Energy = 398.73035036297938
    3    -517.2209066188      4.36e-03  
 Alpha HF Exchange    Energy =  -4.33493031174700
 Beta HF Exchange     Energy =  -4.33493031174700
 DFT Correlation      Energy =  -1.88994898811543
 DFT Exchange         Energy = -34.37069410795259
 One-Electron (alpha) Energy = -522.51556371528477
 One-Electron (beta)  Energy = -522.51556371528488
 Total Coulomb        Energy = 403.30262053245713
    4    -517.3321690898      4.58e-04  
 Alpha HF Exchange    Energy =  -4.33530553464806
 Beta HF Exchange     Energy =  -4.33530553464805
 DFT Correlation      Energy =  -1.88977703837023
 DFT Exchange         Energy = -34.37279676503742
 One-Electron (alpha) Energy = -522.49703718943681
 One-Electron (beta)  Energy = -522.49703718943670
 Total Coulomb        Energy = 403.26715980541792
    5    -517.3332579183      1.71e-04  
 Alpha HF Exchange    Energy =  -4.33524602633447
 Beta HF Exchange     Energy =  -4.33524602633448
 DFT Correlation      Energy =  -1.88978866585282
 DFT Exchange         Energy = -34.37251165713262
 One-Electron (alpha) Energy = -522.49688629435218
 One-Electron (beta)  Energy = -522.49688629435241
 Total Coulomb        Energy = 403.26631130040698
    6    -517.3334121361      2.73e-05  
 Alpha HF Exchange    Energy =  -4.33518621607180
 Beta HF Exchange     Energy =  -4.33518621607180
 DFT Correlation      Energy =  -1.88976963322814
 DFT Exchange         Energy = -34.37200292577393
 One-Electron (alpha) Energy = -522.49138064532497
 One-Electron (beta)  Energy = -522.49138064532497
 Total Coulomb        Energy = 403.25464890882358
    7    -517.3334158451      6.78e-06  
 Alpha HF Exchange    Energy =  -4.33522002230864
 Beta HF Exchange     Energy =  -4.33522002230864
 DFT Correlation      Energy =  -1.88978352085007
 DFT Exchange         Energy = -34.37226969130582
 One-Electron (alpha) Energy = -522.49528840438029
 One-Electron (beta)  Energy = -522.49528840438040
 Total Coulomb        Energy = 403.26281238363453
    8    -517.3334161540      1.51e-06  
 Alpha HF Exchange    Energy =  -4.33521509361607
 Beta HF Exchange     Energy =  -4.33521509361607
 DFT Correlation      Energy =  -1.88978146411617
 DFT Exchange         Energy = -34.37222953865919
 One-Electron (alpha) Energy = -522.49462575052951
 One-Electron (beta)  Energy = -522.49462575052962
 Total Coulomb        Energy = 403.26143499389906
    9    -517.3334161693      2.50e-07  Convergence criterion met
 ---------------------------------------
 SCF time:   CPU 22.13s  wall 2.00s 
<S^2> =         -0.000000000
 Alpha HF Exchange    Energy =  -4.33521509361607
 Beta HF Exchange     Energy =  -4.33521509361607
 DFT Correlation      Energy =  -1.88978146411617
 DFT Exchange         Energy = -34.37222953865919
 One-Electron (alpha) Energy = -522.49462575052951
 One-Electron (beta)  Energy = -522.49462575052962
 Total Coulomb        Energy = 403.26143499389906
 Nuclear repulsion Energy = 169.32684152788158
 SCF   energy in the final basis set =     -517.3334161693
 Total energy in the final basis set =     -517.3334161693
 
 --------------------------------------------------------------
 
                    Orbital Energies (a.u.)
 --------------------------------------------------------------
 
 Alpha MOs
 -- Occupied --
-88.876 -10.227 -10.184 -10.184  -7.936  -5.901  -5.897  -5.890
 -0.817  -0.694  -0.692  -0.576  -0.464  -0.440  -0.417  -0.392
 -0.382  -0.351  -0.349  -0.311  -0.232
 -- Virtual --
  0.007   0.059   0.096   0.133   0.147   0.153   0.171   0.184
  0.188   0.210   0.232   0.353   0.370   0.399   0.407   0.499
  0.499   0.533   0.555   0.588   0.663   0.689   0.717   0.742
  0.748   0.807   0.836   0.853   0.854   0.878   0.889   0.914
  0.953   0.955   0.972   0.986   1.043   1.150   1.325   1.373
  1.385   1.548   1.552   1.723   1.777   1.831   1.852   1.893
  2.040   2.041   2.044   2.053   2.070   2.104   2.105   2.108
  2.125   2.267   2.313   2.340   2.380   2.518   2.546   2.560
  2.626   2.658   2.711   2.729   2.860   2.868   2.893   2.900
  3.163   3.215   3.318   3.415   3.447   3.465   3.499   3.977
  4.289   4.483   4.602
 
 Beta MOs
 -- Occupied --
-88.876 -10.227 -10.184 -10.184  -7.936  -5.901  -5.897  -5.890
 -0.817  -0.694  -0.692  -0.576  -0.464  -0.440  -0.417  -0.392
 -0.382  -0.351  -0.349  -0.311  -0.232
 -- Virtual --
  0.007   0.059   0.096   0.133   0.147   0.153   0.171   0.184
  0.188   0.210   0.232   0.353   0.370   0.399   0.407   0.499
  0.499   0.533   0.555   0.588   0.663   0.689   0.717   0.742
  0.748   0.807   0.836   0.853   0.854   0.878   0.889   0.914
  0.953   0.955   0.972   0.986   1.043   1.150   1.325   1.373
  1.385   1.548   1.552   1.723   1.777   1.831   1.852   1.893
  2.040   2.041   2.044   2.053   2.070   2.104   2.105   2.108
  2.125   2.267   2.313   2.340   2.380   2.518   2.546   2.560
  2.626   2.658   2.711   2.729   2.860   2.868   2.893   2.900
  3.163   3.215   3.318   3.415   3.447   3.465   3.499   3.977
  4.289   4.483   4.602
 --------------------------------------------------------------
 
          Ground-State Mulliken Net Atomic Charges

     Atom                 Charge (a.u.)    Spin (a.u.)
  --------------------------------------------------------
      1 S                    -0.047968       0.000000
      2 C                    -0.215303       0.000000
      3 C                    -0.294444      -0.000000
      4 C                    -0.294436      -0.000000
      5 H                     0.137855      -0.000000
      6 H                     0.103852       0.000000
      7 H                     0.121282       0.000000
      8 H                     0.106344       0.000000
      9 H                     0.103855      -0.000000
     10 H                     0.121279      -0.000000
     11 H                     0.106352       0.000000
     12 H                     0.051332       0.000000
  --------------------------------------------------------
  Sum of atomic charges =    -0.000000
  Sum of spin   charges =     0.000000

 -----------------------------------------------------------------
                    Cartesian Multipole Moments
 -----------------------------------------------------------------
    Charge (ESU x 10^10)
                 0.0000
    Dipole Moment (Debye)
         X      -1.7727      Y       0.0003      Z       0.3178
       Tot       1.8010
    Quadrupole Moments (Debye-Ang)
        XX     -37.5594     XY       0.0001     YY     -35.4435
        XZ       1.4230     YZ      -0.0002     ZZ     -31.5651
    Octopole Moments (Debye-Ang^2)
       XXX     -36.8286    XXY       0.0011    XYY     -12.9099
       YYY       0.0040    XXZ       0.6509    XYZ      -0.0007
       YYZ      -2.4107    XZZ      -7.1654    YZZ       0.0003
       ZZZ      -3.2335
    Hexadecapole Moments (Debye-Ang^3)
      XXXX    -352.8389   XXXY       0.0033   XXYY    -101.2416
      XYYY       0.0109   YYYY    -211.0412   XXXZ       3.3937
      XXYZ      -0.0010   XYYZ      -1.9321   YYYZ       0.0013
      XXZZ     -66.9310   XYZZ       0.0019   YYZZ     -49.1577
      XZZZ      -2.4619   YZZZ      -0.0001   ZZZZ     -71.6068
 -----------------------------------------------------------------
 Calculating analytic gradient of the SCF energy
 Gradient of SCF Energy
            1           2           3           4           5           6
    1  -0.0029949   0.0081816   0.0035694   0.0035787  -0.0050427   0.0007047
    2  -0.0000007   0.0000484   0.0049808  -0.0050312   0.0000004  -0.0006433
    3  -0.0431874  -0.0112414   0.0040653   0.0040732   0.0006508  -0.0002232
            7           8           9          10          11          12
    1  -0.0004707  -0.0008473   0.0007104  -0.0004651  -0.0008509  -0.0060732
    2  -0.0008908  -0.0007069   0.0006460   0.0008932   0.0007042   0.0000000
    3  -0.0013070   0.0003019  -0.0002124  -0.0013068   0.0002611   0.0481259
 Max gradient component =       4.813E-02
 RMS gradient           =       1.126E-02
 Gradient time:  CPU 8.27 s  wall 0.69 s
 Geometry Optimization Parameters
   NAtoms,    NIC,     NZ,  NCons,   NDum,   NFix, NCnnct, MaxDiis
       12      75       0       1       0       0       0       0

 Cartesian Hessian Update
 Hessian Updated using BFGS Update


** CONSTRAINED OPTIMIZATION IN DELOCALIZED INTERNAL COORDINATES **
   Searching for a Minimum

   Optimization Cycle:   2

                       Coordinates (Angstroms)
     ATOM                X               Y               Z
      1  S         1.6778147968   -0.0002236160    0.0568399910
      2  C        -0.1025548884    0.0000797405   -0.3920184121
      3  C        -0.7843102408   -1.2629414957    0.1326347852
      4  C        -0.7839193105    1.2631629856    0.1326513794
      5  H        -0.1437707171    0.0000707551   -1.4861700892
      6  H        -1.8379390248   -1.2839480162   -0.1707041730
      7  H        -0.3100971222   -2.1666715508   -0.2632254877
      8  H        -0.7550330387   -1.3110411292    1.2268030293
      9  H        -1.8375479504    1.2845483586   -0.1706223156
     10  H        -0.3094202696    2.1667931836   -0.2631190526
     11  H        -0.7546512273    1.3111880834    1.2267633082
     12  H         1.4713289931   -0.0002172989    1.5325670371
   Point Group: c1    Number of degrees of freedom:    30


   Energy is   -517.333416169

              Constraints and their Current Values
                                        Value     Constraint
   Distance(Angs):        1  12             1.490103     3.700000
 Hessian Updated using BFGS Update
**WARNING** Constraint Gradient Reduced for constraint   1

   Using Lagrange Multiplier Algorithm


 25 Hessian modes will be used to form the next step
  Hessian Eigenvalues:
    -0.908383    0.107062    0.107063    0.179850    0.185656    0.194820
     0.194856    0.198420    0.198489    0.225797    0.380415    0.380898
     0.424929    0.484528    0.576119    0.713246    0.713646    0.811935
     0.812216    0.812724    0.812775    0.812851    0.812918    0.814369
     1.103140

 Minimum Search - Taking P-RFO Step
 Searching for Lamda that Maximizes Along the Constraint modes Only
 Value Taken    Lamda =   0.02261399
 Searching for Lamda that Minimizes Along All other modes
 Value Taken    Lamda =  -0.07134861
 Step Taken.  Stepsize is  0.295009

                             Maximum     Tolerance    Cnvgd?
         Gradient            0.300000       0.000300      NO
         Displacement        0.285531       0.001200      NO
         Energy change      0.006337       0.000001      NO


 New Cartesian Coordinates Obtained by Inverse Iteration

 Displacement from previous Coordinates is:  0.233344
 ----------------------------------------------------------------
             Standard Nuclear Orientation (Angstroms)
    I     Atom           X                Y                Z
 ----------------------------------------------------------------
    1      S       1.6966243060    -0.0002441305     0.0041698510
    2      C      -0.1074250489     0.0000551895    -0.3975636716
    3      C      -0.7906029642    -1.2665669040     0.1265774120
    4      C      -0.7902219089     1.2668129879     0.1266107957
    5      H      -0.1483973880     0.0000435273    -1.4922814210
    6      H      -1.8475899101    -1.2825002021    -0.1678368811
    7      H      -0.3193737967    -2.1693321777    -0.2717445869
    8      H      -0.7494543994    -1.3126075082     1.2200713188
    9      H      -1.8472094678     1.2831010537    -0.1677773385
   10      H      -0.3187173714     2.1694738442    -0.2716333652
   11      H      -0.7490854054     1.3127971393     1.2200967257
   12      H       1.5013533547    -0.0002328195     1.6337111612
 ----------------------------------------------------------------
 Nuclear Repulsion Energy =   167.9581779248 hartrees
 There are       21 alpha and       21 beta electrons

                       Distance Matrix (Angstroms)
             S (  1)   C (  2)   C (  3)   C (  4)   H (  5)   H (  6)
   C (  2)  1.848238
   C (  3)  2.793717  1.531596
   C (  4)  2.793713  1.531550  2.533380
   H (  5)  2.375599  1.095484  2.153470  2.153475
   H (  6)  3.772959  2.173913  1.097340  2.775558  2.507255
   H (  7)  2.974108  2.183345  1.093482  3.491057  2.495022  1.769947
   H (  8)  3.030514  2.179915  1.095236  2.801915  3.072650  1.770056
   H (  9)  3.772969  2.173904  2.775584  1.097339  2.507291  2.565601
   H ( 10)  2.974113  2.183319  3.491078  1.093486  2.495079  3.776817
   H ( 11)  3.030520  2.179873  2.801897  1.095225  3.072644  3.141439
   H ( 12)  1.641199  2.591186  3.021278  3.021270  3.534616  4.013129
             H (  7)   H (  8)   H (  9)   H ( 10)   H ( 11)
   H (  8)  1.773263
   H (  9)  3.776822  3.141479
   H ( 10)  4.338806  3.812559  1.769952
   H ( 11)  3.812541  2.625405  1.770015  1.773237
   H ( 12)  3.413327  2.638098  4.013126  3.413301  2.638105
 
 Applying Cartesian multipole field
    Component          Value
    ---------          -----
     (2,0,0)        1.00000E-11
     (0,2,0)        2.00000E-11
     (0,0,2)       -3.00000E-10
 Nucleus-field energy     =    -0.0000000051 hartrees
 Requested basis set is 6-31G(d,p)
 There are 41 shells and 104 basis functions
 A cutoff of  1.0D-14 yielded    846 shell pairs
 There are      5535 function pairs
 Smallest overlap matrix eigenvalue = 5.93E-03
 Guess from superposition of atomic densities
 Warning:  Energy on first SCF cycle will be non-variational
 SAD guess density has 42.000000 electrons

 -----------------------------------------------------------------------
  General SCF calculation program by
  Eric Jon Sundstrom, Paul Horn, Yuezhi Mao, Dmitri Zuev, Alec White,
  David Stuck, Shaama M.S., Shane Yost, Joonho Lee, David Small,
  Daniel Levine, Susi Lehtola, Hugh Burton, Evgeny Epifanovsky
 -----------------------------------------------------------------------
 Exchange:     0.2000 Hartree-Fock + 0.0800 Slater + 0.7200 B88
 Correlation:  0.1900 VWN1RPA + 0.8100 LYP
 Using SG-1 standard quadrature grid
 using 12 threads for integral computing
 -------------------------------------------------------
 OpenMP Integral computing Module                
 Release: version 1.0, May 2013, Q-Chem Inc. Pittsburgh 
 -------------------------------------------------------
 -------------------------------------------------------
 OpenMP BLAS3 based DFT computing Module                
 Release: version 1.0, May 2013, Q-Chem Inc. Pittsburgh 
 -------------------------------------------------------
 A unrestricted SCF calculation will be
 performed using DIIS
 SCF converges when DIIS error is below 1.0e-06
 Alpha HF Exchange    Energy =  -4.34572830006626
 Beta HF Exchange     Energy =  -4.34572830006626
 DFT Correlation      Energy =  -1.87261496177478
 DFT Exchange         Energy = -33.98691816222291
 One-Electron (alpha) Energy = -519.30090647250620
 One-Electron (beta)  Energy = -519.30090647250620
 Total Coulomb        Energy = 397.54199321433640
 ---------------------------------------
  Cycle       Energy         DIIS error
 ---------------------------------------
    1    -517.6526315351      2.97e-02  
 Alpha HF Exchange    Energy =  -4.35958495188885
 Beta HF Exchange     Energy =  -4.35958495188884
 DFT Correlation      Energy =  -1.90133173473149
 DFT Exchange         Energy = -34.58715902821967
 One-Electron (alpha) Energy = -523.04296511634288
 One-Electron (beta)  Energy = -523.04296511634288
 Total Coulomb        Energy = 406.11106529666171
    2    -517.2243476830      3.89e-03  
 Alpha HF Exchange    Energy =  -4.30064635011220
 Beta HF Exchange     Energy =  -4.30064635011220
 DFT Correlation      Energy =  -1.87169893735318
 DFT Exchange         Energy = -34.09294309525547
 One-Electron (alpha) Energy = -518.82101344209718
 One-Electron (beta)  Energy = -518.82101344209718
 Total Coulomb        Energy = 397.05097653335270
    3    -517.1988071640      4.41e-03  
 Alpha HF Exchange    Energy =  -4.33046399263285
 Beta HF Exchange     Energy =  -4.33046399263285
 DFT Correlation      Energy =  -1.88757801772065
 DFT Exchange         Energy = -34.34265022870203
 One-Electron (alpha) Energy = -521.16818879523896
 One-Electron (beta)  Energy = -521.16818879523919
 Total Coulomb        Energy = 401.95399261100033
    4    -517.3153632915      4.49e-04  
 Alpha HF Exchange    Energy =  -4.33045656430212
 Beta HF Exchange     Energy =  -4.33045656430212
 DFT Correlation      Energy =  -1.88726452255108
 DFT Exchange         Energy = -34.34169746425192
 One-Electron (alpha) Energy = -521.10909744372304
 One-Electron (beta)  Energy = -521.10909744372316
 Total Coulomb        Energy = 401.83353218626451
    5    -517.3163598969      1.85e-04  
 Alpha HF Exchange    Energy =  -4.33039825216272
 Beta HF Exchange     Energy =  -4.33039825216273
 DFT Correlation      Energy =  -1.88727507169579
 DFT Exchange         Energy = -34.34143406171777
 One-Electron (alpha) Energy = -521.10837112097965
 One-Electron (beta)  Energy = -521.10837112098000
 Total Coulomb        Energy = 401.83152794239811
    6    -517.3165420176      2.39e-05  
 Alpha HF Exchange    Energy =  -4.33042380247836
 Beta HF Exchange     Energy =  -4.33042380247837
 DFT Correlation      Energy =  -1.88729194650036
 DFT Exchange         Energy = -34.34159951929743
 One-Electron (alpha) Energy = -521.11300014769097
 One-Electron (beta)  Energy = -521.11300014769120
 Total Coulomb        Energy = 401.84101626138727
    7    -517.3165451850      3.00e-06  
 Alpha HF Exchange    Energy =  -4.33041548433056
 Beta HF Exchange     Energy =  -4.33041548433057
 DFT Correlation      Energy =  -1.88728842747588
 DFT Exchange         Energy = -34.34153226418778
 One-Electron (alpha) Energy = -521.11183960272774
 One-Electron (beta)  Energy = -521.11183960272808
 Total Coulomb        Energy = 401.83860771390442
    8    -517.3165452322      1.28e-06  
 Alpha HF Exchange    Energy =  -4.33042218883779
 Beta HF Exchange     Energy =  -4.33042218883779
 DFT Correlation      Energy =  -1.88729122572844
 DFT Exchange         Energy = -34.34158423465121
 One-Electron (alpha) Energy = -521.11260532432493
 One-Electron (beta)  Energy = -521.11260532432516
 Total Coulomb        Energy = 401.84020732400393
    9    -517.3165452430      4.07e-07  Convergence criterion met
 ---------------------------------------
 SCF time:   CPU 22.12s  wall 2.00s 
<S^2> =         -0.000000000
 Alpha HF Exchange    Energy =  -4.33042218883779
 Beta HF Exchange     Energy =  -4.33042218883779
 DFT Correlation      Energy =  -1.88729122572844
 DFT Exchange         Energy = -34.34158423465121
 One-Electron (alpha) Energy = -521.11260532432493
 One-Electron (beta)  Energy = -521.11260532432516
 Total Coulomb        Energy = 401.84020732400393
 Nuclear repulsion Energy = 167.95817791970501
 SCF   energy in the final basis set =     -517.3165452430
 Total energy in the final basis set =     -517.3165452430
 
 --------------------------------------------------------------
 
                    Orbital Energies (a.u.)
 --------------------------------------------------------------
 
 Alpha MOs
 -- Occupied --
-88.883 -10.229 -10.184 -10.184  -7.942  -5.907  -5.904  -5.896
 -0.814  -0.692  -0.689  -0.573  -0.463  -0.437  -0.416  -0.392
 -0.373  -0.352  -0.344  -0.312  -0.233
 -- Virtual --
 -0.027   0.052   0.095   0.134   0.147   0.153   0.170   0.184
  0.188   0.209   0.231   0.351   0.376   0.405   0.408   0.499
  0.500   0.532   0.556   0.588   0.663   0.687   0.711   0.743
  0.760   0.810   0.836   0.841   0.853   0.879   0.889   0.910
  0.945   0.953   0.961   0.971   0.999   1.141   1.322   1.378
  1.385   1.547   1.551   1.716   1.776   1.827   1.852   1.888
  2.031   2.040   2.042   2.043   2.066   2.092   2.102   2.105
  2.115   2.265   2.315   2.341   2.374   2.389   2.523   2.558
  2.620   2.657   2.708   2.725   2.861   2.867   2.893   2.897
  3.164   3.215   3.314   3.416   3.446   3.462   3.499   3.944
  4.284   4.482   4.599
 
 Beta MOs
 -- Occupied --
-88.883 -10.229 -10.184 -10.184  -7.942  -5.907  -5.904  -5.896
 -0.814  -0.692  -0.689  -0.573  -0.463  -0.437  -0.416  -0.392
 -0.373  -0.352  -0.344  -0.312  -0.233
 -- Virtual --
 -0.027   0.052   0.095   0.134   0.147   0.153   0.170   0.184
  0.188   0.209   0.231   0.351   0.376   0.405   0.408   0.499
  0.500   0.532   0.556   0.588   0.663   0.687   0.711   0.743
  0.760   0.810   0.836   0.841   0.853   0.879   0.889   0.910
  0.945   0.953   0.961   0.971   0.999   1.141   1.322   1.378
  1.385   1.547   1.551   1.716   1.776   1.827   1.852   1.888
  2.031   2.040   2.042   2.043   2.066   2.092   2.102   2.105
  2.115   2.265   2.315   2.341   2.374   2.389   2.523   2.558
  2.620   2.657   2.708   2.725   2.861   2.867   2.893   2.897
  3.164   3.215   3.314   3.416   3.446   3.462   3.499   3.944
  4.284   4.482   4.599
 --------------------------------------------------------------
 
          Ground-State Mulliken Net Atomic Charges

     Atom                 Charge (a.u.)    Spin (a.u.)
  --------------------------------------------------------
      1 S                    -0.050008      -0.000000
      2 C                    -0.215820      -0.000000
      3 C                    -0.293116      -0.000000
      4 C                    -0.293113       0.000000
      5 H                     0.137798       0.000000
      6 H                     0.104611      -0.000000
      7 H                     0.121416       0.000000
      8 H                     0.107841       0.000000
      9 H                     0.104613      -0.000000
     10 H                     0.121416      -0.000000
     11 H                     0.107842      -0.000000
     12 H                     0.046521       0.000000
  --------------------------------------------------------
  Sum of atomic charges =    -0.000000
  Sum of spin   charges =     0.000000

 -----------------------------------------------------------------
                    Cartesian Multipole Moments
 -----------------------------------------------------------------
    Charge (ESU x 10^10)
                 0.0000
    Dipole Moment (Debye)
         X      -1.7782      Y       0.0003      Z       0.2336
       Tot       1.7935
    Quadrupole Moments (Debye-Ang)
        XX     -37.5136     XY       0.0001     YY     -35.5390
        XZ       1.2721     YZ      -0.0002     ZZ     -31.7326
    Octopole Moments (Debye-Ang^2)
       XXX     -37.5189    XXY       0.0012    XYY     -13.3332
       YYY       0.0049    XXZ       0.8829    XYZ      -0.0006
       YYZ      -1.8559    XZZ      -7.5473    YZZ       0.0006
       ZZZ      -1.5291
    Hexadecapole Moments (Debye-Ang^3)
      XXXX    -358.9677   XXXY       0.0063   XXYY    -102.7428
      XYYY       0.0138   YYYY    -211.5632   XXXZ       4.4875
      XXYZ      -0.0014   XYYZ      -1.2410   YYYZ      -0.0000
      XXZZ     -69.1382   XYZZ       0.0028   YYZZ     -49.9098
      XZZZ      -0.5110   YZZZ      -0.0010   ZZZZ     -73.9894
 -----------------------------------------------------------------
 Calculating analytic gradient of the SCF energy
 Gradient of SCF Energy
            1           2           3           4           5           6
    1   0.0057018   0.0056147   0.0015786   0.0015836  -0.0038375  -0.0000830
    2  -0.0000019   0.0000205   0.0021186  -0.0021407  -0.0000021  -0.0007210
    3  -0.0662884  -0.0093180   0.0032577   0.0032544   0.0010147  -0.0001800
            7           8           9          10          11          12
    1  -0.0005695  -0.0005386  -0.0000824  -0.0005675  -0.0005410  -0.0082592
    2  -0.0003742  -0.0003991   0.0007226   0.0003763   0.0004006   0.0000004
    3  -0.0008003   0.0000281  -0.0001751  -0.0007989   0.0000195   0.0699863
 Max gradient component =       6.999E-02
 RMS gradient           =       1.630E-02
 Gradient time:  CPU 8.16 s  wall 0.68 s
 Geometry Optimization Parameters
   NAtoms,    NIC,     NZ,  NCons,   NDum,   NFix, NCnnct, MaxDiis
       12      75       0       1       0       0       0       0

 Cartesian Hessian Update
 Hessian Updated using BFGS Update


** CONSTRAINED OPTIMIZATION IN DELOCALIZED INTERNAL COORDINATES **
   Searching for a Minimum

   Optimization Cycle:   3

                       Coordinates (Angstroms)
     ATOM                X               Y               Z
      1  S         1.6966243060   -0.0002441305    0.0041698510
      2  C        -0.1074250489    0.0000551895   -0.3975636716
      3  C        -0.7906029642   -1.2665669040    0.1265774120
      4  C        -0.7902219089    1.2668129879    0.1266107957
      5  H        -0.1483973880    0.0000435273   -1.4922814210
      6  H        -1.8475899101   -1.2825002021   -0.1678368811
      7  H        -0.3193737967   -2.1693321777   -0.2717445869
      8  H        -0.7494543994   -1.3126075082    1.2200713188
      9  H        -1.8472094678    1.2831010537   -0.1677773385
     10  H        -0.3187173714    2.1694738442   -0.2716333652
     11  H        -0.7490854054    1.3127971393    1.2200967257
     12  H         1.5013533547   -0.0002328195    1.6337111612
   Point Group: c1    Number of degrees of freedom:    30


   Energy is   -517.316545243

              Constraints and their Current Values
                                        Value     Constraint
   Distance(Angs):        1  12             1.641199     3.700000
 Hessian Updated using BFGS Update
**WARNING** Constraint Gradient Reduced for constraint   1

   Using Lagrange Multiplier Algorithm


 27 Hessian modes will be used to form the next step
  Hessian Eigenvalues:
    -0.957535    0.107062    0.107063    0.107063    0.180052    0.185526
     0.194828    0.194856    0.198412    0.198489    0.225797    0.380307
     0.380674    0.381173    0.424929    0.484855    0.578752    0.713451
     0.715046    0.811942    0.812221    0.812756    0.812803    0.812900
     0.812918    0.814393    1.047230

 Minimum Search - Taking P-RFO Step
 Searching for Lamda that Maximizes Along the Constraint modes Only
 Value Taken    Lamda =   0.03561658
 Searching for Lamda that Minimizes Along All other modes
 Value Taken    Lamda =  -0.05238677
 Step Taken.  Stepsize is  0.295733

                             Maximum     Tolerance    Cnvgd?
         Gradient            0.300000       0.000300      NO
         Displacement        0.287179       0.001200      NO
         Energy change      0.016871       0.000001      NO


 New Cartesian Coordinates Obtained by Inverse Iteration

 Displacement from previous Coordinates is:  0.234200
 ----------------------------------------------------------------
             Standard Nuclear Orientation (Angstroms)
    I     Atom           X                Y                Z
 ----------------------------------------------------------------
    1      S       1.7072498389    -0.0002518890    -0.0481808853
    2      C      -0.1146385291     0.0000355160    -0.4028802130
    3      C      -0.7963230352    -1.2693183665     0.1204802921
    4      C      -0.7959488591     1.2695834892     0.1205255071
    5      H      -0.1536276884     0.0000324332    -1.4989946455
    6      H      -1.8558300562    -1.2797263993    -0.1655293418
    7      H      -0.3267542750    -2.1706134383    -0.2804763691
    8      H      -0.7432325959    -1.3132238112     1.2133495831
    9      H      -1.8554557662     1.2803273487    -0.1654909774
   10      H      -0.3261065280     2.1707651714    -0.2803650358
   11      H      -0.7428664352     1.3134326913     1.2134189090
   12      H       1.5334339293    -0.0002427455     1.7365431766
 ----------------------------------------------------------------
 Nuclear Repulsion Energy =   166.9445357279 hartrees
 There are       21 alpha and       21 beta electrons

                       Distance Matrix (Angstroms)
             S (  1)   C (  2)   C (  3)   C (  4)   H (  5)   H (  6)
   C (  2)  1.856095
   C (  3)  2.811913  1.532925
   C (  4)  2.811929  1.532935  2.538902
   H (  5)  2.359603  1.096808  2.155692  2.155732
   H (  6)  3.787659  2.173908  1.097481  2.775636  2.512649
   H (  7)  2.983555  2.184420  1.092517  3.495125  2.495288  1.773405
   H (  8)  3.052903  2.175311  1.095039  2.804984  3.070682  1.772090
   H (  9)  3.787680  2.173924  2.775650  1.097486  2.512689  2.560054
   H ( 10)  2.983582  2.184444  3.495133  1.092517  2.495373  3.776127
   H ( 11)  3.052945  2.175340  2.804991  1.095060  3.070734  3.140806
   H ( 12)  1.793168  2.700606  3.106442  3.106444  3.648956  4.091707
             H (  7)   H (  8)   H (  9)   H ( 10)   H ( 11)
   H (  8)  1.772029
   H (  9)  3.776128  3.140820
   H ( 10)  4.341379  3.813575  1.773410
   H ( 11)  3.813588  2.626657  1.772101  1.772032
   H ( 12)  3.498454  2.679713  4.091719  3.498440  2.679729
 
 Applying Cartesian multipole field
    Component          Value
    ---------          -----
     (2,0,0)        1.00000E-11
     (0,2,0)        2.00000E-11
     (0,0,2)       -3.00000E-10
 Nucleus-field energy     =    -0.0000000054 hartrees
 Requested basis set is 6-31G(d,p)
 There are 41 shells and 104 basis functions
 A cutoff of  1.0D-14 yielded    846 shell pairs
 There are      5535 function pairs
 Smallest overlap matrix eigenvalue = 5.99E-03
 Guess from superposition of atomic densities
 Warning:  Energy on first SCF cycle will be non-variational
 SAD guess density has 42.000000 electrons

 -----------------------------------------------------------------------
  General SCF calculation program by
  Eric Jon Sundstrom, Paul Horn, Yuezhi Mao, Dmitri Zuev, Alec White,
  David Stuck, Shaama M.S., Shane Yost, Joonho Lee, David Small,
  Daniel Levine, Susi Lehtola, Hugh Burton, Evgeny Epifanovsky
 -----------------------------------------------------------------------
 Exchange:     0.2000 Hartree-Fock + 0.0800 Slater + 0.7200 B88
 Correlation:  0.1900 VWN1RPA + 0.8100 LYP
 Using SG-1 standard quadrature grid
 using 12 threads for integral computing
 -------------------------------------------------------
 OpenMP Integral computing Module                
 Release: version 1.0, May 2013, Q-Chem Inc. Pittsburgh 
 -------------------------------------------------------
 -------------------------------------------------------
 OpenMP BLAS3 based DFT computing Module                
 Release: version 1.0, May 2013, Q-Chem Inc. Pittsburgh 
 -------------------------------------------------------
 A unrestricted SCF calculation will be
 performed using DIIS
 SCF converges when DIIS error is below 1.0e-06
 Alpha HF Exchange    Energy =  -4.34028475586227
 Beta HF Exchange     Energy =  -4.34028475586227
 DFT Correlation      Energy =  -1.87072621321377
 DFT Exchange         Energy = -33.97486749337659
 One-Electron (alpha) Energy = -518.30430693104779
 One-Electron (beta)  Energy = -518.30430693104779
 Total Coulomb        Energy = 396.58836177345415
 ---------------------------------------
  Cycle       Energy         DIIS error
 ---------------------------------------
    1    -517.6018795845      2.93e-02  
 Alpha HF Exchange    Energy =  -4.35602852390801
 Beta HF Exchange     Energy =  -4.35602852390801
 DFT Correlation      Energy =  -1.89962210283384
 DFT Exchange         Energy = -34.56536857059258
 One-Electron (alpha) Energy = -522.07097895312972
 One-Electron (beta)  Energy = -522.07097895312950
 Total Coulomb        Energy = 405.17427155010989
    2    -517.2001983550      3.91e-03  
 Alpha HF Exchange    Energy =  -4.29548963055496
 Beta HF Exchange     Energy =  -4.29548963055497
 DFT Correlation      Energy =  -1.86868422075121
 DFT Exchange         Energy = -34.05952440764064
 One-Electron (alpha) Energy = -517.55837328820530
 One-Electron (beta)  Energy = -517.55837328820530
 Total Coulomb        Energy = 395.52388564719485
    3    -517.1675130963      4.52e-03  
 Alpha HF Exchange    Energy =  -4.32721200706068
 Beta HF Exchange     Energy =  -4.32721200706067
 DFT Correlation      Energy =  -1.88577482059040
 DFT Exchange         Energy = -34.32408649711081
 One-Electron (alpha) Energy = -520.20673824817402
 One-Electron (beta)  Energy = -520.20673824817368
 Total Coulomb        Energy = 401.03882658265587
    4    -517.2943995231      4.64e-04  
 Alpha HF Exchange    Energy =  -4.32635627648626
 Beta HF Exchange     Energy =  -4.32635627648626
 DFT Correlation      Energy =  -1.88508001928968
 DFT Exchange         Energy = -34.31659687305175
 One-Electron (alpha) Energy = -520.03813657096669
 One-Electron (beta)  Energy = -520.03813657096646
 Total Coulomb        Energy = 400.69062332150992
    5    -517.2955035433      1.92e-04  
 Alpha HF Exchange    Energy =  -4.32658146484000
 Beta HF Exchange     Energy =  -4.32658146484000
 DFT Correlation      Energy =  -1.88520805146219
 DFT Exchange         Energy = -34.31853811598195
 One-Electron (alpha) Energy = -520.07117075793553
 One-Electron (beta)  Energy = -520.07117075793531
 Total Coulomb        Energy = 400.75901592103673
    6    -517.2956989695      2.40e-05  
 Alpha HF Exchange    Energy =  -4.32661005371791
 Beta HF Exchange     Energy =  -4.32661005371791
 DFT Correlation      Energy =  -1.88522853156098
 DFT Exchange         Energy = -34.31871359687426
 One-Electron (alpha) Energy = -520.07652635446993
 One-Electron (beta)  Energy = -520.07652635446993
 Total Coulomb        Energy = 400.76997711022273
    7    -517.2957021122      5.47e-06  
 Alpha HF Exchange    Energy =  -4.32658966766775
 Beta HF Exchange     Energy =  -4.32658966766775
 DFT Correlation      Energy =  -1.88522006442840
 DFT Exchange         Energy = -34.31855770851015
 One-Electron (alpha) Energy = -520.07384334434823
 One-Electron (beta)  Energy = -520.07384334434835
 Total Coulomb        Energy = 400.76440579051371
    8    -517.2957022840      2.49e-06  
 Alpha HF Exchange    Energy =  -4.32660010785598
 Beta HF Exchange     Energy =  -4.32660010785598
 DFT Correlation      Energy =  -1.88522445484163
 DFT Exchange         Energy = -34.31863656373032
 One-Electron (alpha) Energy = -520.07508139617266
 One-Electron (beta)  Energy = -520.07508139617244
 Total Coulomb        Energy = 400.76698597057577
    9    -517.2957023336      3.92e-07  Convergence criterion met
 ---------------------------------------
 SCF time:   CPU 20.67s  wall 2.00s 
<S^2> =          0.000000000
 Alpha HF Exchange    Energy =  -4.32660010785598
 Beta HF Exchange     Energy =  -4.32660010785598
 DFT Correlation      Energy =  -1.88522445484163
 DFT Exchange         Energy = -34.31863656373032
 One-Electron (alpha) Energy = -520.07508139617266
 One-Electron (beta)  Energy = -520.07508139617244
 Total Coulomb        Energy = 400.76698597057577
 Nuclear repulsion Energy = 166.94453572243549
 SCF   energy in the final basis set =     -517.2957023336
 Total energy in the final basis set =     -517.2957023336
 
 --------------------------------------------------------------
 
                    Orbital Energies (a.u.)
 --------------------------------------------------------------
 
 Alpha MOs
 -- Occupied --
-88.889 -10.231 -10.185 -10.185  -7.947  -5.913  -5.909  -5.901
 -0.813  -0.692  -0.686  -0.570  -0.463  -0.436  -0.416  -0.392
 -0.367  -0.353  -0.338  -0.312  -0.234
 -- Virtual --
 -0.059   0.048   0.094   0.134   0.148   0.153   0.169   0.184
  0.188   0.209   0.231   0.347   0.377   0.403   0.421   0.499
  0.500   0.531   0.557   0.588   0.662   0.688   0.710   0.743
  0.781   0.812   0.819   0.835   0.853   0.879   0.886   0.897
  0.929   0.953   0.956   0.971   0.990   1.134   1.319   1.382
  1.386   1.547   1.552   1.712   1.777   1.825   1.853   1.886
  2.022   2.039   2.040   2.041   2.062   2.082   2.099   2.103
  2.111   2.255   2.287   2.315   2.342   2.376   2.521   2.558
  2.618   2.656   2.704   2.721   2.862   2.866   2.893   2.896
  3.165   3.217   3.309   3.415   3.446   3.459   3.499   3.927
  4.281   4.481   4.597
 
 Beta MOs
 -- Occupied --
-88.889 -10.231 -10.185 -10.185  -7.947  -5.913  -5.909  -5.901
 -0.813  -0.692  -0.686  -0.570  -0.463  -0.436  -0.416  -0.392
 -0.367  -0.353  -0.338  -0.312  -0.234
 -- Virtual --
 -0.059   0.048   0.094   0.134   0.148   0.153   0.169   0.184
  0.188   0.209   0.231   0.347   0.377   0.403   0.421   0.499
  0.500   0.531   0.557   0.588   0.662   0.688   0.710   0.743
  0.781   0.812   0.819   0.835   0.853   0.879   0.886   0.897
  0.929   0.953   0.956   0.971   0.990   1.134   1.319   1.382
  1.386   1.547   1.552   1.712   1.777   1.825   1.853   1.886
  2.022   2.039   2.040   2.041   2.062   2.082   2.099   2.103
  2.111   2.255   2.287   2.315   2.342   2.376   2.521   2.558
  2.618   2.656   2.704   2.721   2.862   2.866   2.893   2.896
  3.165   3.217   3.309   3.415   3.446   3.459   3.499   3.927
  4.281   4.481   4.597
 --------------------------------------------------------------
 
          Ground-State Mulliken Net Atomic Charges

     Atom                 Charge (a.u.)    Spin (a.u.)
  --------------------------------------------------------
      1 S                    -0.050311       0.000000
      2 C                    -0.216357       0.000000
      3 C                    -0.292188      -0.000000
      4 C                    -0.292189      -0.000000
      5 H                     0.137992      -0.000000
      6 H                     0.105294       0.000000
      7 H                     0.121740      -0.000000
      8 H                     0.109612      -0.000000
      9 H                     0.105294       0.000000
     10 H                     0.121741       0.000000
     11 H                     0.109609       0.000000
     12 H                     0.039763      -0.000000
  --------------------------------------------------------
  Sum of atomic charges =    -0.000000
  Sum of spin   charges =    -0.000000

 -----------------------------------------------------------------
                    Cartesian Multipole Moments
 -----------------------------------------------------------------
    Charge (ESU x 10^10)
                 0.0000
    Dipole Moment (Debye)
         X      -1.8003      Y       0.0003      Z       0.1361
       Tot       1.8054
    Quadrupole Moments (Debye-Ang)
        XX     -37.4930     XY       0.0002     YY     -35.6020
        XZ       1.1007     YZ      -0.0001     ZZ     -31.8803
    Octopole Moments (Debye-Ang^2)
       XXX     -37.9414    XXY       0.0012    XYY     -13.5968
       YYY       0.0053    XXZ       1.0669    XYZ      -0.0004
       YYZ      -1.2970    XZZ      -7.8275    YZZ       0.0007
       ZZZ       0.1951
    Hexadecapole Moments (Debye-Ang^3)
      XXXX    -363.1844   XXXY       0.0080   XXYY    -103.8029
      XYYY       0.0155   YYYY    -211.7588   XXXZ       5.4011
      XXYZ      -0.0016   XYYZ      -0.5698   YYYZ      -0.0011
      XXZZ     -71.0724   XYZZ       0.0032   YYZZ     -50.7066
      XZZZ       1.5042   YZZZ      -0.0018   ZZZZ     -76.8293
 -----------------------------------------------------------------
 Calculating analytic gradient of the SCF energy
 Gradient of SCF Energy
            1           2           3           4           5           6
    1   0.0096058   0.0024484   0.0001289   0.0001296  -0.0024880  -0.0004360
    2  -0.0000019  -0.0000019  -0.0000087   0.0000103  -0.0000028  -0.0004900
    3  -0.0725988  -0.0068045   0.0023213   0.0023111   0.0010154  -0.0001658
            7           8           9          10          11          12
    1  -0.0005020  -0.0001988  -0.0004387  -0.0005025  -0.0001990  -0.0075476
    2   0.0000505  -0.0000920   0.0004903  -0.0000493   0.0000951   0.0000003
    3  -0.0003551  -0.0001414  -0.0001655  -0.0003531  -0.0001283   0.0750646
 Max gradient component =       7.506E-02
 RMS gradient           =       1.758E-02
 Gradient time:  CPU 8.50 s  wall 0.71 s
 Geometry Optimization Parameters
   NAtoms,    NIC,     NZ,  NCons,   NDum,   NFix, NCnnct, MaxDiis
       12      75       0       1       0       0       0       0

 Cartesian Hessian Update
 Hessian Updated using BFGS Update


** CONSTRAINED OPTIMIZATION IN DELOCALIZED INTERNAL COORDINATES **
   Searching for a Minimum

   Optimization Cycle:   4

                       Coordinates (Angstroms)
     ATOM                X               Y               Z
      1  S         1.7072498389   -0.0002518890   -0.0481808853
      2  C        -0.1146385291    0.0000355160   -0.4028802130
      3  C        -0.7963230352   -1.2693183665    0.1204802921
      4  C        -0.7959488591    1.2695834892    0.1205255071
      5  H        -0.1536276884    0.0000324332   -1.4989946455
      6  H        -1.8558300562   -1.2797263993   -0.1655293418
      7  H        -0.3267542750   -2.1706134383   -0.2804763691
      8  H        -0.7432325959   -1.3132238112    1.2133495831
      9  H        -1.8554557662    1.2803273487   -0.1654909774
     10  H        -0.3261065280    2.1707651714   -0.2803650358
     11  H        -0.7428664352    1.3134326913    1.2134189090
     12  H         1.5334339293   -0.0002427455    1.7365431766
   Point Group: c1    Number of degrees of freedom:    30


   Energy is   -517.295702334

              Constraints and their Current Values
                                        Value     Constraint
   Distance(Angs):        1  12             1.793168     3.700000
 Hessian Updated using BFGS Update
**WARNING** Constraint Gradient Reduced for constraint   1

   Using Lagrange Multiplier Algorithm


 28 Hessian modes will be used to form the next step
  Hessian Eigenvalues:
    -0.987047    0.107062    0.107063    0.107063    0.180146    0.187606
     0.194855    0.194924    0.198487    0.198566    0.225797    0.380555
     0.380670    0.380684    0.382033    0.424929    0.486183    0.589061
     0.713465    0.717717    0.811954    0.812229    0.812750    0.812795
     0.812915    0.813293    0.814315    1.015524

 Minimum Search - Taking P-RFO Step
 Searching for Lamda that Maximizes Along the Constraint modes Only
 Value Taken    Lamda =   0.03846677
 Searching for Lamda that Minimizes Along All other modes
 Value Taken    Lamda =  -0.04874740
 Step Taken.  Stepsize is  0.293812

                             Maximum     Tolerance    Cnvgd?
         Gradient            0.300000       0.000300      NO
         Displacement        0.287330       0.001200      NO
         Energy change      0.020843       0.000001      NO


 New Cartesian Coordinates Obtained by Inverse Iteration

 Displacement from previous Coordinates is:  0.236559
 ----------------------------------------------------------------
             Standard Nuclear Orientation (Angstroms)
    I     Atom           X                Y                Z
 ----------------------------------------------------------------
    1      S       1.7081461010    -0.0002475300    -0.0983500654
    2      C      -0.1237830102     0.0000244361    -0.4086959358
    3      C      -0.8008247049    -1.2712385402     0.1142003019
    4      C      -0.8004536702     1.2715139473     0.1142517248
    5      H      -0.1613663871     0.0000379883    -1.5067256354
    6      H      -1.8622636308    -1.2771950885    -0.1633396236
    7      H      -0.3320073973    -2.1706600489    -0.2902835824
    8      H      -0.7361147317    -1.3140913772     1.2064853089
    9      H      -1.8618899321     1.2777961789    -0.1633171528
   10      H      -0.3313564723     2.1708110099    -0.2901760833
   11      H      -0.7357446988     1.3142971736     1.2065711226
   12      H       1.5675585344    -0.0002481493     1.8417796206
 ----------------------------------------------------------------
 Nuclear Repulsion Energy =   166.3080170469 hartrees
 There are       21 alpha and       21 beta electrons

                       Distance Matrix (Angstroms)
             S (  1)   C (  2)   C (  3)   C (  4)   H (  5)   H (  6)
   C (  2)  1.858031
   C (  3)  2.820555  1.532291
   C (  4)  2.820576  1.532333  2.542753
   H (  5)  2.340641  1.098673  2.156954  2.157001
   H (  6)  3.792446  2.171130  1.097140  2.774962  2.515763
   H (  7)  2.984921  2.183861  1.091951  3.497378  2.494149  1.776536
   H (  8)  3.066462  2.170406  1.095039  2.807573  3.069004  1.773695
   H (  9)  3.792463  2.171158  2.774969  1.097147  2.515789  2.554991
   H ( 10)  2.984939  2.183907  3.497374  1.091947  2.494222  3.774720
   H ( 11)  3.066504  2.170460  2.807580  1.095070  3.069066  3.140308
   H ( 12)  1.945217  2.815187  3.195182  3.195186  3.768510  4.173102
             H (  7)   H (  8)   H (  9)   H ( 10)   H ( 11)
   H (  8)  1.771251
   H (  9)  3.774720  3.140320
   H ( 10)  4.341471  3.814232  1.776542
   H ( 11)  3.814250  2.628389  1.773733  1.771270
   H ( 12)  3.586744  2.727030  4.173120  3.586727  2.727036
 
 Applying Cartesian multipole field
    Component          Value
    ---------          -----
     (2,0,0)        1.00000E-11
     (0,2,0)        2.00000E-11
     (0,0,2)       -3.00000E-10
 Nucleus-field energy     =    -0.0000000060 hartrees
 Requested basis set is 6-31G(d,p)
 There are 41 shells and 104 basis functions
 A cutoff of  1.0D-14 yielded    844 shell pairs
 There are      5517 function pairs
 Smallest overlap matrix eigenvalue = 6.01E-03
 Guess from superposition of atomic densities
 Warning:  Energy on first SCF cycle will be non-variational
 SAD guess density has 42.000000 electrons

 -----------------------------------------------------------------------
  General SCF calculation program by
  Eric Jon Sundstrom, Paul Horn, Yuezhi Mao, Dmitri Zuev, Alec White,
  David Stuck, Shaama M.S., Shane Yost, Joonho Lee, David Small,
  Daniel Levine, Susi Lehtola, Hugh Burton, Evgeny Epifanovsky
 -----------------------------------------------------------------------
 Exchange:     0.2000 Hartree-Fock + 0.0800 Slater + 0.7200 B88
 Correlation:  0.1900 VWN1RPA + 0.8100 LYP
 Using SG-1 standard quadrature grid
 using 12 threads for integral computing
 -------------------------------------------------------
 OpenMP Integral computing Module                
 Release: version 1.0, May 2013, Q-Chem Inc. Pittsburgh 
 -------------------------------------------------------
 -------------------------------------------------------
 OpenMP BLAS3 based DFT computing Module                
 Release: version 1.0, May 2013, Q-Chem Inc. Pittsburgh 
 -------------------------------------------------------
 A unrestricted SCF calculation will be
 performed using DIIS
 SCF converges when DIIS error is below 1.0e-06
 Alpha HF Exchange    Energy =  -4.33694076513838
 Beta HF Exchange     Energy =  -4.33694076513838
 DFT Correlation      Energy =  -1.86926360640771
 DFT Exchange         Energy = -33.96732985274338
 One-Electron (alpha) Energy = -517.67511652101393
 One-Electron (beta)  Energy = -517.67511652101393
 Total Coulomb        Energy = 395.98110582653794
 ---------------------------------------
  Cycle       Energy         DIIS error
 ---------------------------------------
    1    -517.5715851639      2.92e-02  
 Alpha HF Exchange    Energy =  -4.35371654761339
 Beta HF Exchange     Energy =  -4.35371654761340
 DFT Correlation      Energy =  -1.89852074855872
 DFT Exchange         Energy = -34.55273287221969
 One-Electron (alpha) Energy = -521.50983248522516
 One-Electron (beta)  Energy = -521.50983248522527
 Total Coulomb        Energy = 404.69595553768784
    2    -517.1743791078      3.94e-03  
 Alpha HF Exchange    Energy =  -4.29090972604734
 Beta HF Exchange     Energy =  -4.29090972604734
 DFT Correlation      Energy =  -1.86572600526487
 DFT Exchange         Energy = -34.02927892542389
 One-Electron (alpha) Energy = -516.54780079846387
 One-Electron (beta)  Energy = -516.54780079846375
 Total Coulomb        Energy = 394.13863777036198
    3    -517.1257711684      4.72e-03  
 Alpha HF Exchange    Energy =  -4.32523695584973
 Beta HF Exchange     Energy =  -4.32523695584974
 DFT Correlation      Energy =  -1.88466107072850
 DFT Exchange         Energy = -34.31486463976967
 One-Electron (alpha) Energy = -519.68478236821966
 One-Electron (beta)  Energy = -519.68478236822045
 Total Coulomb        Energy = 400.63989257232515
    4    -517.2716547453      6.10e-04  
 Alpha HF Exchange    Energy =  -4.32297671699300
 Beta HF Exchange     Energy =  -4.32297671699299
 DFT Correlation      Energy =  -1.88325315671289
 DFT Exchange         Energy = -34.29693640745127
 One-Electron (alpha) Energy = -519.30982137233241
 One-Electron (beta)  Energy = -519.30982137233184
 Total Coulomb        Energy = 399.86371770700515
    5    -517.2740509948      2.27e-04  
 Alpha HF Exchange    Energy =  -4.32381454791784
 Beta HF Exchange     Energy =  -4.32381454791784
 DFT Correlation      Energy =  -1.88363863668317
 DFT Exchange         Energy = -34.30347652831732
 One-Electron (alpha) Energy = -519.42228879918559
 One-Electron (beta)  Energy = -519.42228879918525
 Total Coulomb        Energy = 400.09690444680388
    6    -517.2744003714      5.74e-05  
 Alpha HF Exchange    Energy =  -4.32363867084885
 Beta HF Exchange     Energy =  -4.32363867084886
 DFT Correlation      Energy =  -1.88357698366265
 DFT Exchange         Energy = -34.30214676477912
 One-Electron (alpha) Energy = -519.40112554494885
 One-Electron (beta)  Energy = -519.40112554494897
 Total Coulomb        Energy = 400.05281590370566
    7    -517.2744192354      2.61e-05  
 Alpha HF Exchange    Energy =  -4.32369865780960
 Beta HF Exchange     Energy =  -4.32369865780960
 DFT Correlation      Energy =  -1.88360608513958
 DFT Exchange         Energy = -34.30257321903315
 One-Electron (alpha) Energy = -519.40959215406986
 One-Electron (beta)  Energy = -519.40959215406940
 Total Coulomb        Energy = 400.07031963886118
    8    -517.2744242481      1.54e-06  
 Alpha HF Exchange    Energy =  -4.32370182924337
 Beta HF Exchange     Energy =  -4.32370182924337
 DFT Correlation      Energy =  -1.88360745408331
 DFT Exchange         Energy = -34.30259782167524
 One-Electron (alpha) Energy = -519.40985495541725
 One-Electron (beta)  Energy = -519.40985495541725
 Total Coulomb        Energy = 400.07087754140787
    9    -517.2744242627      4.57e-07  Convergence criterion met
 ---------------------------------------
 SCF time:   CPU 21.39s  wall 2.00s 
<S^2> =         -0.000000000
 Alpha HF Exchange    Energy =  -4.32370182924337
 Beta HF Exchange     Energy =  -4.32370182924337
 DFT Correlation      Energy =  -1.88360745408331
 DFT Exchange         Energy = -34.30259782167524
[...]
                                        Value     Constraint
   Distance(Angs):        1  12             3.700000     3.700000
 Hessian Updated using BFGS Update

 29 Hessian modes will be used to form the next step
  Hessian Eigenvalues:
     0.000296    0.001623    0.002326    0.018232    0.028601    0.046957
     0.051385    0.069356    0.080260    0.136305    0.159938    0.202038
     0.254731    0.273996    0.316993    0.365647    0.410615    0.489105
     0.499099    0.560607    0.679098    0.725563    0.789596    0.797409
     0.812025    1.150107    1.349551   18.557611   24.549783

 Minimum Search - Taking Simple RFO Step
 Searching for Lamda that Minimizes Along All modes
 Value Taken    Lamda =   0.00000000
 Step Taken.  Stepsize is  0.019573

                             Maximum     Tolerance    Cnvgd?
         Gradient           0.000313      0.000300      NO
         Displacement       0.012633      0.001200      NO
         Energy change     -0.000000      0.000001     YES


 New Cartesian Coordinates Obtained by Inverse Iteration

 Displacement from previous Coordinates is:  0.028775
 ----------------------------------------------------------------
             Standard Nuclear Orientation (Angstroms)
    I     Atom           X                Y                Z
 ----------------------------------------------------------------
    1      S       1.2721137601     0.3296844319     0.5431259932
    2      C      -0.2347134691     0.4310294496    -0.0933700842
    3      C      -1.1153228819    -0.7751281447    -0.2901769204
    4      C      -0.8417452657     1.7402711292    -0.5252499010
    5      H      -1.4103480983    -0.8579896614    -1.3445156638
    6      H      -2.0455012516    -0.6566455926     0.2814492947
    7      H      -0.6190083618    -1.6944298961     0.0188796289
    8      H       1.7322034364    -2.0923372525     2.1915574518
    9      H      -1.1041828962     1.6987118991    -1.5906928682
   10      H      -0.1645001017     2.5761865690    -0.3537641237
   11      H      -1.7807694656     1.9167503272     0.0157791655
   12      H       1.8416745954    -2.6153032589     2.7093780271
 ----------------------------------------------------------------
 Nuclear Repulsion Energy =   163.4097276053 hartrees
 There are       21 alpha and       21 beta electrons

                       Distance Matrix (Angstroms)
             S (  1)   C (  2)   C (  3)   C (  4)   H (  5)   H (  6)
   C (  2)  1.638880
   C (  3)  2.759503  1.506327
   C (  4)  2.756734  1.506360  2.541129
   H (  5)  3.488461  2.146870  1.097969  2.783067
   H (  6)  3.471007  2.145339  1.098192  2.800893  1.757191
   H (  7)  2.819258  2.162836  1.089477  3.484661  1.784572  1.783486
   H (  8)  2.965670  3.931544  4.000306  5.356785  4.889075  4.469986
   H (  9)  3.474796  2.145920  2.794879  1.098075  2.586709  3.152571
   H ( 10)  2.813369  2.162044  3.484167  1.089414  3.785141  3.793793
   H ( 11)  3.480944  2.146991  2.789738  1.098009  3.112362  2.600583
   H ( 12)  3.700000  4.631083  4.596456  6.052651  5.486151  4.984106
             H (  7)   H (  8)   H (  9)   H ( 10)   H ( 11)
   H (  8)  3.225997
   H (  9)  3.786757  6.059914
   H ( 10)  4.310871  5.645464  1.784085
   H ( 11)  3.793458  5.757410  1.756719  1.784305
   H ( 12)  3.760552  0.744053  6.766049  6.352885  6.396646
 
 Applying Cartesian multipole field
    Component          Value
    ---------          -----
     (2,0,0)        1.00000E-11
     (0,2,0)        2.00000E-11
     (0,0,2)       -3.00000E-10
 Nucleus-field energy     =    -0.0000000195 hartrees
 Requested basis set is 6-31G(d,p)
 There are 41 shells and 104 basis functions
 A cutoff of  1.0D-14 yielded    793 shell pairs
 There are      5260 function pairs
 Smallest overlap matrix eigenvalue = 6.95E-03
 Guess from superposition of atomic densities
 Warning:  Energy on first SCF cycle will be non-variational
 SAD guess density has 42.000000 electrons

 -----------------------------------------------------------------------
  General SCF calculation program by
  Eric Jon Sundstrom, Paul Horn, Yuezhi Mao, Dmitri Zuev, Alec White,
  David Stuck, Shaama M.S., Shane Yost, Joonho Lee, David Small,
  Daniel Levine, Susi Lehtola, Hugh Burton, Evgeny Epifanovsky
 -----------------------------------------------------------------------
 Exchange:     0.2000 Hartree-Fock + 0.0800 Slater + 0.7200 B88
 Correlation:  0.1900 VWN1RPA + 0.8100 LYP
 Using SG-1 standard quadrature grid
 using 12 threads for integral computing
 -------------------------------------------------------
 OpenMP Integral computing Module                
 Release: version 1.0, May 2013, Q-Chem Inc. Pittsburgh 
 -------------------------------------------------------
 -------------------------------------------------------
 OpenMP BLAS3 based DFT computing Module                
 Release: version 1.0, May 2013, Q-Chem Inc. Pittsburgh 
 -------------------------------------------------------
 A unrestricted SCF calculation will be
 performed using DIIS
 SCF converges when DIIS error is below 1.0e-06
 Alpha HF Exchange    Energy =  -4.33633927911426
 Beta HF Exchange     Energy =  -4.33633927911426
 DFT Correlation      Energy =  -1.86237866285613
 DFT Exchange         Energy = -33.97495755286677
 One-Electron (alpha) Energy = -514.68490176196372
 One-Electron (beta)  Energy = -514.68490176196372
 Total Coulomb        Energy = 392.88117411781963
 ---------------------------------------
  Cycle       Energy         DIIS error
 ---------------------------------------
    1    -517.5889165943      3.00e-02  
 Alpha HF Exchange    Energy =  -4.35764615094463
 Beta HF Exchange     Energy =  -4.35764615094464
 DFT Correlation      Energy =  -1.89077907938852
 DFT Exchange         Energy = -34.58052353773716
 One-Electron (alpha) Energy = -518.09201890124962
 One-Electron (beta)  Energy = -518.09201890124984
 Total Coulomb        Energy = 400.73572579511040
    2    -517.2251793406      3.52e-03  
 Alpha HF Exchange    Energy =  -4.30721034359576
 Beta HF Exchange     Energy =  -4.30721034359577
 DFT Correlation      Energy =  -1.86794257162142
 DFT Exchange         Energy = -34.15936381172816
 One-Electron (alpha) Energy = -514.98801382312536
 One-Electron (beta)  Energy = -514.98801382312547
 Total Coulomb        Energy = 393.97983871266990
    3    -517.2281884183      3.52e-03  
 Alpha HF Exchange    Energy =  -4.32930093299546
 Beta HF Exchange     Energy =  -4.32930093299546
 DFT Correlation      Energy =  -1.87886773617788
 DFT Exchange         Energy = -34.34316056132105
 One-Electron (alpha) Energy = -516.42901509429248
 One-Electron (beta)  Energy = -516.42901509429271
 Total Coulomb        Energy = 397.03191438437011
    4    -517.2970183819      2.90e-04  
 Alpha HF Exchange    Energy =  -4.33025840446796
 Beta HF Exchange     Energy =  -4.33025840446797
 DFT Correlation      Energy =  -1.87878826011672
 DFT Exchange         Energy = -34.34926658244019
 One-Electron (alpha) Energy = -516.51002389134112
 One-Electron (beta)  Energy = -516.51002389134123
 Total Coulomb        Energy = 397.20183297489666
    5    -517.2970588735      2.91e-04  
 Alpha HF Exchange    Energy =  -4.33020325280431
 Beta HF Exchange     Energy =  -4.33020325280432
 DFT Correlation      Energy =  -1.87899883892380
 DFT Exchange         Energy = -34.34999928263612
 One-Electron (alpha) Energy = -516.50765162700475
 One-Electron (beta)  Energy = -516.50765162700509
 Total Coulomb        Energy = 397.19738933808441
    6    -517.2975909573      6.43e-05  
 Alpha HF Exchange    Energy =  -4.32998673270794
 Beta HF Exchange     Energy =  -4.32998673270794
 DFT Correlation      Energy =  -1.87888138810501
 DFT Exchange         Energy = -34.34801780876303
 One-Electron (alpha) Energy = -516.48176786705358
 One-Electron (beta)  Energy = -516.48176786705358
 Total Coulomb        Energy = 397.14306699209840
    7    -517.2976138185      8.33e-06  
 Alpha HF Exchange    Energy =  -4.33002548851747
 Beta HF Exchange     Energy =  -4.33002548851747
 DFT Correlation      Energy =  -1.87889875667651
 DFT Exchange         Energy = -34.34833126179385
 One-Electron (alpha) Energy = -516.48667613723342
 One-Electron (beta)  Energy = -516.48667613723330
 Total Coulomb        Energy = 397.15329141629564
    8    -517.2976142679      8.51e-07  Convergence criterion met
 ---------------------------------------
 SCF time:   CPU 18.85s  wall 2.00s 
<S^2> =         -0.000000000
 Alpha HF Exchange    Energy =  -4.33002548851747
 Beta HF Exchange     Energy =  -4.33002548851747
 DFT Correlation      Energy =  -1.87889875667651
 DFT Exchange         Energy = -34.34833126179385
 One-Electron (alpha) Energy = -516.48667613723342
 One-Electron (beta)  Energy = -516.48667613723330
 Total Coulomb        Energy = 397.15329141629564
 Nuclear repulsion Energy = 163.40972758580060
 SCF   energy in the final basis set =     -517.2976142679
 Total energy in the final basis set =     -517.2976142679
 
 --------------------------------------------------------------
 
                    Orbital Energies (a.u.)
 --------------------------------------------------------------
 
 Alpha MOs
 -- Occupied --
-88.857 -10.269 -10.202 -10.202  -7.919  -5.883  -5.882  -5.874
 -0.835  -0.714  -0.707  -0.530  -0.456  -0.447  -0.444  -0.413
 -0.406  -0.378  -0.357  -0.285  -0.219
 -- Virtual --
 -0.073   0.078   0.094   0.118   0.144   0.149   0.157   0.168
  0.181   0.221   0.235   0.326   0.370   0.432   0.452   0.497
  0.500   0.547   0.578   0.595   0.653   0.668   0.695   0.702
  0.739   0.769   0.803   0.810   0.849   0.873   0.887   0.893
  0.905   0.938   0.940   1.069   1.086   1.148   1.245   1.292
  1.408   1.468   1.675   1.695   1.697   1.717   1.819   1.856
  1.867   1.904   2.016   2.023   2.031   2.048   2.082   2.085
  2.141   2.301   2.351   2.370   2.400   2.500   2.573   2.582
  2.636   2.636   2.689   2.689   2.802   2.848   2.887   2.924
  3.157   3.202   3.380   3.398   3.418   3.458   3.952   4.165
  4.172   4.468   4.526
 
 Beta MOs
 -- Occupied --
-88.857 -10.269 -10.202 -10.202  -7.919  -5.883  -5.882  -5.874
 -0.835  -0.714  -0.707  -0.530  -0.456  -0.447  -0.444  -0.413
 -0.406  -0.378  -0.357  -0.285  -0.219
 -- Virtual --
 -0.073   0.078   0.094   0.118   0.144   0.149   0.157   0.168
  0.181   0.221   0.235   0.326   0.370   0.432   0.452   0.497
  0.500   0.547   0.578   0.595   0.653   0.668   0.695   0.702
  0.739   0.769   0.803   0.810   0.849   0.873   0.887   0.893
  0.905   0.938   0.940   1.069   1.086   1.148   1.245   1.292
  1.408   1.468   1.675   1.695   1.697   1.717   1.819   1.856
  1.867   1.904   2.016   2.023   2.031   2.048   2.082   2.085
  2.141   2.301   2.351   2.370   2.400   2.500   2.573   2.582
  2.636   2.636   2.689   2.689   2.802   2.848   2.887   2.924
  3.157   3.202   3.380   3.398   3.418   3.458   3.952   4.165
  4.172   4.468   4.526
 --------------------------------------------------------------
 
          Ground-State Mulliken Net Atomic Charges

     Atom                 Charge (a.u.)    Spin (a.u.)
  --------------------------------------------------------
      1 S                    -0.125200      -0.000000
      2 C                    -0.012310      -0.000000
      3 C                    -0.335576       0.000000
      4 C                    -0.334995      -0.000000
      5 H                     0.131119      -0.000000
      6 H                     0.132857      -0.000000
      7 H                     0.147065      -0.000000
      8 H                     0.022695      -0.000000
      9 H                     0.131907       0.000000
     10 H                     0.145895       0.000000
     11 H                     0.131691       0.000000
     12 H                    -0.035148       0.000000
  --------------------------------------------------------
  Sum of atomic charges =    -0.000000
  Sum of spin   charges =    -0.000000

 -----------------------------------------------------------------
                    Cartesian Multipole Moments
 -----------------------------------------------------------------
    Charge (ESU x 10^10)
                 0.0000
    Dipole Moment (Debye)
         X      -2.9063      Y       0.3911      Z      -1.3635
       Tot       3.2340
    Quadrupole Moments (Debye-Ang)
        XX     -35.0921     XY      -0.7861     YY     -34.1204
        XZ      -0.6548     YZ      -0.1581     ZZ     -34.6581
    Octopole Moments (Debye-Ang^2)
       XXX     -15.6731    XXY      -8.6860    XYY      -7.8277
       YYY     -24.5373    XXZ      -5.8851    XYZ       0.3229
       YYZ      -6.8999    XZZ      -5.7730    YZZ      -8.2830
       ZZZ     -18.0289
    Hexadecapole Moments (Debye-Ang^3)
      XXXX    -307.7141   XXXY      22.0464   XXYY    -107.7729
      XYYY      21.6062   YYYY    -298.5959   XXXZ     -75.1342
      XXYZ      16.0082   XYYZ     -25.1073   YYYZ      40.6924
      XXZZ     -78.8041   XYZZ       7.3019   YYZZ     -77.2179
      XZZZ     -69.1493   YZZZ      42.2135   ZZZZ    -160.5594
 -----------------------------------------------------------------
 Calculating analytic gradient of the SCF energy
 Gradient of SCF Energy
            1           2           3           4           5           6
    1   0.0002091  -0.0000910  -0.0000851  -0.0000243   0.0000347  -0.0000103
    2  -0.0007821  -0.0000049  -0.0000287   0.0000702   0.0000112   0.0000469
    3   0.0005560   0.0000058   0.0000045   0.0000665  -0.0000157  -0.0000051
            7           8           9          10          11          12
    1   0.0000212   0.0000448  -0.0000003   0.0000051   0.0000812  -0.0001851
    2  -0.0000047  -0.0000520   0.0000083  -0.0000270  -0.0000412   0.0008040
    3   0.0000008   0.0000068  -0.0000162  -0.0000148  -0.0000409  -0.0005476
 Max gradient component =       8.040E-04
 RMS gradient           =       2.352E-04
 Gradient time:  CPU 8.29 s  wall 0.74 s
 Geometry Optimization Parameters
   NAtoms,    NIC,     NZ,  NCons,   NDum,   NFix, NCnnct, MaxDiis
       12      75       0       1       0       0       0       0

 Cartesian Hessian Update
 Hessian Updated using BFGS Update


** CONSTRAINED OPTIMIZATION IN DELOCALIZED INTERNAL COORDINATES **
   Searching for a Minimum

   Optimization Cycle: 138

                       Coordinates (Angstroms)
     ATOM                X               Y               Z
      1  S         1.2721137601    0.3296844319    0.5431259932
      2  C        -0.2347134691    0.4310294496   -0.0933700842
      3  C        -1.1153228819   -0.7751281447   -0.2901769204
      4  C        -0.8417452657    1.7402711292   -0.5252499010
      5  H        -1.4103480983   -0.8579896614   -1.3445156638
      6  H        -2.0455012516   -0.6566455926    0.2814492947
      7  H        -0.6190083618   -1.6944298961    0.0188796289
      8  H         1.7322034364   -2.0923372525    2.1915574518
      9  H        -1.1041828962    1.6987118991   -1.5906928682
     10  H        -0.1645001017    2.5761865690   -0.3537641237
     11  H        -1.7807694656    1.9167503272    0.0157791655
     12  H         1.8416745954   -2.6153032589    2.7093780271
   Point Group: c1    Number of degrees of freedom:    30


   Energy is   -517.297614268

              Constraints and their Current Values
                                        Value     Constraint
   Distance(Angs):        1  12             3.700000     3.700000
 Hessian Updated using BFGS Update

 29 Hessian modes will be used to form the next step
  Hessian Eigenvalues:
     0.000241    0.001638    0.002301    0.017768    0.028370    0.046716
     0.051150    0.068380    0.078963    0.133769    0.157085    0.205012
     0.259313    0.271035    0.320844    0.366264    0.409526    0.488239
     0.507364    0.563845    0.627864    0.719970    0.789605    0.797133
     0.811948    1.029566    1.204053   18.843237   24.684726

 Minimum Search - Taking Simple RFO Step
 Searching for Lamda that Minimizes Along All modes
 Value Taken    Lamda =   0.00000000
 Step Taken.  Stepsize is  0.017425

                             Maximum     Tolerance    Cnvgd?
         Gradient           0.000138      0.000300     YES
         Displacement       0.011634      0.001200      NO
         Energy change     -0.000000      0.000001     YES


                       Distance Matrix (Angstroms)
             S (  1)   C (  2)   C (  3)   C (  4)   H (  5)   H (  6)
   C (  2)  1.638880
   C (  3)  2.759503  1.506327
   C (  4)  2.756734  1.506360  2.541129
   H (  5)  3.488461  2.146870  1.097969  2.783067
   H (  6)  3.471007  2.145339  1.098192  2.800893  1.757191
   H (  7)  2.819258  2.162836  1.089477  3.484661  1.784572  1.783486
   H (  8)  2.965670  3.931544  4.000306  5.356785  4.889075  4.469986
   H (  9)  3.474796  2.145920  2.794879  1.098075  2.586709  3.152571
   H ( 10)  2.813369  2.162044  3.484167  1.089414  3.785141  3.793793
   H ( 11)  3.480944  2.146991  2.789738  1.098009  3.112362  2.600583
   H ( 12)  3.700000  4.631083  4.596456  6.052651  5.486151  4.984106
             H (  7)   H (  8)   H (  9)   H ( 10)   H ( 11)
   H (  8)  3.225997
   H (  9)  3.786757  6.059914
   H ( 10)  4.310871  5.645464  1.784085
   H ( 11)  3.793458  5.757410  1.756719  1.784305
   H ( 12)  3.760552  0.744053  6.766049  6.352885  6.396646
 
 Final energy is   -517.297614267876     


 ******************************
 **  OPTIMIZATION CONVERGED  **
 ******************************

                       Coordinates (Angstroms)
     ATOM                X               Y               Z
      1  S         1.2721137601    0.3296844319    0.5431259932
      2  C        -0.2347134691    0.4310294496   -0.0933700842
      3  C        -1.1153228819   -0.7751281447   -0.2901769204
      4  C        -0.8417452657    1.7402711292   -0.5252499010
      5  H        -1.4103480983   -0.8579896614   -1.3445156638
      6  H        -2.0455012516   -0.6566455926    0.2814492947
      7  H        -0.6190083618   -1.6944298961    0.0188796289
      8  H         1.7322034364   -2.0923372525    2.1915574518
      9  H        -1.1041828962    1.6987118991   -1.5906928682
     10  H        -0.1645001017    2.5761865690   -0.3537641237
     11  H        -1.7807694656    1.9167503272    0.0157791655
     12  H         1.8416745954   -2.6153032589    2.7093780271

Z-matrix Print:
$molecule
0 1
S 
C  1 1.638880
C  2 1.506327 1 122.597173
H  3 1.089477 2 111.855816 1 -1.206843 0
H  3 1.097969 2 110.058248 1 -122.960059 0
H  3 1.098192 2 109.923825 1 120.306926 0
C  2 1.506360 1 122.384833 3 179.994860 0
H  7 1.089414 2 111.792912 1 -0.381585 0
H  7 1.098009 2 110.063107 1 -122.066983 0
H  7 1.098075 2 109.974408 1 121.210644 0
H  1 2.965670 2 114.142832 3 -22.361889 0
H  11 0.744053 1 169.632827 2 -106.517463 0
$end

PES scan, value:    3.7000 energy: -517.2976142679
------- Summary of potential scan: ------ 
    3.7000      -517.2976142679
----------------------------------------- 
Archival summary:
1\1\hpc0250\JobtypUnspecified\ProcedureUnspecified\6-31G**\138\knomura\WedMar1316:43:142019WedMar1316:43:142019\0\\#,JobtypUnspecified,ProcedureUnspecified,6-31G**,\\0,1\S\C,1,1.63888\C,2,1.50633,1,122.597\H,3,1.08948,2,111.856,1,-1.20684,0\H,3,1.09797,2,110.058,1,-122.96,0\H,3,1.09819,2,109.924,1,120.307,0\C,2,1.50636,1,122.385,3,179.995,0\H,7,1.08941,2,111.793,1,-0.381585,0\H,7,1.09801,2,110.063,1,-122.067,0\H,7,1.09808,2,109.974,1,121.211,0\H,1,2.96567,2,114.143,3,-22.3619,0\H,11,0.744053,1,169.633,2,-106.517,0\\\@

 Total job time:  443.90s(wall), 5117.31s(cpu) 
 Wed Mar 13 16:43:14 2019

        *************************************************************
        *                                                           *
        *  Thank you very much for using Q-Chem.  Have a nice day.  *
        *                                                           *
        *************************************************************


